Title
81354
    1CHL1    C3    1   1.091   4.594  10.528  0.6148 -0.0754 -0.1464
    1CHL1    H3    2   1.033   4.501  10.510  0.0757 -0.2066  1.9665
    1CHL1    O3    3   1.105   4.620  10.673 -0.2390 -0.1968 -0.1574
    1CHL1   H3'    4   1.061   4.705  10.688  1.7234  0.9620 -0.6057
    1CHL1    C4    5   1.225   4.583  10.456 -0.1614  0.3100  0.1071
    1CHL1   H4A    6   1.287   4.674  10.471  1.2576 -0.1274 -2.5064
    1CHL1   H4B    7   1.279   4.501  10.507  1.7215  1.8274  0.6677
    1CHL1    C5    8   1.216   4.552  10.306  0.0644  0.1563 -0.5003
    1CHL1    C6    9   1.283   4.453  10.242  0.1888  1.2551  1.0845
    1CHL1    H6   10   1.352   4.386  10.295 -0.3221 -1.2415 -1.1911
    1CHL1    C7   11   1.281   4.418  10.100 -0.3410 -0.3889 -0.0623
    1CHL1   H7A   12   1.383   4.391  10.065 -0.6220 -0.0465 -1.1796
    1CHL1   H7B   13   1.220   4.326  10.086 -1.4544  0.1884  0.8449
    1CHL1    C8   14   1.194   4.521  10.013  0.2232 -0.2511  0.8422
    1CHL1    H8   15   1.262   4.606   9.991  0.7549 -0.9970 -0.6027
    1CHL1   C14   16   1.151   4.463   9.882 -0.1392  0.1376  0.8198
    1CHL1   H14   17   1.084   4.376   9.897 -1.5884  0.2946 -3.3928
    1CHL1   C15   18   1.267   4.413   9.796  0.2254  0.1720  0.3694
    1CHL1  H15A   19   1.351   4.486   9.792 -0.3587  0.8140 -0.9613
    1CHL1  H15B   20   1.297   4.312   9.833 -1.1868  0.3137  1.9920
    1CHL1   C16   21   1.213   4.409   9.655  0.4199  0.0983  0.8486
    1CHL1  H16A   22   1.285   4.453   9.582  0.7303 -1.4983  0.1526
    1CHL1  H16B   23   1.196   4.306   9.616  1.1239  0.2242  0.1790
    1CHL1   C17   24   1.068   4.481   9.651 -0.7855  0.0264 -0.1719
    1CHL1   H17   25   0.989   4.403   9.656 -0.7677 -0.0667 -1.0984
    1CHL1   C13   26   1.073   4.559   9.789 -0.2253  0.4677  0.4628
    1CHL1   C18   27   1.153   4.688   9.745  0.7514  1.0229 -0.1131
    1CHL1  H18A   28   1.078   4.760   9.706 -0.1724 -1.4537 -3.3676
    1CHL1  H18B   29   1.201   4.736   9.833  0.8677 -1.9744  1.5866
    1CHL1  H18C   30   1.228   4.673   9.665 -0.2527 -2.8841 -0.5391
    1CHL1   C12   31   0.953   4.595   9.867 -0.0861  0.2828  0.1684
    1CHL1  H12A   32   0.896   4.668   9.807 -0.1484  1.7026  1.8621
    1CHL1  H12B   33   0.895   4.501   9.882 -0.7941  0.6832 -0.0369
    1CHL1   C11   34   0.983   4.654  10.008 -0.0208 -0.6203  0.4225
    1CHL1  H11A   35   1.025   4.757  10.016  0.4021 -0.9472  3.4980
    1CHL1  H11B   36   0.887   4.663  10.064  0.9812 -1.4856  2.3868
    1CHL1    C9   37   1.071   4.569  10.093 -0.7676  0.0529  0.7625
    1CHL1    H9   38   1.017   4.473  10.107 -2.7076  0.9236 -0.3250
    1CHL1   C10   39   1.116   4.638  10.230 -0.0058 -0.1317 -0.1536
    1CHL1   C19   40   1.187   4.774  10.204  0.5883  0.6241  0.0425
    1CHL1  H19A   41   1.121   4.851  10.160 -2.4194 -1.6549  0.1640
    1CHL1  H19B   42   1.209   4.819  10.304 -1.5082  2.3602 -0.2068
    1CHL1  H19C   43   1.283   4.752  10.153  0.7716 -1.1985  1.0846
    1CHL1    C1   44   0.985   4.671  10.317  0.1784 -0.4878 -0.7696
    1CHL1   H1A   45   0.911   4.742  10.275 -0.3294 -0.2362  0.5207
    1CHL1   H1B   46   0.929   4.575  10.317 -0.6090 -0.0331 -1.2585
    1CHL1    C2   47   1.014   4.707  10.462 -0.1828  0.7759 -0.1122
    1CHL1   H2A   48   0.923   4.730  10.521  0.6106  0.5856  1.2299
    1CHL1   H2B   49   1.082   4.795  10.466  1.6560 -0.4989 -1.5962
    1CHL1   C20   50   1.031   4.547   9.522 -0.5326 -0.2848 -0.1265
    1CHL1   H20   51   1.100   4.632   9.505  0.1052 -1.2855 -3.0905
    1CHL1   C21   52   0.883   4.591   9.528 -0.4199  0.5304 -0.2745
    1CHL1  H21A   53   0.861   4.673   9.601 -2.3449 -0.1143 -0.0691
    1CHL1  H21B   54   0.814   4.506   9.546  0.5009 -0.3047 -0.6149
    1CHL1  H21C   55   0.860   4.635   9.428  1.4184 -0.2713 -1.0843
    1CHL1   C22   56   1.050   4.451   9.401 -0.8493  0.3497  0.3580
    1CHL1  H22A   57   1.157   4.422   9.400 -1.2787 -1.4834  1.2699
    1CHL1  H22B   58   0.987   4.361   9.422 -0.9744  0.6845  1.4830
    1CHL1   C23   59   1.020   4.486   9.253  0.3361  0.0354  0.8646
    1CHL1  H23A   60   0.917   4.522   9.231  1.3603  3.9348  1.5736
    1CHL1  H23B   61   1.083   4.577   9.245 -0.1338  0.2770 -0.4426
    1CHL1   C24   62   1.068   4.381   9.151 -0.7096  0.0378  0.1329
    1CHL1  H24A   63   1.165   4.341   9.189 -0.9160  0.7493  1.4836
    1CHL1  H24B   64   1.015   4.283   9.159  1.3082 -1.1887 -0.7803
    1CHL1   C25   65   1.083   4.416   9.004  0.0451  0.7962 -0.0333
    1CHL1   H25   66   1.162   4.493   9.014  0.8835  0.2758 -2.0579
    1CHL1   C26   67   1.156   4.311   8.924 -0.0500 -0.1319 -0.5643
    1CHL1  H26A   68   1.099   4.216   8.930  1.3931 -0.9432  3.7483
    1CHL1  H26B   69   1.171   4.343   8.819  1.3791  2.1727  0.2669
    1CHL1  H26C   70   1.258   4.299   8.966  0.1842 -2.7297 -1.7035
    1CHL1   C27   71   0.963   4.480   8.933  0.6293 -0.1045 -0.1204
    1CHL1  H27A   72   0.891   4.533   9.000 -1.0493 -0.9550 -1.1970
    1CHL1  H27B   73   0.999   4.540   8.847 -0.5516  0.2453 -0.3899
    1CHL1  H27C   74   0.909   4.392   8.891  0.2326 -1.4838  2.9816
    2CHL1    C3   75   1.573   2.592  10.200 -0.3002 -0.0422 -0.8756
    2CHL1    H3   76   1.674   2.553  10.178  0.2709  0.4087  0.7939
    2CHL1    O3   77   1.569   2.589  10.343  0.7085  0.0070  0.0728
    2CHL1   H3'   78   1.485   2.627  10.367 -0.5348 -2.0803 -0.6747
    2CHL1    C4   79   1.551   2.733  10.148 -0.6220  0.4935  0.4216
    2CHL1   H4A   80   1.451   2.773  10.177 -1.2896  0.2197 -1.3631
    2CHL1   H4B   81   1.630   2.800  10.188 -0.0911  0.7299 -0.9920
    2CHL1    C5   82   1.568   2.725   9.991 -0.0156 -0.4790  0.0529
    2CHL1    C6   83   1.664   2.791   9.922  0.0414 -0.4224  0.9876
    2CHL1    H6   84   1.730   2.860   9.976  0.0921  0.8478 -0.6092
    2CHL1    C7   85   1.700   2.787   9.780  0.2249  0.5582  0.0485
    2CHL1   H7A   86   1.714   2.888   9.738  0.8491  0.4043 -0.1213
    2CHL1   H7B   87   1.796   2.734   9.760  0.3436  0.6068  0.4791
    2CHL1    C8   88   1.589   2.712   9.705  0.3271 -0.1085 -0.8839
    2CHL1    H8   89   1.501   2.778   9.710 -0.2677 -0.3445 -4.8564
    2CHL1   C14   90   1.609   2.692   9.553  0.2548  0.5960  0.3813
    2CHL1   H14   91   1.701   2.631   9.540  0.0160  0.4151 -0.5226
    2CHL1   C15   92   1.637   2.815   9.469  0.4952  0.5790 -0.2638
    2CHL1  H15A   93   1.577   2.895   9.517  1.7964  1.8342 -0.6720
    2CHL1  H15B   94   1.745   2.836   9.480  1.1249 -1.5953 -1.6722
    2CHL1   C16   95   1.614   2.782   9.321  0.2821  0.2069 -0.6248
    2CHL1  H16A   96   1.541   2.852   9.275 -2.1392 -0.3480  2.0524
    2CHL1  H16B   97   1.713   2.786   9.272  0.9628  0.7930  0.7353
    2CHL1   C17   98   1.550   2.645   9.332  0.1867 -0.4986 -0.1155
    2CHL1   H17   99   1.629   2.569   9.314  1.3227  1.0261 -1.8927
    2CHL1   C13  100   1.503   2.626   9.478 -0.4545  0.5405  0.1486
    2CHL1   C18  101   1.371   2.702   9.485  0.1057  0.1513 -0.5762
    2CHL1  H18A  102   1.335   2.710   9.590 -0.7759  2.1556 -0.9900
    2CHL1  H18B  103   1.386   2.809   9.460  0.8720  0.4561  1.0634
    2CHL1  H18C  104   1.298   2.656   9.415 -2.3482  2.2120  0.4706
    2CHL1   C12  105   1.486   2.483   9.532  0.0038 -0.0925 -0.5966
    2CHL1  H12A  106   1.410   2.426   9.474 -0.5534  2.5928 -2.7650
    2CHL1  H12B  107   1.584   2.432   9.525  0.8329  1.3596 -0.0517
    2CHL1   C11  108   1.450   2.491   9.684 -0.4804 -0.3084 -0.2403
    2CHL1  H11A  109   1.349   2.538   9.694  0.2758  1.7385 -1.5898
    2CHL1  H11B  110   1.464   2.386   9.716  0.9560 -0.0219  0.1542
    2CHL1    C9  111   1.543   2.590   9.770  0.0745 -0.6042  0.3017
    2CHL1    H9  112   1.637   2.532   9.780  2.5005  2.9422 -0.2921
    2CHL1   C10  113   1.487   2.615   9.917 -0.0876  0.2651 -0.1512
    2CHL1   C19  114   1.333   2.661   9.915 -0.3018 -0.6363  0.1033
    2CHL1  H19A  115   1.323   2.742   9.840  1.8670  0.0050  0.4497
    2CHL1  H19B  116   1.267   2.578   9.880 -1.3914 -0.5365  1.7871
    2CHL1  H19C  117   1.303   2.686  10.019  0.9302  2.3772 -0.1815
    2CHL1    C1  118   1.491   2.479   9.994  0.2288  0.1913  0.5320
    2CHL1   H1A  119   1.418   2.410   9.947 -1.4107  1.8285  0.5760
    2CHL1   H1B  120   1.592   2.441   9.968 -1.2394 -2.7084 -1.4174
    2CHL1    C2  121   1.475   2.492  10.144  0.3543 -0.3640  0.2483
    2CHL1   H2A  122   1.486   2.390  10.186 -1.5365 -1.5284 -1.9088
    2CHL1   H2B  123   1.372   2.524  10.170  1.0532  0.8494  1.7200
    2CHL1   C20  124   1.458   2.623   9.215  0.2463  0.0854  0.0890
    2CHL1   H20  125   1.374   2.696   9.212 -2.3736 -2.7019  1.1463
    2CHL1   C21  126   1.394   2.485   9.221 -0.0564 -0.1448  0.1069
    2CHL1  H21A  127   1.475   2.409   9.223  0.8792  0.8158  2.8985
    2CHL1  H21B  128   1.324   2.469   9.137 -2.2132  0.8933  1.6168
    2CHL1  H21C  129   1.321   2.482   9.305 -1.3497 -0.1934 -0.9808
    2CHL1   C22  130   1.540   2.646   9.081  0.5696  0.4355 -0.8203
    2CHL1  H22A  131   1.558   2.755   9.081  0.0433  0.5354  0.0703
    2CHL1  H22B  132   1.640   2.598   9.085  0.0514 -0.6507  2.6664
    2CHL1   C23  133   1.468   2.608   8.951 -0.1027 -0.4473 -0.5395
    2CHL1  H23A  134   1.479   2.499   8.935  0.2364 -0.7254  1.3506
    2CHL1  H23B  135   1.364   2.643   8.963  0.3582  1.1923 -0.9944
    2CHL1   C24  136   1.549   2.683   8.843 -0.3964  0.3533  0.3737
    2CHL1  H24A  137   1.578   2.779   8.891 -1.3277  0.2208  1.2543
    2CHL1  H24B  138   1.635   2.616   8.822  0.6331  1.4246  1.0554
    2CHL1   C25  139   1.471   2.699   8.712  0.4635 -0.1680  0.7903
    2CHL1   H25  140   1.381   2.753   8.747 -0.1017 -0.0296 -0.8208
    2CHL1   C26  141   1.549   2.788   8.598  0.7983  0.1516 -0.2806
    2CHL1  H26A  142   1.511   2.782   8.494 -1.4199 -1.3399  0.5452
    2CHL1  H26B  143   1.550   2.896   8.626  1.3370 -0.3431  1.7266
    2CHL1  H26C  144   1.655   2.755   8.603  0.6186 -0.3349  4.1295
    2CHL1   C27  145   1.434   2.559   8.644 -0.4894 -1.0629  0.2280
    2CHL1  H27A  146   1.397   2.483   8.716  0.3418 -1.1832  0.5379
    2CHL1  H27B  147   1.372   2.569   8.552  1.1133 -0.9600 -0.8800
    2CHL1  H27C  148   1.532   2.521   8.609 -0.6426  0.9049 -2.7359
    3CHL1    C3  149   2.245   2.624  10.248  0.0069 -0.5763  0.3433
    3CHL1    H3  150   2.300   2.528  10.236 -0.2499 -0.6402 -0.3566
    3CHL1    O3  151   2.248   2.679  10.379  0.0895  0.6621 -0.4512
    3CHL1   H3'  152   2.198   2.761  10.382  1.8405  1.8896 -2.3254
    3CHL1    C4  153   2.327   2.732  10.165 -0.3665 -0.0407  0.0218
    3CHL1   H4A  154   2.293   2.835  10.189  1.9507  0.8662 -0.3478
    3CHL1   H4B  155   2.432   2.739  10.200 -1.0451 -2.0610  2.8221
    3CHL1    C5  156   2.325   2.720  10.018  0.1140 -1.0520 -0.7124
    3CHL1    C6  157   2.439   2.707   9.950  0.1565  0.2482 -0.1072
    3CHL1    H6  158   2.533   2.706  10.007 -0.1154  0.6621  0.3686
    3CHL1    C7  159   2.456   2.702   9.802  0.0025 -0.2971 -0.3877
    3CHL1   H7A  160   2.531   2.780   9.776 -0.7229  0.8371  0.8412
    3CHL1   H7B  161   2.506   2.606   9.774 -0.5556 -0.2999 -1.4583
    3CHL1    C8  162   2.321   2.720   9.736  0.0298 -1.4521 -0.1914
    3CHL1    H8  163   2.303   2.829   9.728  2.4388 -1.0463 -1.0409
    3CHL1   C14  164   2.329   2.666   9.590  0.7461  0.4624 -0.6565
    3CHL1   H14  165   2.349   2.558   9.605 -1.6965  0.2226  1.8089
    3CHL1   C15  166   2.438   2.721   9.504 -0.1367 -0.2249  0.7155
    3CHL1  H15A  167   2.438   2.831   9.520 -1.6266 -0.2061  0.7784
    3CHL1  H15B  168   2.533   2.672   9.535 -0.1924 -0.7499  0.0711
    3CHL1   C16  169   2.393   2.696   9.360  0.2858  0.3870  0.1067
    3CHL1  H16A  170   2.407   2.791   9.304 -1.6426  1.0327  0.6313
    3CHL1  H16B  171   2.455   2.616   9.315  0.0790  0.3371 -0.0918
    3CHL1   C17  172   2.238   2.661   9.362  0.1893 -0.4362 -0.5206
    3CHL1   H17  173   2.240   2.550   9.360  2.3734 -0.4466 -0.4123
    3CHL1   C13  174   2.194   2.684   9.515  0.2734 -0.0437  0.6304
    3CHL1   C18  175   2.157   2.837   9.503 -0.4993  0.4810 -0.3619
    3CHL1  H18A  176   2.131   2.884   9.601  1.4896  1.6364 -0.3355
    3CHL1  H18B  177   2.249   2.888   9.469 -0.9669  1.0966 -0.7259
    3CHL1  H18C  178   2.067   2.846   9.438 -0.6161 -1.9533 -0.6199
    3CHL1   C12  179   2.092   2.591   9.579 -0.0483  0.0603 -0.1269
    3CHL1  H12A  180   1.989   2.597   9.538  0.9655 -0.6900 -3.0207
    3CHL1  H12B  181   2.120   2.484   9.584 -0.7869 -0.0933  3.0339
    3CHL1   C11  182   2.076   2.637   9.729 -0.1694 -0.1570  0.6761
    3CHL1  H11A  183   2.029   2.738   9.726 -0.0564 -0.1091 -2.2151
    3CHL1  H11B  184   2.004   2.574   9.785 -0.8248  0.5050  0.6051
    3CHL1    C9  185   2.204   2.650   9.812 -0.5051  0.5387  0.6381
    3CHL1    H9  186   2.243   2.546   9.814 -0.4926  0.5236  0.0058
    3CHL1   C10  187   2.184   2.702   9.958  0.4745  1.1678 -0.0027
    3CHL1   C19  188   2.118   2.843   9.955 -0.2475 -0.1394  0.1974
    3CHL1  H19A  189   2.178   2.912   9.892 -2.2282  2.0255  0.5454
    3CHL1  H19B  190   2.014   2.838   9.915  0.5956 -1.2850 -2.0081
    3CHL1  H19C  191   2.123   2.873  10.062 -0.6037 -1.5493  0.6398
    3CHL1    C1  192   2.093   2.610  10.039  0.2291  0.7502 -0.4366
    3CHL1   H1A  193   1.989   2.619  10.001  1.3173  3.7896 -3.0992
    3CHL1   H1B  194   2.121   2.505  10.015 -1.4217  0.3899 -0.9299
    3CHL1    C2  195   2.099   2.636  10.196 -0.1783 -0.1694 -0.2411
    3CHL1   H2A  196   2.032   2.559  10.241  1.1916 -1.1416  0.1887
    3CHL1   H2B  197   2.057   2.734  10.226  0.8421 -0.1127  1.0708
    3CHL1   C20  198   2.152   2.704   9.243 -0.6617  0.0848 -0.3779
    3CHL1   H20  199   2.147   2.815   9.243 -0.3456  0.1239 -1.7394
    3CHL1   C21  200   2.008   2.648   9.262  0.5510  0.0684 -0.5938
    3CHL1  H21A  201   1.961   2.646   9.161  0.6978  0.7727 -0.6833
    3CHL1  H21B  202   1.951   2.723   9.322  0.7117  0.6274 -1.1290
    3CHL1  H21C  203   2.016   2.545   9.303  0.0250  0.4072  0.3887
    3CHL1   C22  204   2.215   2.643   9.106  0.4622 -0.3112 -0.4947
    3CHL1  H22A  205   2.326   2.647   9.106  0.7182 -2.1649 -4.3864
    3CHL1  H22B  206   2.174   2.540   9.101 -0.6098  0.1423 -1.7346
    3CHL1   C23  207   2.155   2.715   8.980 -0.0369  0.5947  0.9773
    3CHL1  H23A  208   2.049   2.687   8.994  0.5563 -1.7103  1.2000
    3CHL1  H23B  209   2.160   2.826   8.988  2.3549  0.5047  1.7927
    3CHL1   C24  210   2.218   2.645   8.857 -0.9566 -0.4310  0.3590
    3CHL1  H24A  211   2.327   2.641   8.878 -1.0227 -0.6669  0.6682
    3CHL1  H24B  212   2.188   2.540   8.835 -0.6343 -0.5095  0.2853
    3CHL1   C25  213   2.197   2.728   8.728 -0.1474  0.0464 -0.3617
    3CHL1   H25  214   2.268   2.691   8.651 -0.5284 -3.2394  0.7061
    3CHL1   C26  215   2.063   2.691   8.673  0.7555  0.5021  0.3139
    3CHL1  H26A  216   2.051   2.760   8.587  1.1585  2.1130  1.4766
    3CHL1  H26B  217   2.060   2.587   8.637 -1.2339  0.4595  0.5043
    3CHL1  H26C  218   1.974   2.718   8.734  0.3621 -0.7748  0.3154
    3CHL1   C27  219   2.208   2.880   8.734 -0.4755 -0.7350 -0.3857
    3CHL1  H27A  220   2.206   2.919   8.630  0.6708  1.8439  0.4718
    3CHL1  H27B  221   2.121   2.930   8.781 -1.2607 -0.3221 -2.1837
    3CHL1  H27C  222   2.301   2.911   8.786 -0.5508 -0.3755 -0.4645
    4CHL1    C3  223   2.483   4.397  10.709  0.0368 -0.1788  0.0988
    4CHL1    H3  224   2.583   4.446  10.710 -0.5504  1.4105  5.0213
    4CHL1    O3  225   2.463   4.351  10.845  0.5379  0.1664  0.2490
    4CHL1   H3'  226   2.397   4.412  10.878 -0.5611 -1.0425  0.4124
    4CHL1    C4  227   2.383   4.508  10.680  0.0373 -0.0599  0.2155
    4CHL1   H4A  228   2.283   4.472  10.712 -1.5473  2.6727 -1.2748
    4CHL1   H4B  229   2.389   4.588  10.757  0.7571  1.4468 -1.3484
    4CHL1    C5  230   2.396   4.566  10.535  0.4802  0.9693  0.2849
    4CHL1    C6  231   2.430   4.690  10.517  0.1324  0.5865  0.0639
    4CHL1    H6  232   2.446   4.756  10.603  0.3193  1.1707 -0.4091
    4CHL1    C7  233   2.432   4.744  10.372  0.0443  1.3859 -0.2732
    4CHL1   H7A  234   2.370   4.836  10.370 -0.1946  1.2485  0.5705
    4CHL1   H7B  235   2.536   4.757  10.335  1.4803 -2.1804  1.9122
    4CHL1    C8  236   2.344   4.655  10.275  0.9854  0.7017  0.1708
    4CHL1    H8  237   2.239   4.664  10.310  0.6782 -1.2708 -0.1374
    4CHL1   C14  238   2.356   4.703  10.130 -0.1340  0.3380 -0.6564
    4CHL1   H14  239   2.465   4.695  10.108 -0.2697 -0.6410 -1.0573
    4CHL1   C15  240   2.309   4.845  10.100  0.6212 -0.1376  0.3193
    4CHL1  H15A  241   2.226   4.860  10.173 -0.6578 -0.9121 -0.9337
    4CHL1  H15B  242   2.393   4.915  10.120  0.0229  0.4883  0.6595
    4CHL1   C16  243   2.260   4.844   9.957  0.6225 -0.0066  0.0911
    4CHL1  H16A  244   2.149   4.842   9.951  0.5003 -3.7247  0.9876
    4CHL1  H16B  245   2.294   4.929   9.894 -2.3523  0.5003 -1.0287
    4CHL1   C17  246   2.301   4.710   9.906 -0.4185  0.2934  0.6765
    4CHL1   H17  247   2.409   4.717   9.883 -0.0851  0.4332  2.1347
    4CHL1   C13  248   2.286   4.616  10.023 -0.1160 -0.2823  0.3901
    4CHL1   C18  249   2.132   4.591  10.058  1.1872  0.0681 -0.2984
    4CHL1  H18A  250   2.069   4.682  10.067  1.5377  0.1415  1.9690
    4CHL1  H18B  251   2.084   4.535   9.975  2.4146  0.2479 -1.1530
    4CHL1  H18C  252   2.124   4.525  10.147 -2.3543 -2.0131 -1.9561
    4CHL1   C12  253   2.363   4.485  10.018  0.6087  0.7219 -0.3176
    4CHL1  H12A  254   2.320   4.417   9.941  1.8534  1.8143 -2.0746
    4CHL1  H12B  255   2.462   4.515   9.977  0.4076  0.5830 -0.9193
    4CHL1   C11  256   2.368   4.415  10.161 -0.2287 -0.1000  0.2699
    4CHL1  H11A  257   2.280   4.350  10.172 -0.6329  0.5541  0.9799
    4CHL1  H11B  258   2.458   4.350  10.158 -0.2994 -0.2838  1.5944
    4CHL1    C9  259   2.405   4.514  10.286  0.3351 -0.0780  0.5479
    4CHL1    H9  260   2.515   4.519  10.268  0.2072 -0.1634 -0.2763
    4CHL1   C10  261   2.373   4.454  10.425 -0.2694 -0.6846 -0.1151
    4CHL1   C19  262   2.226   4.412  10.429 -1.0238  0.5896 -0.3758
    4CHL1  H19A  263   2.217   4.320  10.368  1.3892  0.8015 -1.1622
    4CHL1  H19B  264   2.205   4.389  10.535  1.9562 -0.1241  0.1552
    4CHL1  H19C  265   2.155   4.487  10.388 -1.2391  1.0225  0.7440
    4CHL1    C1  266   2.478   4.334  10.458  0.3005  0.2698 -0.0577
    4CHL1   H1A  267   2.444   4.260  10.382 -2.2332 -0.0928  1.3179
    4CHL1   H1B  268   2.581   4.370  10.439 -0.3807  2.6963  0.5128
    4CHL1    C2  269   2.468   4.287  10.604  0.3402  0.6774  0.4959
    4CHL1   H2A  270   2.546   4.212  10.627 -1.1659 -0.7444  1.1652
    4CHL1   H2B  271   2.376   4.229  10.628  0.5418  0.2563  0.2586
    4CHL1   C20  272   2.232   4.671   9.772  0.5078 -0.4266  0.5561
    4CHL1   H20  273   2.129   4.638   9.798  0.4768 -1.3154 -0.6688
    4CHL1   C21  274   2.296   4.545   9.709 -0.4069 -0.1128  0.6827
    4CHL1  H21A  275   2.406   4.529   9.713 -0.4814 -0.9025 -0.1106
    4CHL1  H21B  276   2.281   4.542   9.599 -0.1059  0.6472  0.6133
    4CHL1  H21C  277   2.242   4.455   9.745  0.2420 -0.1523  1.5963
    4CHL1   C22  278   2.226   4.787   9.663 -0.3262 -0.0749 -1.1239
    4CHL1  H22A  279   2.184   4.749   9.567 -1.2268  0.2564 -0.8759
    4CHL1  H22B  280   2.160   4.869   9.699  0.1586 -0.5887  1.1300
    4CHL1   C23  281   2.363   4.863   9.625 -0.1018  0.5867  0.7193
    4CHL1  H23A  282   2.406   4.915   9.714  0.8984 -0.2537  0.7435
    4CHL1  H23B  283   2.432   4.780   9.600 -1.4319 -0.5143  0.6141
    4CHL1   C24  284   2.341   4.960   9.505  0.6979 -0.2883 -0.7567
    4CHL1  H24A  285   2.303   4.892   9.426 -0.1635  0.0499 -0.6364
    4CHL1  H24B  286   2.260   5.031   9.530 -1.0386 -1.9637 -1.4117
    4CHL1   C25  287   2.475   5.014   9.448 -0.4961 -0.1403  0.3370
    4CHL1   H25  288   2.528   5.066   9.530 -1.7549 -1.3700  2.0016
    4CHL1   C26  289   2.560   4.900   9.387 -0.2719  0.3432 -0.1411
    4CHL1  H26A  290   2.515   4.839   9.305  3.0038 -1.3964 -0.8055
    4CHL1  H26B  291   2.657   4.942   9.353 -1.5215  1.8650 -2.0867
    4CHL1  H26C  292   2.588   4.834   9.472 -1.2982  0.4320  0.2761
    4CHL1   C27  293   2.438   5.131   9.356  0.5336 -0.7153  0.8620
    4CHL1  H27A  294   2.522   5.190   9.315  1.2974 -1.2957  1.5731
    4CHL1  H27B  295   2.379   5.093   9.269  4.6050  0.0739 -2.5851
    4CHL1  H27C  296   2.379   5.206   9.412  0.9143  1.8839 -1.9374
    5CHL1    C3  297   2.944   3.641  10.311 -0.0214  0.4661 -0.2586
    5CHL1    H3  298   3.010   3.728  10.291  1.8408 -0.7068  0.4474
    5CHL1    O3  299   2.876   3.659  10.438 -0.3076  0.1244  0.5805
    5CHL1   H3'  300   2.839   3.572  10.455 -0.4854  0.1859  0.5025
    5CHL1    C4  301   2.848   3.635  10.191  0.7789 -0.4520  0.3110
    5CHL1   H4A  302   2.780   3.561  10.237  0.0999  0.2391  0.4323
    5CHL1   H4B  303   2.796   3.733  10.197  0.2280 -0.7303  0.1033
    5CHL1    C5  304   2.902   3.591  10.055  1.2753 -1.1512  0.6470
    5CHL1    C6  305   2.872   3.665   9.945 -0.6723  0.1111  0.4247
    5CHL1    H6  306   2.810   3.755   9.957 -2.1811 -0.9916  1.1773
    5CHL1    C7  307   2.912   3.624   9.803  0.8088 -0.1960  0.0574
    5CHL1   H7A  308   2.832   3.617   9.726  0.6542  0.6625  0.1328
    5CHL1   H7B  309   2.965   3.716   9.772  1.2462  1.1276  4.1832
    5CHL1    C8  310   2.998   3.494   9.803 -0.6120 -0.2859 -0.0829
    5CHL1    H8  311   2.930   3.407   9.797 -1.3203 -0.2243  4.0855
    5CHL1   C14  312   3.084   3.501   9.683 -0.0560 -0.1548 -0.1649
    5CHL1   H14  313   3.154   3.585   9.707 -0.3249 -0.6722  2.8250
    5CHL1   C15  314   3.009   3.531   9.545 -0.0618 -0.8214  0.2285
    5CHL1  H15A  315   2.908   3.486   9.538 -1.3680  1.8374  0.4138
    5CHL1  H15B  316   3.002   3.642   9.541  0.0393 -0.7406  1.6620
    5CHL1   C16  317   3.110   3.479   9.442 -0.2330 -0.3412 -0.1438
    5CHL1  H16A  318   3.073   3.406   9.367 -1.0797  0.7814 -0.8654
    5CHL1  H16B  319   3.148   3.561   9.376  0.5988 -0.3327  0.3342
    5CHL1   C17  320   3.233   3.411   9.512  0.7191  0.1173 -0.0877
    5CHL1   H17  321   3.302   3.495   9.537 -0.2189  0.5341  1.1704
    5CHL1   C13  322   3.174   3.378   9.656 -0.6218 -0.5647 -0.0631
    5CHL1   C18  323   3.093   3.250   9.644  0.4863  0.3156 -0.1427
    5CHL1  H18A  324   3.040   3.245   9.742  0.7461 -2.0572 -0.0699
    5CHL1  H18B  325   3.020   3.252   9.560  0.6263 -1.1540 -0.3202
    5CHL1  H18C  326   3.147   3.153   9.638 -0.3269 -0.4043  2.7328
    5CHL1   C12  327   3.266   3.365   9.779 -0.3001 -0.1930 -0.2084
    5CHL1  H12A  328   3.337   3.279   9.776  1.3517  0.9168  2.9256
    5CHL1  H12B  329   3.341   3.446   9.786  0.1415 -0.3838 -2.0723
    5CHL1   C11  330   3.188   3.361   9.915 -0.1924  1.0510 -0.8415
    5CHL1  H11A  331   3.143   3.260   9.921 -1.0847  1.4809 -0.0452
    5CHL1  H11B  332   3.270   3.376   9.988  1.0868  0.2406 -2.0584
    5CHL1    C9  333   3.087   3.474   9.931  0.3330  0.5109 -0.0379
    5CHL1    H9  334   3.147   3.568   9.937  0.2064  0.7726 -1.9457
    5CHL1   C10  335   3.001   3.479  10.056  0.0065  0.2572  0.4559
    5CHL1   C19  336   2.927   3.343  10.066  0.5668 -0.3825  0.0810
    5CHL1  H19A  337   2.863   3.343  10.157 -0.3119 -0.5017 -0.5200
    5CHL1  H19B  338   2.866   3.331   9.973  0.4008  1.4512 -0.0790
    5CHL1  H19C  339   3.000   3.259  10.063 -0.9609 -1.7886 -3.1793
    5CHL1    C1  340   3.094   3.495  10.187 -0.2770  0.5399 -0.3060
    5CHL1   H1A  341   3.153   3.401  10.189 -0.0070  0.7120  1.2700
    5CHL1   H1B  342   3.168   3.575  10.167  2.0825 -1.1321  1.1884
    5CHL1    C2  343   3.030   3.512  10.318 -0.0645 -0.0271  0.1539
    5CHL1   H2A  344   3.098   3.506  10.406  0.8390 -1.2045 -0.6051
    5CHL1   H2B  345   2.959   3.429  10.338  0.6193 -0.3492  1.3058
    5CHL1   C20  346   3.311   3.301   9.437  0.0518  0.2160  0.0814
    5CHL1   H20  347   3.256   3.208   9.411 -0.4925 -0.1116  2.2479
    5CHL1   C21  348   3.430   3.259   9.528  0.5156  0.2725  0.8255
    5CHL1  H21A  349   3.520   3.250   9.464 -1.0506 -1.7536 -1.2800
    5CHL1  H21B  350   3.415   3.167   9.589 -1.4209  1.5800  2.4610
    5CHL1  H21C  351   3.445   3.337   9.606 -4.5641  0.4090  2.0370
    5CHL1   C22  352   3.376   3.351   9.299  0.8143 -0.1392  0.2094
    5CHL1  H22A  353   3.294   3.396   9.240  0.1945 -1.3959  0.0810
    5CHL1  H22B  354   3.453   3.429   9.318  1.7648 -1.1523  0.6153
    5CHL1   C23  355   3.438   3.243   9.212  0.5168  0.5739  0.0313
    5CHL1  H23A  356   3.495   3.290   9.129  0.8834  1.2352  0.6465
    5CHL1  H23B  357   3.511   3.172   9.256  1.3256 -1.6321 -4.2885
    5CHL1   C24  358   3.329   3.158   9.142 -0.3208 -0.8067  1.0083
    5CHL1  H24A  359   3.253   3.132   9.219 -2.8285  1.9750 -0.3563
    5CHL1  H24B  360   3.268   3.211   9.066  1.7138 -0.9180 -0.7879
    5CHL1   C25  361   3.393   3.033   9.073  0.1106 -0.5023  0.2042
    5CHL1   H25  362   3.434   2.977   9.159  0.0982  0.9398  1.1894
    5CHL1   C26  363   3.287   2.943   9.011 -0.0180  0.0283  0.5441
    5CHL1  H26A  364   3.247   2.994   8.920 -0.9913 -1.9408 -0.1759
    5CHL1  H26B  365   3.337   2.854   8.967  1.0305  0.7313  0.2572
    5CHL1  H26C  366   3.215   2.921   9.092  1.1034 -0.8245  1.3529
    5CHL1   C27  367   3.503   3.078   8.972  0.1351  0.3491  0.2125
    5CHL1  H27A  368   3.551   2.988   8.930 -2.3035 -1.1956  0.5333
    5CHL1  H27B  369   3.442   3.120   8.889  0.0667 -0.0269  0.0743
    5CHL1  H27C  370   3.573   3.159   9.002 -0.0058  0.8198 -0.6971
    6CHL1    C3  371   0.420   5.944  10.452 -0.9787 -0.5217 -0.3303
    6CHL1    H3  372   0.495   5.863  10.444  0.8247  1.0067  0.4944
    6CHL1    O3  373   0.410   5.983  10.590 -0.0907  0.3667 -0.6009
    6CHL1   H3'  374   0.365   6.068  10.588  0.0238  0.4092 -1.7281
    6CHL1    C4  375   0.473   6.063  10.364  0.0714 -0.6582  0.2485
    6CHL1   H4A  376   0.422   6.159  10.387  0.2067 -0.1920 -1.3131
    6CHL1   H4B  377   0.580   6.075  10.392 -0.0932 -1.6825  1.4215
    6CHL1    C5  378   0.470   6.029  10.215  0.6467 -0.3199 -0.0765
    6CHL1    C6  379   0.583   6.021  10.145 -0.3594  0.7578 -0.2919
    6CHL1    H6  380   0.681   6.048  10.188  0.0160  2.2092 -1.9375
    6CHL1    C7  381   0.593   5.971   9.997 -0.0620 -0.8592  0.0981
    6CHL1   H7A  382   0.655   6.043   9.939 -0.5038 -1.2772 -0.9131
    6CHL1   H7B  383   0.653   5.879   9.983  1.8314  0.3094  0.1428
    6CHL1    C8  384   0.459   5.981   9.920 -0.0363 -0.1245  0.1155
    6CHL1    H8  385   0.431   6.087   9.901 -0.3080 -0.5424 -2.1677
    6CHL1   C14  386   0.472   5.898   9.791 -0.1849  0.3688  0.4447
    6CHL1   H14  387   0.494   5.795   9.826  0.4085  0.4842  0.4107
    6CHL1   C15  388   0.591   5.926   9.699  0.0123 -0.4530 -1.0412
    6CHL1  H15A  389   0.595   6.035   9.680 -2.1563 -0.1659 -0.0971
    6CHL1  H15B  390   0.685   5.883   9.740 -1.2616 -1.5243  0.9116
    6CHL1   C16  391   0.553   5.861   9.566 -0.5218  0.0259 -0.1142
    6CHL1  H16A  392   0.559   5.934   9.483 -0.3099 -1.0767 -1.0953
    6CHL1  H16B  393   0.612   5.771   9.538  0.3513  0.6147 -0.2076
    6CHL1   C17  394   0.404   5.813   9.577 -0.2809  0.1225  0.3400
    6CHL1   H17  395   0.393   5.707   9.608  0.5387 -0.5991 -1.7053
    6CHL1   C13  396   0.351   5.892   9.707  0.9247 -0.7563  0.0102
    6CHL1   C18  397   0.318   6.038   9.662 -0.0712  0.4417  0.0160
    6CHL1  H18A  398   0.320   6.108   9.748 -2.3779 -1.4667  1.7778
    6CHL1  H18B  399   0.386   6.066   9.579 -0.7004  0.7435 -0.4066
    6CHL1  H18C  400   0.221   6.059   9.612 -0.3179 -0.9034 -0.0950
    6CHL1   C12  401   0.225   5.838   9.798 -0.5685  0.3432  0.3071
    6CHL1  H12A  402   0.129   5.835   9.742  1.2400 -0.0492 -3.0396
    6CHL1  H12B  403   0.264   5.734   9.801 -0.4441  0.2672 -1.8853
    6CHL1   C11  404   0.210   5.893   9.942 -0.1459 -0.1471  0.1446
    6CHL1  H11A  405   0.146   5.983   9.927  0.1592 -0.0945 -0.9112
    6CHL1  H11B  406   0.143   5.825   9.999 -1.1570  0.0904 -0.7242
    6CHL1    C9  407   0.345   5.921  10.013  0.3336 -0.5478  0.4663
    6CHL1    H9  408   0.381   5.819  10.036 -1.5555 -1.9654 -2.3405
    6CHL1   C10  409   0.332   5.986  10.155 -0.1741  0.4994 -0.3672
    6CHL1   C19  410   0.251   6.116  10.141 -0.0260 -0.2890  0.6760
    6CHL1  H19A  411   0.243   6.161  10.242 -0.3855 -1.8234  1.3569
    6CHL1  H19B  412   0.302   6.183  10.069 -0.6773 -0.2638  0.2273
    6CHL1  H19C  413   0.148   6.093  10.106 -0.0842  2.8118 -1.7063
    6CHL1    C1  414   0.273   5.878  10.247  0.5190 -0.9142  0.1474
    6CHL1   H1A  415   0.165   5.869  10.225  0.2177 -2.3037  1.9506
    6CHL1   H1B  416   0.322   5.779  10.242  0.1860 -1.0539 -0.4435
    6CHL1    C2  417   0.281   5.916  10.396 -0.1024  1.0292  0.5560
    6CHL1   H2A  418   0.228   5.837  10.453  0.2118  0.5756  0.2305
    6CHL1   H2B  419   0.215   6.003  10.416  0.5617  0.9401  3.4637
    6CHL1   C20  420   0.326   5.829   9.445 -0.3468 -0.1598  0.1831
    6CHL1   H20  421   0.334   5.936   9.416 -0.1110 -0.4300 -0.7914
    6CHL1   C21  422   0.180   5.798   9.463 -0.0379  0.2922 -0.8589
    6CHL1  H21A  423   0.167   5.714   9.534  2.4166 -0.4603 -1.2110
    6CHL1  H21B  424   0.122   5.764   9.374 -0.8620 -0.5523 -0.0142
    6CHL1  H21C  425   0.127   5.888   9.501  1.5948  1.2799 -0.7990
    6CHL1   C22  426   0.388   5.749   9.329 -0.3062  0.1698  0.2439
    6CHL1  H22A  427   0.331   5.786   9.241  0.1260 -0.8266 -0.4705
    6CHL1  H22B  428   0.492   5.785   9.318 -0.1706  0.0604  1.0741
    6CHL1   C23  429   0.398   5.604   9.335  0.1444 -0.5310 -0.0050
    6CHL1  H23A  430   0.452   5.582   9.430 -0.8757  0.4629  0.8547
    6CHL1  H23B  431   0.302   5.549   9.344 -1.0341  1.4437  0.2183
    6CHL1   C24  432   0.469   5.540   9.210  0.0254 -0.3813 -0.0750
    6CHL1  H24A  433   0.401   5.558   9.124  1.7179 -1.2423 -1.6297
    6CHL1  H24B  434   0.561   5.597   9.189  0.5688 -1.1586  0.1572
    6CHL1   C25  435   0.495   5.384   9.222  0.3859  0.3071 -0.2136
    6CHL1   H25  436   0.417   5.332   9.281  1.5310 -1.4395 -0.1516
    6CHL1   C26  437   0.507   5.312   9.083 -0.2499  0.4963 -0.1709
    6CHL1  H26A  438   0.536   5.206   9.100 -4.6216 -0.7393  1.0222
    6CHL1  H26B  439   0.411   5.305   9.028 -0.3770 -1.5531  0.2250
    6CHL1  H26C  440   0.585   5.368   9.027  0.3513  2.5967  2.5630
    6CHL1   C27  441   0.620   5.350   9.298 -0.1762 -0.2271  0.5536
    6CHL1  H27A  442   0.671   5.256   9.265  0.6846 -0.0868  1.4329
    6CHL1  H27B  443   0.700   5.424   9.278  1.3598 -1.4594  1.8520
    6CHL1  H27C  444   0.597   5.342   9.406  2.2119  0.5336  1.1725
    7CHL1    C3  445   3.794   2.049  10.576  0.0126  0.6577  0.0704
    7CHL1    H3  446   3.905   2.051  10.586 -0.0488  0.6871  0.8075
    7CHL1    O3  447   3.736   2.056  10.701 -0.4541  0.0056  0.5869
    7CHL1   H3'  448   3.644   2.045  10.675  0.1508 -0.6858 -1.4146
    7CHL1    C4  449   3.740   2.172  10.492 -0.4112  0.1331  0.7536
    7CHL1   H4A  450   3.630   2.181  10.497 -0.6690 -1.9644 -0.1937
    7CHL1   H4B  451   3.782   2.262  10.542  0.4431  0.1823 -0.0159
    7CHL1    C5  452   3.772   2.171  10.342  0.2757  0.3844  0.5048
    7CHL1    C6  453   3.813   2.279  10.271  0.1141 -0.1381 -0.6888
    7CHL1    H6  454   3.823   2.374  10.325 -1.3930  0.2873 -1.1049
    7CHL1    C7  455   3.819   2.286  10.120  0.5621 -0.6878 -0.0672
    7CHL1   H7A  456   3.757   2.368  10.076  1.5643 -0.6871 -1.5752
    7CHL1   H7B  457   3.920   2.317  10.085  0.5744 -0.7987 -0.1288
    7CHL1    C8  458   3.783   2.155  10.043  0.3369 -0.7606 -0.0940
    7CHL1    H8  459   3.673   2.150  10.031 -0.1099 -0.4172  3.0793
    7CHL1   C14  460   3.858   2.152   9.910 -1.0541 -0.5183  0.3444
    7CHL1   H14  461   3.968   2.160   9.926 -0.7946 -2.1195 -0.4348
    7CHL1   C15  462   3.843   2.275   9.816  0.0167  0.4317  0.3427
    7CHL1  H15A  463   3.738   2.309   9.818  1.0634  4.2025  2.1581
    7CHL1  H15B  464   3.911   2.362   9.832 -0.6251  1.4642 -2.1520
    7CHL1   C16  465   3.869   2.215   9.673 -0.2234 -0.0573  0.4746
    7CHL1  H16A  466   3.779   2.237   9.612  0.1610  1.4394  0.4186
    7CHL1  H16B  467   3.960   2.264   9.633  1.0305 -1.7994  1.0715
    7CHL1   C17  468   3.894   2.064   9.694  0.5189 -0.1207  0.1556
    7CHL1   H17  469   4.001   2.034   9.696 -0.0193 -2.1491  0.4311
    7CHL1   C13  470   3.828   2.026   9.826  0.1007 -0.3692 -0.1905
    7CHL1   C18  471   3.677   2.025   9.804  0.4021  0.4638 -0.8187
    7CHL1  H18A  472   3.618   1.991   9.892  1.7490  0.4131  0.0946
    7CHL1  H18B  473   3.644   2.126   9.770  1.7846  1.3112  0.2236
    7CHL1  H18C  474   3.655   1.950   9.725  0.7079 -1.7150  1.0672
    7CHL1   C12  475   3.877   1.910   9.907  0.1035 -0.6073  0.0759
    7CHL1  H12A  476   3.878   1.816   9.848  0.7149 -1.7741  1.8368
    7CHL1  H12B  477   3.985   1.918   9.935 -0.4056 -0.2789  2.1376
    7CHL1   C11  478   3.807   1.899  10.049 -0.6233 -0.3938  1.7108
    7CHL1  H11A  479   3.707   1.851  10.046  0.2213 -2.2532 -0.8953
    7CHL1  H11B  480   3.860   1.822  10.110 -1.4966 -1.5789  1.0203
    7CHL1    C9  481   3.813   2.028  10.128  0.8678 -0.2102 -0.4907
    7CHL1    H9  482   3.923   2.042  10.136  0.7340  1.0979 -0.5770
    7CHL1   C10  483   3.744   2.036  10.267  0.6365  0.3059 -0.7035
    7CHL1   C19  484   3.589   2.026  10.257 -0.2165 -0.8030  0.1829
    7CHL1  H19A  485   3.541   2.108  10.198  0.8144 -0.0357  0.3730
    7CHL1  H19B  486   3.554   1.927  10.222 -0.3472 -0.6325 -0.1810
    7CHL1  H19C  487   3.540   2.021  10.357 -1.7725  0.1209 -0.4939
    7CHL1    C1  488   3.794   1.915  10.360  0.3120 -0.2522 -0.1638
    7CHL1   H1A  489   3.764   1.819  10.313  0.6902 -1.0301  1.1253
    7CHL1   H1B  490   3.905   1.916  10.354  0.5022  0.9177  2.2970
    7CHL1    C2  491   3.757   1.919  10.509  0.3847  0.4156 -0.0444
    7CHL1   H2A  492   3.817   1.839  10.558  0.3255  0.7016  0.5033
    7CHL1   H2B  493   3.647   1.909  10.516  0.2954  1.7479  0.8825
    7CHL1   C20  494   3.852   1.979   9.566 -0.1335  0.0442 -0.2823
    7CHL1   H20  495   3.742   1.989   9.556 -0.2446 -1.5423 -0.9405
    7CHL1   C21  496   3.900   1.837   9.583  0.4534  0.4294  0.0763
    7CHL1  H21A  497   3.891   1.777   9.489  1.9625 -1.6902  1.1949
    7CHL1  H21B  498   3.836   1.778   9.652  0.5204 -1.5821 -1.4848
    7CHL1  H21C  499   4.006   1.825   9.612 -0.0697 -2.0264  1.2549
    7CHL1   C22  500   3.905   2.031   9.433 -0.2267 -0.5233  0.2184
    7CHL1  H22A  501   3.918   2.141   9.428  2.7870 -0.8296 -0.3623
    7CHL1  H22B  502   3.999   1.977   9.408  0.1770  0.8202 -1.3142
    7CHL1   C23  503   3.812   1.994   9.313 -0.5296 -0.2309  0.2410
    7CHL1  H23A  504   3.800   1.883   9.315  2.3429 -0.6524 -0.7812
    7CHL1  H23B  505   3.715   2.045   9.329 -0.0905  0.0287  2.3064
    7CHL1   C24  506   3.874   2.011   9.172  0.2845  0.4617  0.2103
    7CHL1  H24A  507   3.867   2.120   9.151  0.2884  0.5619  0.7221
    7CHL1  H24B  508   3.983   1.988   9.162  0.2325  0.7927 -1.5519
    7CHL1   C25  509   3.793   1.948   9.057 -0.8610  0.3912  0.0193
    7CHL1   H25  510   3.684   1.963   9.070 -1.2168  0.1053 -2.2469
    7CHL1   C26  511   3.821   2.024   8.927  0.4031  0.0254 -0.0495
    7CHL1  H26A  512   3.789   2.129   8.947 -1.9836 -0.7019  0.2704
    7CHL1  H26B  513   3.929   2.007   8.905  0.2013 -0.9146 -0.3279
    7CHL1  H26C  514   3.767   1.976   8.843  0.1343 -2.0112  1.2187
    7CHL1   C27  515   3.831   1.802   9.032 -1.0152  0.5455 -0.3884
    7CHL1  H27A  516   3.941   1.793   9.042 -1.0464 -2.7426 -1.8107
    7CHL1  H27B  517   3.790   1.744   9.118  1.2204  0.9992  1.0776
    7CHL1  H27C  518   3.805   1.757   8.934 -0.2632 -0.2081 -0.2578
    8CHL1    C3  519   5.564   4.879  10.630  0.2223 -0.4176  0.0846
    8CHL1    H3  520   5.472   4.915  10.680  1.4575  0.1994  2.0437
    8CHL1    O3  521   5.613   4.969  10.535  0.2981  0.1447 -0.1821
    8CHL1   H3'  522   5.604   5.057  10.573  2.8305  0.0805  0.7297
    8CHL1    C4  523   5.673   4.849  10.736 -0.3327  0.0584  0.5318
    8CHL1   H4A  524   5.758   4.811  10.676  0.8306  0.5311  1.8070
    8CHL1   H4B  525   5.711   4.945  10.778 -1.4349  0.7186  0.0418
    8CHL1    C5  526   5.628   4.752  10.840 -0.5430 -0.3078 -0.7040
    8CHL1    C6  527   5.625   4.788  10.973 -0.1688  0.0065  0.1063
    8CHL1    H6  528   5.651   4.892  10.996 -2.2352  0.7011 -0.5416
    8CHL1    C7  529   5.579   4.701  11.085  0.6140  0.3273 -0.2201
    8CHL1   H7A  530   5.638   4.708  11.179 -0.4906 -4.2018  1.0338
    8CHL1   H7B  531   5.478   4.738  11.110  0.7290  0.2374  0.3861
    8CHL1    C8  532   5.571   4.555  11.035  0.7293 -0.0283  0.2348
    8CHL1    H8  533   5.670   4.506  11.050  0.3483 -1.2623 -1.0371
    8CHL1   C14  534   5.475   4.477  11.127 -0.1156 -1.2158 -0.5955
    8CHL1   H14  535   5.372   4.510  11.099  0.0379  0.2776  0.5051
    8CHL1   C15  536   5.490   4.495  11.283  0.0140 -0.3735 -0.2001
    8CHL1  H15A  537   5.598   4.488  11.309 -0.3873 -2.3748  1.2033
    8CHL1  H15B  538   5.442   4.586  11.325 -0.7911 -0.9276  0.1000
    8CHL1   C16  539   5.428   4.367  11.338 -1.1287  0.1619 -0.4776
    8CHL1  H16A  540   5.498   4.313  11.405 -1.2064  2.4710  1.5904
    8CHL1  H16B  541   5.337   4.402  11.392 -2.6040  0.1826 -2.8198
    8CHL1   C17  542   5.387   4.271  11.224 -0.1426 -0.2997 -0.7587
    8CHL1   H17  543   5.284   4.305  11.199 -0.1524  0.4278  0.2288
    8CHL1   C13  544   5.473   4.319  11.101  0.5438 -0.0398 -0.2671
    8CHL1   C18  545   5.615   4.265  11.125 -0.4786  0.0390 -0.2382
    8CHL1  H18A  546   5.621   4.155  11.108  2.1874 -0.3267  2.3078
    8CHL1  H18B  547   5.695   4.314  11.065 -1.1718  0.6605 -0.6793
    8CHL1  H18C  548   5.639   4.279  11.232 -1.2436 -3.3605  0.5003
    8CHL1   C12  549   5.416   4.300  10.956 -0.3837  0.1295 -0.6717
    8CHL1  H12A  550   5.410   4.194  10.923 -3.1724 -0.2497  0.7764
    8CHL1  H12B  551   5.315   4.346  10.957  0.1948  1.4227  0.7359
    8CHL1   C11  552   5.503   4.379  10.859  0.2368 -0.8409 -0.5030
    8CHL1  H11A  553   5.604   4.332  10.849  1.3500  0.6572  2.5536
    8CHL1  H11B  554   5.446   4.394  10.765  0.3154 -0.5715 -0.5091
    8CHL1    C9  555   5.517   4.530  10.893 -0.3830 -0.4309 -0.1648
    8CHL1    H9  556   5.412   4.565  10.890 -0.0201  0.6181 -1.0455
    8CHL1   C10  557   5.588   4.617  10.785 -0.1724  0.0449  0.2315
    8CHL1   C19  558   5.713   4.552  10.735  0.0817  0.3878 -0.0975
    8CHL1  H19A  559   5.799   4.544  10.805  0.8379 -0.0124 -1.0509
    8CHL1  H19B  560   5.711   4.449  10.694  1.1882 -0.7826  2.5639
    8CHL1  H19C  561   5.760   4.602  10.648  2.5125  0.1648  0.9960
    8CHL1    C1  562   5.480   4.652  10.663 -0.0913 -0.7869 -1.1832
    8CHL1   H1A  563   5.459   4.556  10.613 -0.8329  0.9045 -4.3962
    8CHL1   H1B  564   5.381   4.682  10.705 -0.1724 -1.5673 -0.7993
    8CHL1    C2  565   5.523   4.749  10.555 -0.3595 -0.1820 -0.5133
    8CHL1   H2A  566   5.444   4.768  10.479 -0.7513 -2.0818 -0.6168
    8CHL1   H2B  567   5.612   4.710  10.503  0.2446 -0.4880  0.7100
    8CHL1   C20  568   5.401   4.129  11.268 -0.1038  0.4606  0.5960
    8CHL1   H20  569   5.506   4.096  11.288 -0.8039 -1.5160  1.2901
    8CHL1   C21  570   5.368   4.029  11.150 -0.0726  0.5757  0.5206
    8CHL1  H21A  571   5.412   3.933  11.186  0.8230  0.6763 -0.2604
    8CHL1  H21B  572   5.419   4.055  11.055  1.9126 -0.6831  1.1764
    8CHL1  H21C  573   5.261   4.011  11.130 -0.4754  0.5841  2.4298
    8CHL1   C22  574   5.312   4.094  11.384 -0.4774  0.0641 -0.1520
    8CHL1  H22A  575   5.322   3.984  11.390 -0.2997 -0.1634 -3.1476
    8CHL1  H22B  576   5.360   4.143  11.471 -1.3775  1.2411 -0.2882
    8CHL1   C23  577   5.168   4.144  11.373  0.4185  0.8512 -0.2290
    8CHL1  H23A  578   5.162   4.251  11.399 -2.4999  0.6362  0.3440
    8CHL1  H23B  579   5.157   4.135  11.262  1.1735 -2.6387 -0.1460
    8CHL1   C24  580   5.054   4.063  11.441 -0.1289  0.5518  0.4282
    8CHL1  H24A  581   5.042   3.970  11.380 -2.1394  1.4816 -0.6824
    8CHL1  H24B  582   5.082   4.026  11.542 -1.6917  1.3055  1.1620
    8CHL1   C25  583   4.918   4.130  11.447  0.1080  0.4015  0.1127
    8CHL1   H25  584   4.912   4.203  11.364 -0.0771 -0.1289 -0.3527
    8CHL1   C26  585   4.795   4.045  11.412 -0.0783  0.3336 -0.1065
    8CHL1  H26A  586   4.766   3.982  11.499  0.5563 -0.2696 -0.3263
    8CHL1  H26B  587   4.706   4.112  11.406  0.3115  0.9024  0.3725
    8CHL1  H26C  588   4.791   3.994  11.313  0.1911 -0.9276  0.5208
    8CHL1   C27  589   4.893   4.205  11.578 -0.1875  0.1568 -0.1995
    8CHL1  H27A  590   4.785   4.229  11.585 -0.7984 -0.8497 -3.8212
    8CHL1  H27B  591   4.915   4.130  11.657  1.7999  1.1937  0.3054
    8CHL1  H27C  592   4.957   4.290  11.609 -2.5518  1.5988  0.9088
    9CHL1    C3  593   6.701   1.037  10.318  0.0328  0.4680 -0.5250
    9CHL1    H3  594   6.671   0.946  10.261  0.4981 -0.8460  1.2297
    9CHL1    O3  595   6.739   0.983  10.446  0.7472 -0.3766 -0.2191
    9CHL1   H3'  596   6.709   1.050  10.507 -0.8591 -0.1690 -1.1771
    9CHL1    C4  597   6.819   1.097  10.258 -0.3647 -0.2659 -0.3033
    9CHL1   H4A  598   6.850   1.181  10.324  0.0735 -0.1798 -0.6144
    9CHL1   H4B  599   6.900   1.021  10.262  0.0403  0.2056  0.9716
    9CHL1    C5  600   6.791   1.143  10.121  0.2636  0.0387 -0.5236
    9CHL1    C6  601   6.857   1.096  10.016 -0.4131  0.3557  1.2675
    9CHL1    H6  602   6.944   1.031  10.030 -0.3897  0.2082  0.4945
    9CHL1    C7  603   6.839   1.157   9.875 -0.0596  0.2102 -0.5117
    9CHL1   H7A  604   6.944   1.181   9.848 -0.3297  1.7719 -0.2209
    9CHL1   H7B  605   6.796   1.083   9.803 -0.0610  2.3160 -2.7905
    9CHL1    C8  606   6.754   1.290   9.868 -0.8565  0.2152 -0.1737
    9CHL1    H8  607   6.822   1.371   9.902 -0.4732 -0.3112  0.3317
    9CHL1   C14  608   6.709   1.323   9.725 -0.4242 -0.4637 -0.8809
    9CHL1   H14  609   6.637   1.243   9.699 -0.6212 -0.2667 -0.9433
    9CHL1   C15  610   6.813   1.326   9.625 -0.3009 -0.0436  0.2327
    9CHL1  H15A  611   6.904   1.380   9.657  0.6034 -2.4604  2.0162
    9CHL1  H15B  612   6.860   1.229   9.597 -0.0943 -1.0164  3.4997
    9CHL1   C16  613   6.766   1.411   9.503  0.4224 -0.2636 -0.5139
    9CHL1  H16A  614   6.843   1.487   9.477 -1.5960  1.9105 -0.4737
    9CHL1  H16B  615   6.743   1.345   9.417 -0.7537 -1.4468  0.6689
    9CHL1   C17  616   6.633   1.472   9.561 -0.2634  0.3781  0.0636
    9CHL1   H17  617   6.550   1.402   9.536 -0.1110  0.2908 -0.1961
    9CHL1   C13  618   6.640   1.462   9.719  0.4517 -0.2632  0.1482
    9CHL1   C18  619   6.741   1.581   9.765  0.5029 -0.0247  0.1646
    9CHL1  H18A  620   6.791   1.551   9.859  1.5680 -1.0436 -0.7012
    9CHL1  H18B  621   6.821   1.599   9.691 -0.7237 -0.7459 -1.4100
    9CHL1  H18C  622   6.677   1.671   9.775 -2.8455 -2.0078 -1.5674
    9CHL1   C12  623   6.509   1.450   9.801 -0.1787 -0.0287  0.5359
    9CHL1  H12A  624   6.467   1.552   9.814  2.1252  1.0168  0.3323
    9CHL1  H12B  625   6.435   1.383   9.753  0.8607 -0.0441 -1.1439
    9CHL1   C11  626   6.540   1.410   9.950 -0.0472  0.5110  0.4621
    9CHL1  H11A  627   6.593   1.494  10.001 -0.6224  0.6195  0.8888
    9CHL1  H11B  628   6.440   1.390   9.993 -1.2306  0.8195 -1.9705
    9CHL1    C9  629   6.637   1.286   9.968 -0.1123 -0.6079  0.3730
    9CHL1    H9  630   6.568   1.208   9.929  0.2788 -0.1165 -1.3753
    9CHL1   C10  631   6.678   1.251  10.114  0.5072  0.0067 -0.1898
    9CHL1   C19  632   6.727   1.378  10.182  0.3403 -0.0149  0.4907
    9CHL1  H19A  633   6.793   1.356  10.269  1.0289 -0.1846 -0.0660
    9CHL1  H19B  634   6.802   1.421  10.113  0.5261 -2.4325 -0.9546
    9CHL1  H19C  635   6.648   1.453  10.201  0.9444  0.6851  0.2649
    9CHL1    C1  636   6.551   1.187  10.193 -0.3543 -0.4001 -0.3741
    9CHL1   H1A  637   6.472   1.266  10.194 -2.2810 -2.2331  1.6033
    9CHL1   H1B  638   6.500   1.108  10.134 -1.8386 -1.0768  1.7043
    9CHL1    C2  639   6.581   1.132  10.329  0.5553 -0.7910  0.0476
    9CHL1   H2A  640   6.490   1.081  10.366  0.5477 -1.5992 -1.0193
    9CHL1   H2B  641   6.611   1.216  10.395  0.2131 -1.4789  1.1098
    9CHL1   C20  642   6.607   1.611   9.495  0.4668  0.6759  0.4509
    9CHL1   H20  643   6.686   1.680   9.532  0.7600  0.0329  1.0435
    9CHL1   C21  644   6.465   1.666   9.524  0.1853 -0.6550  0.1220
    9CHL1  H21A  645   6.466   1.773   9.491 -1.7565  0.1962  2.5885
    9CHL1  H21B  646   6.441   1.669   9.632  1.9397 -1.3914  0.5723
    9CHL1  H21C  647   6.391   1.604   9.470 -1.5890  1.4961 -0.0323
    9CHL1   C22  648   6.628   1.611   9.334 -0.4835  0.5637 -0.0193
    9CHL1  H22A  649   6.718   1.551   9.305  0.2095  1.4587  0.2371
    9CHL1  H22B  650   6.543   1.556   9.289  0.2425 -1.9892  1.5034
    9CHL1   C23  651   6.657   1.750   9.270 -0.4692  0.0270  0.6658
    9CHL1  H23A  652   6.604   1.830   9.327 -1.4449  0.4803 -0.8233
    9CHL1  H23B  653   6.761   1.781   9.296 -0.6065 -0.4921  1.8709
    9CHL1   C24  654   6.628   1.775   9.127 -0.1460 -0.3895 -0.3023
    9CHL1  H24A  655   6.531   1.725   9.103 -0.2198 -0.1737 -0.4540
    9CHL1  H24B  656   6.600   1.882   9.115  1.2418  0.4748  3.1085
    9CHL1   C25  657   6.730   1.725   9.024  0.0726 -0.4692 -0.6781
    9CHL1   H25  658   6.832   1.732   9.068 -0.0382  0.8649 -0.6010
    9CHL1   C26  659   6.709   1.574   8.998 -0.4410 -1.2339 -0.0591
    9CHL1  H26A  660   6.735   1.514   9.088 -2.3984 -0.6032  1.0006
    9CHL1  H26B  661   6.602   1.546   8.982 -0.6562 -2.2153  2.5438
    9CHL1  H26C  662   6.777   1.542   8.917  1.6048  0.9415  0.7013
    9CHL1   C27  663   6.723   1.817   8.900 -0.6361  0.3343 -0.0980
    9CHL1  H27A  664   6.778   1.911   8.924 -1.1112  0.9980 -1.5096
    9CHL1  H27B  665   6.761   1.771   8.806 -0.6031 -1.5102  0.7637
    9CHL1  H27C  666   6.616   1.843   8.892 -0.4163  0.8291 -1.7095
   10CHL1    C3  667   0.038   4.509  10.212 -0.4795 -0.0448 -0.3491
   10CHL1    H3  668   0.007   4.407  10.182 -2.0493 -0.3467  1.9865
   10CHL1    O3  669   0.095   4.487  10.339 -0.4125  0.2214 -0.1545
   10CHL1   H3'  670   0.156   4.415  10.321  0.7518  0.8244  1.1610
   10CHL1    C4  671   0.145   4.568  10.114 -0.2694  0.4592 -0.2669
   10CHL1   H4A  672   0.171   4.667  10.156  0.8097  0.1431 -0.1380
   10CHL1   H4B  673   0.241   4.512  10.103 -1.0188 -0.8232 -0.3952
   10CHL1    C5  674   0.082   4.590   9.980  0.1456 -0.7039  0.2226
   10CHL1    C6  675   0.128   4.541   9.870 -0.5749  0.7904  0.3913
   10CHL1    H6  676   0.219   4.479   9.878 -1.0781  0.1266  1.0853
   10CHL1    C7  677   0.079   4.572   9.734  0.0293 -0.5350  0.2760
   10CHL1   H7A  678   0.162   4.591   9.662  1.1164 -3.2604  0.6985
   10CHL1   H7B  679   0.026   4.489   9.683  0.7323 -0.0988 -1.2369
   10CHL1    C8  680  -0.020   4.694   9.731 -0.4382 -0.0823  0.5140
   10CHL1    H8  681   0.040   4.788   9.735  1.0330 -1.0071  0.8304
   10CHL1   C14  682  -0.091   4.693   9.591  0.5830 -0.5545  0.3398
   10CHL1   H14  683  -0.152   4.600   9.592 -0.2597 -0.0078  0.1417
   10CHL1   C15  684  -0.009   4.706   9.468  0.1750 -0.2007 -0.7396
   10CHL1  H15A  685   0.069   4.779   9.497  0.2227 -0.6235  0.2713
   10CHL1  H15B  686   0.039   4.611   9.438  1.4839  1.1645 -3.2493
   10CHL1   C16  687  -0.105   4.755   9.359  0.4862  0.0609 -0.9178
   10CHL1  H16A  688  -0.061   4.849   9.318 -1.8133  1.1486 -1.0425
   10CHL1  H16B  689  -0.111   4.687   9.272 -0.3067  0.4352 -1.1620
   10CHL1   C17  690  -0.237   4.792   9.436  0.3339 -0.0281 -0.0159
   10CHL1   H17  691  -0.294   4.697   9.435 -0.4442  0.4255  0.3988
   10CHL1   C13  692  -0.197   4.804   9.585  0.4040  0.1967  0.9527
   10CHL1   C18  693  -0.122   4.940   9.601  0.0145 -0.5887 -0.6152
   10CHL1  H18A  694  -0.054   4.970   9.519 -0.1846 -0.5154 -0.7555
   10CHL1  H18B  695  -0.206   5.012   9.586  1.3634  1.1882  0.0627
   10CHL1  H18C  696  -0.078   4.953   9.702 -0.2739 -1.2233 -0.4065
   10CHL1   C12  697  -0.299   4.773   9.694  0.6653 -0.2139 -0.2488
   10CHL1  H12A  698  -0.387   4.840   9.694  0.7597 -0.0884 -0.6447
   10CHL1  H12B  699  -0.351   4.675   9.685 -2.9396  1.4087  1.1033
   10CHL1   C11  700  -0.241   4.774   9.841 -0.5778 -0.2059  0.2717
   10CHL1  H11A  701  -0.218   4.881   9.858  0.3829 -0.1555 -1.1327
   10CHL1  H11B  702  -0.311   4.735   9.918  1.5092 -1.9206  1.4189
   10CHL1    C9  703  -0.110   4.686   9.847  0.0299  0.1143 -0.5320
   10CHL1    H9  704  -0.144   4.580   9.838  1.5624 -0.6404  1.6458
   10CHL1   C10  705  -0.045   4.685   9.987  0.0224  0.9804  0.3706
   10CHL1   C19  706   0.000   4.827  10.015 -0.2351  0.9533 -0.8351
   10CHL1  H19A  707   0.083   4.846   9.943 -0.5612  1.2165 -1.1445
   10CHL1  H19B  708  -0.074   4.909  10.003  2.7532  3.6075 -2.6856
   10CHL1  H19C  709   0.039   4.831  10.119 -2.2162 -2.6680  0.2256
   10CHL1    C1  710  -0.143   4.636  10.090  0.2550  0.8402 -0.4968
   10CHL1   H1A  711  -0.228   4.705  10.110  0.9032  1.6228 -0.3752
   10CHL1   H1B  712  -0.204   4.551  10.052  2.2532 -0.8723 -0.0409
   10CHL1    C2  713  -0.084   4.592  10.232  0.3342 -0.3184  0.6626
   10CHL1   H2A  714  -0.161   4.542  10.296 -1.2878  0.3057 -0.7221
   10CHL1   H2B  715  -0.063   4.693  10.273 -2.0546  0.5796 -0.1171
   10CHL1   C20  716  -0.327   4.895   9.369  0.3302 -0.0201 -0.0541
   10CHL1   H20  717  -0.289   4.998   9.386  0.4854  0.0215 -0.6264
   10CHL1   C21  718  -0.466   4.903   9.439 -0.0710  0.2166  0.0441
   10CHL1  H21A  719  -0.542   4.965   9.388 -2.2679 -1.9325  0.5188
   10CHL1  H21B  720  -0.462   4.944   9.542  0.2244 -1.4539  0.7221
   10CHL1  H21C  721  -0.520   4.806   9.437 -2.1320  1.2382  1.5645
   10CHL1   C22  722  -0.339   4.893   9.216  0.0651 -0.0980  0.2553
   10CHL1  H22A  723  -0.411   4.974   9.192 -0.8555 -0.4206  1.8205
   10CHL1  H22B  724  -0.243   4.915   9.164  0.9246  2.7759  2.7558
   10CHL1   C23  725  -0.393   4.762   9.154  0.1680  0.0590 -0.3256
   10CHL1  H23A  726  -0.311   4.687   9.161 -0.0291 -0.3221 -1.7207
   10CHL1  H23B  727  -0.486   4.731   9.207  0.0017  1.6152  0.3145
   10CHL1   C24  728  -0.428   4.782   9.002  0.2314  0.7577 -0.4310
   10CHL1  H24A  729  -0.494   4.700   8.967 -0.2567  1.2027 -0.5821
   10CHL1  H24B  730  -0.493   4.873   9.011 -0.9580 -0.1105  0.0500
   10CHL1   C25  731  -0.313   4.831   8.912  0.0685  0.0877 -0.5487
   10CHL1   H25  732  -0.268   4.918   8.964 -0.7761  0.9160 -1.1774
   10CHL1   C26  733  -0.201   4.732   8.887  0.3244 -0.1582 -0.5434
   10CHL1  H26A  734  -0.147   4.723   8.984 -0.6713  1.1223  0.1663
   10CHL1  H26B  735  -0.241   4.631   8.864  0.1885  0.1400 -1.6410
   10CHL1  H26C  736  -0.133   4.789   8.821 -1.0347  2.7627  0.3975
   10CHL1   C27  737  -0.363   4.881   8.773  0.1585 -0.3717 -0.2533
   10CHL1  H27A  738  -0.276   4.925   8.719 -0.2254 -0.3787 -0.8848
   10CHL1  H27B  739  -0.410   4.799   8.714 -4.7246  1.7179  0.2802
   10CHL1  H27C  740  -0.449   4.950   8.785 -0.1364 -0.2778 -2.5101
   11CHL1    C3  741   1.689   0.536  10.257 -0.1523 -0.3285  0.7116
   11CHL1    H3  742   1.604   0.602  10.229 -0.4571 -1.0294 -0.0786
   11CHL1    O3  743   1.722   0.573  10.389  0.3535 -0.1249  0.1002
   11CHL1   H3'  744   1.788   0.514  10.427  0.4320  1.7102  3.1595
   11CHL1    C4  745   1.634   0.399  10.261 -0.0959  0.5415  1.1965
   11CHL1   H4A  746   1.700   0.334  10.322 -1.2518 -0.8247  1.0452
   11CHL1   H4B  747   1.537   0.403  10.315 -0.5902  1.6173  0.2626
   11CHL1    C5  748   1.612   0.346  10.117 -0.0436 -0.4984 -0.1050
   11CHL1    C6  749   1.488   0.304  10.086  0.6254  0.0190  0.0179
   11CHL1    H6  750   1.402   0.298  10.154  0.8429  0.6319  0.3547
   11CHL1    C7  751   1.456   0.252   9.949 -0.8502 -0.2706 -0.3570
   11CHL1   H7A  752   1.394   0.162   9.967  1.1243 -1.6174 -0.0796
   11CHL1   H7B  753   1.398   0.323   9.886  0.6410  0.0104 -1.4638
   11CHL1    C8  754   1.583   0.210   9.870 -0.7472  0.1357 -0.3729
   11CHL1    H8  755   1.630   0.114   9.898 -1.6706 -0.2982 -0.2694
   11CHL1   C14  756   1.540   0.188   9.722 -0.0068 -0.1746 -0.3650
   11CHL1   H14  757   1.491   0.283   9.692  0.2253  0.5379  1.3741
   11CHL1   C15  758   1.434   0.077   9.693  0.0043 -0.6252  0.5330
   11CHL1  H15A  759   1.457  -0.012   9.756 -2.0067 -1.1753  0.5548
   11CHL1  H15B  760   1.328   0.108   9.701 -0.5297 -1.9839 -0.8724
   11CHL1   C16  761   1.448   0.045   9.539  0.3399  0.3492  0.0388
   11CHL1  H16A  762   1.487  -0.059   9.539  0.6783  0.4552  1.2073
   11CHL1  H16B  763   1.355   0.053   9.479  0.7227  1.0609 -0.4873
   11CHL1   C17  764   1.571   0.134   9.489 -0.1824 -0.0746  0.1256
   11CHL1   H17  765   1.521   0.226   9.450  1.1969 -0.1409 -1.9868
   11CHL1   C13  766   1.653   0.163   9.619 -0.1946  0.2468 -0.0020
   11CHL1   C18  767   1.741   0.046   9.657 -0.3606  0.1294  0.4980
   11CHL1  H18A  768   1.768   0.042   9.765  1.4054  2.2689  0.2096
   11CHL1  H18B  769   1.697  -0.052   9.628 -0.2295  0.1808  0.1177
   11CHL1  H18C  770   1.829   0.043   9.590 -1.5114 -0.6542 -1.0647
   11CHL1   C12  771   1.742   0.296   9.613  0.0985  0.4057 -0.0303
   11CHL1  H12A  772   1.828   0.293   9.543  0.9477  0.7037  0.9817
   11CHL1  H12B  773   1.669   0.374   9.582  0.3147  0.7467  0.3017
   11CHL1   C11  774   1.795   0.318   9.763 -0.2512 -0.5049  0.1221
   11CHL1  H11A  775   1.873   0.238   9.769 -1.2414 -1.4229  1.3751
   11CHL1  H11B  776   1.865   0.404   9.763  0.0488 -0.7427 -0.3292
   11CHL1    C9  777   1.682   0.325   9.867 -0.1200 -0.2819 -0.7862
   11CHL1    H9  778   1.626   0.413   9.827  0.1403  0.0337 -0.4675
   11CHL1   C10  779   1.730   0.360  10.014 -0.5052  0.0857  0.0870
   11CHL1   C19  780   1.847   0.264  10.052 -0.0016 -0.3558  0.7089
   11CHL1  H19A  781   1.813   0.164  10.018  1.5793 -0.3850 -0.9222
   11CHL1  H19B  782   1.938   0.294   9.996  2.2555 -2.3682  3.0540
   11CHL1  H19C  783   1.880   0.277  10.158  2.3824  0.4024 -0.0651
   11CHL1    C1  784   1.786   0.509  10.025 -0.1871  0.6480 -0.4293
   11CHL1   H1A  785   1.872   0.522   9.956 -0.4641 -1.2062 -1.1916
   11CHL1   H1B  786   1.705   0.574   9.986 -0.8387  0.5925  0.8000
   11CHL1    C2  787   1.813   0.562  10.169  0.3277 -0.0060 -0.0057
   11CHL1   H2A  788   1.834   0.671  10.163  1.0059 -0.1644 -0.6362
   11CHL1   H2B  789   1.886   0.492  10.215 -0.7715 -0.5099  1.0247
   11CHL1   C20  790   1.642   0.065   9.365 -0.2194  0.3724  0.3256
   11CHL1   H20  791   1.650  -0.044   9.382 -0.5837  0.4404  0.9838
   11CHL1   C21  792   1.767   0.142   9.333 -0.1799 -0.5540 -0.2109
   11CHL1  H21A  793   1.843   0.135   9.415 -1.1777  1.6830  0.9986
   11CHL1  H21B  794   1.745   0.251   9.334  0.6830 -0.2857 -3.0820
   11CHL1  H21C  795   1.820   0.111   9.241 -0.8504 -0.0233 -0.7854
   11CHL1   C22  796   1.551   0.083   9.235 -0.2878  0.3193  0.1826
   11CHL1  H22A  797   1.449   0.061   9.274 -0.7075 -0.2478 -1.1520
   11CHL1  H22B  798   1.557   0.184   9.189  1.7639 -0.1610 -0.7256
   11CHL1   C23  799   1.581  -0.014   9.114  0.3067  0.3118 -0.0211
   11CHL1  H23A  800   1.684   0.002   9.078  0.3329  1.7952  0.6298
   11CHL1  H23B  801   1.574  -0.118   9.155  0.1637 -0.3633 -1.6942
   11CHL1   C24  802   1.475   0.009   9.008  0.5539  0.5501  0.7990
   11CHL1  H24A  803   1.376  -0.008   9.057 -0.6501  3.2516 -0.4938
   11CHL1  H24B  804   1.502   0.113   8.979 -1.3286  0.4380 -1.6835
   11CHL1   C25  805   1.484  -0.086   8.877  0.6510  0.7439 -0.6954
   11CHL1   H25  806   1.467  -0.188   8.918  0.4722  0.7504 -0.7491
   11CHL1   C26  807   1.372  -0.072   8.774  0.2166  0.0427 -0.1022
   11CHL1  H26A  808   1.279  -0.108   8.823  1.7699 -2.1927  1.3953
   11CHL1  H26B  809   1.369   0.031   8.732  1.0260  0.1802  0.1774
   11CHL1  H26C  810   1.375  -0.141   8.687 -1.6838 -0.0934 -0.1094
   11CHL1   C27  811   1.621  -0.091   8.805  0.2464 -0.3053  0.7982
   11CHL1  H27A  812   1.713  -0.082   8.866  0.8375  0.3843 -0.1569
   11CHL1  H27B  813   1.621  -0.182   8.741 -0.4434  1.2743 -1.5919
   11CHL1  H27C  814   1.610  -0.010   8.729  1.7178 -0.6296  0.2205
   12CHL1    C3  815   5.780   4.226  10.418 -0.1287 -0.6618  0.0170
   12CHL1    H3  816   5.735   4.126  10.399 -1.6889  0.1131 -0.5347
   12CHL1    O3  817   5.861   4.219  10.534 -0.2911  0.2745  0.2114
   12CHL1   H3'  818   5.903   4.303  10.553  0.7879 -0.0685 -0.5367
   12CHL1    C4  819   5.868   4.266  10.299  0.0680  0.3337 -0.7307
   12CHL1   H4A  820   5.936   4.349  10.331 -2.1106  2.0898 -0.4470
   12CHL1   H4B  821   5.942   4.185  10.285 -1.8131 -1.8456  1.1140
   12CHL1    C5  822   5.799   4.297  10.171  0.4343  0.1953  0.6122
   12CHL1    C6  823   5.832   4.244  10.048  0.2649 -0.8044 -0.4856
   12CHL1    H6  824   5.920   4.178  10.043  2.3827  1.8557 -0.8703
   12CHL1    C7  825   5.761   4.287   9.921  0.2721  0.2772  0.0958
   12CHL1   H7A  826   5.833   4.315   9.841 -0.6862  3.2210  0.1234
   12CHL1   H7B  827   5.705   4.203   9.875  1.4723  0.2193 -1.3489
   12CHL1    C8  828   5.660   4.402   9.935 -0.4080  0.1216  0.2960
   12CHL1    H8  829   5.713   4.499   9.928 -1.2536  0.5060 -1.4574
   12CHL1   C14  830   5.554   4.385   9.826  0.6489  0.2783 -0.1322
   12CHL1   H14  831   5.496   4.293   9.851 -0.1176 -0.2307 -3.3642
   12CHL1   C15  832   5.605   4.348   9.686 -0.2087 -0.1207  0.3932
   12CHL1  H15A  833   5.685   4.417   9.654  0.0058 -0.0812  0.9915
   12CHL1  H15B  834   5.649   4.246   9.677  2.5083  0.8235  1.7498
   12CHL1   C16  835   5.484   4.378   9.598 -0.2022 -0.2368  0.4226
   12CHL1  H16A  836   5.514   4.441   9.512 -0.5007 -1.4724 -0.6262
   12CHL1  H16B  837   5.451   4.280   9.556 -0.0240  0.4781 -1.5030
   12CHL1   C17  838   5.373   4.450   9.683 -0.3978  0.8211 -0.9614
   12CHL1   H17  839   5.306   4.368   9.714  1.1828 -0.4430 -0.7503
   12CHL1   C13  840   5.450   4.490   9.808  0.0253  0.2617 -0.4756
   12CHL1   C18  841   5.521   4.629   9.783  0.3087  1.0553 -0.1078
   12CHL1  H18A  842   5.571   4.613   9.685  1.0290  1.9192  0.1003
   12CHL1  H18B  843   5.449   4.713   9.774 -0.7020  0.6262  2.7844
   12CHL1  H18C  844   5.595   4.660   9.861 -0.9515  2.6515  0.5155
   12CHL1   C12  845   5.372   4.485   9.936  0.1592  0.1943  0.7455
   12CHL1  H12A  846   5.291   4.560   9.934 -0.0364  0.0047  1.3339
   12CHL1  H12B  847   5.312   4.391   9.935  0.1683  0.1509  2.4108
   12CHL1   C11  848   5.462   4.489  10.065  0.0039  0.3127  0.0970
   12CHL1  H11A  849   5.509   4.589  10.076  2.2571 -0.6487 -0.3267
   12CHL1  H11B  850   5.393   4.471  10.151 -1.4188 -0.7759 -1.2178
   12CHL1    C9  851   5.589   4.388  10.065 -0.3708 -0.3042 -0.8481
   12CHL1    H9  852   5.547   4.285  10.063  0.6174 -0.7140 -0.9784
   12CHL1   C10  853   5.679   4.388  10.187 -0.4798  0.1241  0.4771
   12CHL1   C19  854   5.739   4.533  10.192 -0.6352 -0.0191 -0.3895
   12CHL1  H19A  855   5.803   4.529  10.283 -2.5041 -0.4377  0.9715
   12CHL1  H19B  856   5.806   4.564  10.109 -1.4556 -0.2896 -1.1752
   12CHL1  H19C  857   5.662   4.612  10.208 -0.3202  0.6372 -1.9348
   12CHL1    C1  858   5.596   4.351  10.310  0.1405  0.4596 -0.8287
   12CHL1   H1A  859   5.520   4.432  10.319 -0.5407 -0.0736 -1.6020
   12CHL1   H1B  860   5.546   4.254  10.287 -1.1946  1.0474 -0.5065
   12CHL1    C2  861   5.672   4.334  10.439 -0.4800 -0.3449 -0.3790
   12CHL1   H2A  862   5.606   4.314  10.526  1.5195  0.4203  1.3990
   12CHL1   H2B  863   5.702   4.431  10.485 -1.7148  0.2002 -0.6762
   12CHL1   C20  864   5.298   4.565   9.611  0.1159 -0.7244  0.4991
   12CHL1   H20  865   5.369   4.647   9.587 -2.6793  2.3752  2.0369
   12CHL1   C21  866   5.183   4.615   9.692  0.2636 -0.7942  0.1350
   12CHL1  H21A  867   5.115   4.674   9.627 -0.4885 -1.4451  0.3155
   12CHL1  H21B  868   5.216   4.676   9.778  0.0415  0.5613 -0.7096
   12CHL1  H21C  869   5.113   4.536   9.728 -0.7336  0.6080  1.3663
   12CHL1   C22  870   5.253   4.504   9.475 -0.0192  0.1534 -0.2064
   12CHL1  H22A  871   5.200   4.584   9.419 -0.1029 -0.1871 -0.6132
   12CHL1  H22B  872   5.340   4.462   9.419  0.3052 -0.0097  0.4037
   12CHL1   C23  873   5.157   4.380   9.476  0.0118  0.0092  0.4502
   12CHL1  H23A  874   5.210   4.287   9.506 -0.8382 -0.4297  0.6086
   12CHL1  H23B  875   5.081   4.394   9.556 -0.8306 -0.9096 -0.1726
   12CHL1   C24  876   5.089   4.359   9.341  0.1310 -1.0678  0.1088
   12CHL1  H24A  877   5.005   4.287   9.351 -1.7760  0.4899 -3.2247
   12CHL1  H24B  878   5.041   4.453   9.307 -0.9692 -1.8541 -0.5824
   12CHL1   C25  879   5.181   4.311   9.229  0.0273  0.2403  0.5449
   12CHL1   H25  880   5.261   4.388   9.217 -1.0340  2.1107  4.0713
   12CHL1   C26  881   5.250   4.183   9.247 -0.0095 -0.3122  0.2013
   12CHL1  H26A  882   5.307   4.185   9.342  0.1974  0.6654  0.0699
   12CHL1  H26B  883   5.176   4.101   9.253 -2.6422  1.8565 -0.4625
   12CHL1  H26C  884   5.316   4.163   9.159 -0.0077  1.6375 -0.3018
   12CHL1   C27  885   5.103   4.313   9.100 -0.4484  0.3318 -0.2818
   12CHL1  H27A  886   5.064   4.416   9.090  0.8723  1.0494  1.4897
   12CHL1  H27B  887   5.177   4.279   9.024 -1.3312 -1.8788 -0.2288
   12CHL1  H27C  888   5.018   4.241   9.106 -0.5182  0.4266 -0.1503
   13CHL1    C3  889   4.621   6.609  10.270 -0.4198  0.4017  0.0563
   13CHL1    H3  890   4.530   6.671  10.256 -0.7378 -0.1137 -0.2066
   13CHL1    O3  891   4.661   6.615  10.402  0.3295  0.4434  0.1897
   13CHL1   H3'  892   4.678   6.708  10.418 -0.6620  0.3747  1.8675
   13CHL1    C4  893   4.585   6.465  10.226  0.0307 -0.1348  0.4817
   13CHL1   H4A  894   4.665   6.391  10.249  0.9891  0.4746 -0.7288
   13CHL1   H4B  895   4.494   6.432  10.279 -0.6115  2.8452  1.4315
   13CHL1    C5  896   4.560   6.460  10.072  0.3743  0.5915  0.4268
   13CHL1    C6  897   4.436   6.423  10.032  0.1468 -0.3106  0.2230
   13CHL1    H6  898   4.360   6.390  10.104 -0.3667  0.6599  0.1344
   13CHL1    C7  899   4.407   6.421   9.881 -0.6330 -0.2557  0.3985
   13CHL1   H7A  900   4.345   6.332   9.858 -1.2956  1.0108 -3.3270
   13CHL1   H7B  901   4.342   6.502   9.842 -3.4392 -1.4380  2.3267
   13CHL1    C8  902   4.532   6.409   9.785  0.0408 -0.1642 -0.0521
   13CHL1    H8  903   4.580   6.310   9.802  0.2478  0.2933  2.3568
   13CHL1   C14  904   4.503   6.428   9.638  1.1643 -0.3978 -0.4150
   13CHL1   H14  905   4.446   6.524   9.642  0.6000 -0.6988 -1.1442
   13CHL1   C15  906   4.406   6.322   9.578  0.5543 -0.4686  0.1983
   13CHL1  H15A  907   4.450   6.221   9.597  0.0257 -0.6227  0.6591
   13CHL1  H15B  908   4.311   6.320   9.637  0.4887 -2.5782  0.1148
   13CHL1   C16  909   4.400   6.365   9.428  0.3702 -0.0703 -0.5770
   13CHL1  H16A  910   4.398   6.278   9.359 -1.0568  0.5096 -1.3077
   13CHL1  H16B  911   4.316   6.432   9.401  0.1877  0.3622  0.9704
   13CHL1   C17  912   4.531   6.461   9.405 -0.0757  0.1217 -0.0025
   13CHL1   H17  913   4.496   6.566   9.395  0.8221  0.4271 -0.0184
   13CHL1   C13  914   4.609   6.451   9.534 -0.4930 -0.6173  0.2394
   13CHL1   C18  915   4.701   6.330   9.524 -0.1144 -0.4988  0.6997
   13CHL1  H18A  916   4.795   6.361   9.473 -0.6485 -0.0308 -0.0026
   13CHL1  H18B  917   4.741   6.289   9.620  2.7398  0.8890  0.2171
   13CHL1  H18C  918   4.635   6.254   9.478 -0.4480 -0.6102  1.3471
   13CHL1   C12  919   4.694   6.574   9.578  0.0614  0.0598 -0.3262
   13CHL1  H12A  920   4.773   6.596   9.503 -0.2909  1.3632 -0.3356
   13CHL1  H12B  921   4.630   6.665   9.576  1.4075  1.1238  1.7449
   13CHL1   C11  922   4.743   6.554   9.722 -0.0264  0.2119 -0.4826
   13CHL1  H11A  923   4.824   6.477   9.725  0.6857  0.8798 -1.8682
   13CHL1  H11B  924   4.793   6.646   9.759 -0.3257 -0.3861  1.5305
   13CHL1    C9  925   4.628   6.528   9.834 -0.6121  0.0088 -0.0078
   13CHL1    H9  926   4.569   6.622   9.821 -0.1608 -0.0466 -3.2826
   13CHL1   C10  927   4.672   6.511   9.982  0.2634  0.0671  0.2958
   13CHL1   C19  928   4.790   6.417  10.001 -0.5832 -0.0047  0.2263
   13CHL1  H19A  929   4.872   6.408   9.925  1.2172 -3.5069  2.3239
   13CHL1  H19B  930   4.835   6.423  10.102  0.7138  0.6768 -0.3631
   13CHL1  H19C  931   4.750   6.314   9.994  1.4238 -0.8372  0.1704
   13CHL1    C1  932   4.721   6.652  10.037 -0.0774 -0.1567 -0.2727
   13CHL1   H1A  933   4.811   6.679   9.978 -0.4647 -1.3716 -1.4558
   13CHL1   H1B  934   4.645   6.728  10.006 -0.5052  0.5929  2.3454
   13CHL1    C2  935   4.734   6.675  10.190  0.4291  0.5084  0.0421
   13CHL1   H2A  936   4.740   6.783  10.216 -0.6982  0.7545 -0.6659
   13CHL1   H2B  937   4.835   6.636  10.218  2.1369  2.3504 -3.0329
   13CHL1   C20  938   4.594   6.435   9.265  0.0015  0.6534 -0.3179
   13CHL1   H20  939   4.640   6.334   9.262  1.1229  1.1792 -1.7940
   13CHL1   C21  940   4.713   6.528   9.229 -0.1585  0.1653 -0.1430
   13CHL1  H21A  941   4.754   6.516   9.126 -1.3181 -2.9218 -0.3511
   13CHL1  H21B  942   4.800   6.495   9.291 -0.0972 -1.8045 -1.1986
   13CHL1  H21C  943   4.687   6.633   9.253 -1.5921 -0.0444 -0.7437
   13CHL1   C22  944   4.484   6.454   9.154 -0.3900 -0.1255  0.0955
   13CHL1  H22A  945   4.532   6.420   9.060  0.8284 -0.7228  0.8987
   13CHL1  H22B  946   4.395   6.389   9.168 -0.7121  0.2827 -0.0474
   13CHL1   C23  947   4.431   6.603   9.128 -0.1421 -0.4046  0.0417
   13CHL1  H23A  948   4.422   6.654   9.226  0.1034  4.4377 -2.1526
   13CHL1  H23B  949   4.513   6.657   9.077  0.7157 -0.6080  1.1618
   13CHL1   C24  950   4.304   6.616   9.050  0.1900  0.0989 -0.3084
   13CHL1  H24A  951   4.213   6.583   9.106  1.2212 -0.7772  0.9130
   13CHL1  H24B  952   4.283   6.724   9.035 -0.0288 -0.0588 -1.1511
   13CHL1   C25  953   4.312   6.546   8.911  1.3589 -0.7518 -0.2724
   13CHL1   H25  954   4.316   6.436   8.927  0.8291 -0.5783  1.2791
   13CHL1   C26  955   4.186   6.592   8.839  0.4734  0.4127  1.0464
   13CHL1  H26A  956   4.089   6.560   8.883  0.2061 -0.9338 -0.4223
   13CHL1  H26B  957   4.200   6.701   8.826 -0.8454  0.2623 -3.6119
   13CHL1  H26C  958   4.184   6.549   8.736 -2.5453  0.3237  1.0436
   13CHL1   C27  959   4.434   6.597   8.828 -0.5813  0.3042  0.1744
   13CHL1  H27A  960   4.410   6.592   8.720  1.6441 -1.4833 -0.3110
   13CHL1  H27B  961   4.455   6.705   8.844 -1.1359  0.3147  0.8587
   13CHL1  H27C  962   4.529   6.541   8.840 -0.5007  0.6581  1.2885
   14CHL1    C3  963   2.357   3.180  10.473 -0.3467 -0.5290 -0.5676
   14CHL1    H3  964   2.434   3.100  10.464  1.3541  0.9557  0.1592
   14CHL1    O3  965   2.329   3.180  10.607 -0.3680  0.8133 -0.4429
   14CHL1   H3'  966   2.309   3.266  10.643  2.2106  1.3102 -0.0551
   14CHL1    C4  967   2.407   3.319  10.435 -0.0894  0.1081 -0.3363
   14CHL1   H4A  968   2.336   3.395  10.474  0.0942 -0.4337  1.1401
   14CHL1   H4B  969   2.504   3.339  10.486  0.5920 -2.7080 -0.4070
   14CHL1    C5  970   2.432   3.335  10.286  0.0377  0.0341 -0.0434
   14CHL1    C6  971   2.547   3.374  10.231 -0.0833  0.7198 -0.5343
   14CHL1    H6  972   2.626   3.405  10.301 -1.0136 -0.0329  0.8969
   14CHL1    C7  973   2.576   3.377  10.085 -0.3349  0.1889  0.4940
   14CHL1   H7A  974   2.616   3.473  10.047 -2.7927  0.2967 -2.1514
   14CHL1   H7B  975   2.655   3.301  10.064 -0.9435 -0.4874  0.6229
   14CHL1    C8  976   2.454   3.361   9.999  0.0164 -0.3876  0.3501
   14CHL1    H8  977   2.402   3.459  10.008  1.3447  0.3440  0.3158
   14CHL1   C14  978   2.500   3.331   9.861 -0.2481  0.0994 -0.5257
   14CHL1   H14  979   2.546   3.230   9.866  0.0014  0.0710 -2.6596
   14CHL1   C15  980   2.611   3.409   9.787  0.0373  0.0910  1.1010
   14CHL1  H15A  981   2.592   3.516   9.811 -1.0719  0.1745 -0.0651
   14CHL1  H15B  982   2.712   3.378   9.821  1.4655  4.1456  1.1808
   14CHL1   C16  983   2.587   3.376   9.642 -0.3023  0.3236 -0.5449
   14CHL1  H16A  984   2.577   3.458   9.567 -1.3314  0.7777  0.0690
   14CHL1  H16B  985   2.665   3.303   9.612 -2.3839 -2.3550  0.1969
   14CHL1   C17  986   2.459   3.283   9.632 -0.2650 -0.0189  0.1541
   14CHL1   H17  987   2.487   3.178   9.652  1.3792  0.3444 -0.0410
   14CHL1   C13  988   2.384   3.320   9.760  0.1002  0.2964 -0.0400
   14CHL1   C18  989   2.311   3.461   9.750 -0.1159 -0.1815  0.4199
   14CHL1  H18A  990   2.367   3.550   9.714  0.7980 -1.1257 -0.5466
   14CHL1  H18B  991   2.228   3.444   9.677  1.6387 -0.3730 -1.6346
   14CHL1  H18C  992   2.261   3.489   9.845  1.7316 -0.4799  1.5318
   14CHL1   C12  993   2.289   3.214   9.809  0.0455  0.1625  0.4590
   14CHL1  H12A  994   2.195   3.216   9.749 -1.2759 -0.3882  2.3984
   14CHL1  H12B  995   2.347   3.119   9.809  1.3324  0.9055  2.0142
   14CHL1   C11  996   2.249   3.235   9.951  0.3390 -0.3370 -0.1727
   14CHL1  H11A  997   2.174   3.316   9.959 -0.0881 -0.6462 -0.9554
   14CHL1  H11B  998   2.185   3.146   9.970  0.2251 -0.0701  0.7634
   14CHL1    C9  999   2.367   3.254  10.055 -0.4663  0.5466 -0.5026
   14CHL1    H9 1000   2.421   3.157  10.059  0.5597  1.0292 -1.9814
   14CHL1   C10 1001   2.317   3.283  10.201  0.7249  0.0976  0.0603
   14CHL1   C19 1002   2.197   3.382  10.215  0.4642  0.0181  0.4663
   14CHL1  H19A 1003   2.219   3.488  10.190  1.8315  0.0152  1.5813
   14CHL1  H19B 1004   2.105   3.348  10.162 -0.4735  0.8574  1.5162
   14CHL1  H19C 1005   2.168   3.387  10.322 -0.5029  0.1525  0.2068
   14CHL1    C1 1006   2.273   3.139  10.245  0.6801  0.0001 -0.4142
   14CHL1   H1A 1007   2.176   3.122  10.193 -0.3218  0.0111  1.3852
   14CHL1   H1B 1008   2.339   3.053  10.220  0.6594 -0.0645 -0.2480
   14CHL1    C2 1009   2.238   3.129  10.391 -0.1386 -0.3020 -0.4749
   14CHL1   H2A 1010   2.220   3.026  10.428 -1.1693  1.0132  3.1125
   14CHL1   H2B 1011   2.159   3.198  10.429  1.6001  1.2245  0.5677
   14CHL1   C20 1012   2.390   3.293   9.495 -0.1939 -0.2057 -0.0997
   14CHL1   H20 1013   2.380   3.401   9.475 -0.1504 -0.2567 -0.4035
   14CHL1   C21 1014   2.242   3.235   9.491  0.0214  0.5798  0.6955
   14CHL1  H21A 1015   2.251   3.128   9.521  3.5509  0.2597 -1.0553
   14CHL1  H21B 1016   2.190   3.240   9.392  0.9340 -0.4298  0.1378
   14CHL1  H21C 1017   2.179   3.298   9.556  1.8895  1.6955  1.4978
   14CHL1   C22 1018   2.472   3.222   9.379  0.2310 -0.4682 -0.3136
   14CHL1  H22A 1019   2.581   3.240   9.392 -0.1759  1.3146  0.8655
   14CHL1  H22B 1020   2.445   3.114   9.381 -1.3875 -0.0740  0.5753
   14CHL1   C23 1021   2.446   3.292   9.245  0.9395 -0.1074  0.2307
   14CHL1  H23A 1022   2.340   3.290   9.211  0.4226  1.9663  1.5132
   14CHL1  H23B 1023   2.469   3.400   9.256  0.2346  0.2649 -1.6183
   14CHL1   C24 1024   2.528   3.231   9.127  0.6288  0.3854 -0.2737
   14CHL1  H24A 1025   2.557   3.311   9.056  0.1300 -0.0431 -0.9732
   14CHL1  H24B 1026   2.616   3.194   9.183  0.3523  1.7683  1.1684
   14CHL1   C25 1027   2.442   3.122   9.050  0.2625 -0.3378  0.1784
   14CHL1   H25 1028   2.357   3.180   9.010 -0.7324 -1.8468  0.0191
   14CHL1   C26 1029   2.511   3.083   8.915  0.0062 -0.0705  0.4578
   14CHL1  H26A 1030   2.586   3.163   8.896 -2.1527  2.3673  1.5868
   14CHL1  H26B 1031   2.563   2.985   8.923  2.3855  1.1101  0.5945
   14CHL1  H26C 1032   2.449   3.083   8.823  0.8103  1.6212 -0.1400
   14CHL1   C27 1033   2.405   2.999   9.129 -0.3050 -0.6568 -0.3639
   14CHL1  H27A 1034   2.344   2.924   9.075 -0.6796 -2.6290  2.5881
   14CHL1  H27B 1035   2.495   2.947   9.167  0.1012 -0.3170 -0.8452
   14CHL1  H27C 1036   2.350   3.039   9.217  1.4919  0.8413  0.1480
   15CHL1    C3 1037   3.618   1.005  10.304  0.5281 -0.6092 -0.7331
   15CHL1    H3 1038   3.593   1.113  10.297  0.3376 -0.6050 -0.0552
   15CHL1    O3 1039   3.593   0.950  10.437 -0.3539 -0.4775  0.4724
   15CHL1   H3' 1040   3.674   0.906  10.464 -0.9039 -0.8619  1.5365
   15CHL1    C4 1041   3.530   0.927  10.203 -0.1294 -0.6397 -0.2093
   15CHL1   H4A 1042   3.555   0.820  10.218 -1.0423 -0.8260  0.0587
   15CHL1   H4B 1043   3.422   0.943  10.225  0.1646  3.5110 -1.0200
   15CHL1    C5 1044   3.564   0.966  10.060 -0.6247 -0.7793 -0.4504
   15CHL1    C6 1045   3.462   0.998   9.981 -0.1380 -0.3945  0.1165
   15CHL1    H6 1046   3.360   0.994  10.023 -0.5327  0.2051 -0.7553
   15CHL1    C7 1047   3.470   1.024   9.833 -0.1773 -0.7078 -0.3529
   15CHL1   H7A 1048   3.393   0.969   9.773 -0.2963  0.5385 -1.3886
   15CHL1   H7B 1049   3.454   1.132   9.813  1.2280  0.1949  2.7831
   15CHL1    C8 1050   3.618   0.999   9.774  0.2138  0.0392 -0.0775
   15CHL1    H8 1051   3.632   0.889   9.765 -0.3934 -0.1770  1.3050
   15CHL1   C14 1052   3.645   1.066   9.639  0.0431 -0.1926 -0.2097
   15CHL1   H14 1053   3.621   1.175   9.646 -0.3714 -0.3376  0.7371
   15CHL1   C15 1054   3.554   1.016   9.522 -0.2640  0.3097 -0.3142
   15CHL1  H15A 1055   3.551   0.905   9.525  1.0677  0.1755 -1.9574
   15CHL1  H15B 1056   3.457   1.067   9.540 -0.0481 -0.4003  3.9276
   15CHL1   C16 1057   3.636   1.072   9.402  0.3530 -0.4463  0.0584
   15CHL1  H16A 1058   3.642   0.998   9.320 -0.6689  0.4710 -0.8817
   15CHL1  H16B 1059   3.594   1.165   9.357  0.8101 -1.0281 -1.6119
   15CHL1   C17 1060   3.777   1.112   9.447  0.0619 -0.3649 -0.6332
   15CHL1   H17 1061   3.770   1.222   9.461 -0.4576 -0.6163  1.5064
   15CHL1   C13 1062   3.788   1.050   9.586 -0.0039  0.1455 -1.2811
   15CHL1   C18 1063   3.819   0.902   9.569 -0.0383 -0.1561  0.6535
   15CHL1  H18A 1064   3.920   0.894   9.525  0.1266  0.5772  0.8994
   15CHL1  H18B 1065   3.813   0.829   9.652  1.6259 -2.9726 -1.4861
   15CHL1  H18C 1066   3.755   0.857   9.490 -3.7972  1.6493  2.4086
   15CHL1   C12 1067   3.874   1.126   9.689 -0.1435  0.3898  0.3912
   15CHL1  H12A 1068   3.982   1.132   9.667  0.0236 -0.0038  1.0802
   15CHL1  H12B 1069   3.837   1.230   9.699 -0.0174  0.3910  0.8487
   15CHL1   C11 1070   3.869   1.062   9.834 -0.8465  0.2480 -0.0888
   15CHL1  H11A 1071   3.924   0.966   9.823 -0.0421  0.8349 -1.4753
   15CHL1  H11B 1072   3.925   1.126   9.906 -1.3226 -0.3869  0.8632
   15CHL1    C9 1073   3.722   1.044   9.884 -0.2575 -0.0630  0.7174
   15CHL1    H9 1074   3.688   1.148   9.901  0.3329 -0.1161  2.4130
   15CHL1   C10 1075   3.715   0.969  10.023  0.6950 -0.7745  0.1678
   15CHL1   C19 1076   3.765   0.830  10.006 -0.7932 -0.0392  0.1770
   15CHL1  H19A 1077   3.778   0.775  10.102 -0.7218  1.2009  0.9030
   15CHL1  H19B 1078   3.695   0.776   9.939 -0.5686 -1.1088  0.7834
   15CHL1  H19C 1079   3.866   0.831   9.961 -0.0457  1.2713  1.7977
   15CHL1    C1 1080   3.796   1.048  10.139  0.0851  0.8424  0.4755
   15CHL1   H1A 1081   3.899   1.045  10.097  0.0919  0.4863  0.5157
   15CHL1   H1B 1082   3.771   1.155  10.128 -0.3511  0.8513  1.4358
   15CHL1    C2 1083   3.771   0.986  10.272  0.0294  0.1355 -0.3022
   15CHL1   H2A 1084   3.827   1.044  10.349  2.2567 -2.3498  0.1048
   15CHL1   H2B 1085   3.791   0.877  10.273 -1.6656 -0.1998  0.2789
   15CHL1   C20 1086   3.887   1.090   9.336 -0.1533  0.3785 -0.3297
   15CHL1   H20 1087   3.906   0.983   9.313 -0.8009  0.5032 -1.4883
   15CHL1   C21 1088   4.020   1.134   9.402 -0.5173 -0.8340  0.0527
   15CHL1  H21A 1089   4.049   1.053   9.473  2.1436 -1.1197 -1.2448
   15CHL1  H21B 1090   4.006   1.226   9.463  1.7963 -0.2380 -0.2472
   15CHL1  H21C 1091   4.103   1.152   9.331  0.3136 -2.1192  0.6520
   15CHL1   C22 1092   3.870   1.172   9.213 -0.7994 -0.4841  0.1694
   15CHL1  H22A 1093   3.765   1.177   9.176 -0.9416  2.3291  0.7008
   15CHL1  H22B 1094   3.881   1.279   9.241 -1.5462  0.1665 -1.7902
   15CHL1   C23 1095   3.958   1.118   9.095  0.0562 -0.0824 -0.2416
   15CHL1  H23A 1096   4.067   1.136   9.111 -0.5468  1.5756  2.5510
   15CHL1  H23B 1097   3.950   1.008   9.087 -3.4750  0.1909 -2.7165
   15CHL1   C24 1098   3.919   1.186   8.964 -0.0864  0.1437  0.1176
   15CHL1  H24A 1099   3.938   1.116   8.880 -0.3961 -2.0868  1.8123
   15CHL1  H24B 1100   3.809   1.197   8.978 -0.1197 -0.0625  0.0131
   15CHL1   C25 1101   3.995   1.321   8.939 -0.1934  0.5727  0.2789
   15CHL1   H25 1102   4.020   1.375   9.033  2.4974 -1.2310  0.7066
   15CHL1   C26 1103   4.122   1.306   8.847 -0.3958  0.5563  0.5697
   15CHL1  H26A 1104   4.079   1.287   8.746 -0.6495 -0.3546  0.8347
   15CHL1  H26B 1105   4.187   1.396   8.843  0.2408  0.0726 -0.4452
   15CHL1  H26C 1106   4.177   1.213   8.875  1.7225  1.6154  0.1215
   15CHL1   C27 1107   3.898   1.419   8.870  0.7845 -0.1389  0.3552
   15CHL1  H27A 1108   3.867   1.372   8.774  2.3923 -3.3974  1.2884
   15CHL1  H27B 1109   3.816   1.450   8.938 -1.9279  2.4030 -3.6533
   15CHL1  H27C 1110   3.953   1.514   8.849 -1.6789  1.7812  2.0550
   16CHL1    C3 1111   4.218   2.050  10.488 -0.2698 -0.6351  0.5490
   16CHL1    H3 1112   4.123   1.995  10.473  1.1315 -2.8506 -0.7677
   16CHL1    O3 1113   4.248   2.048  10.626  0.3936  0.4225  0.2299
   16CHL1   H3' 1114   4.267   2.137  10.658 -1.6462  1.0275 -0.0580
   16CHL1    C4 1115   4.330   1.968  10.425 -0.5105 -0.5479 -0.3166
   16CHL1   H4A 1116   4.429   2.004  10.460  0.5161 -2.2224 -1.3523
   16CHL1   H4B 1117   4.318   1.866  10.469  0.4788 -0.4318  0.2550
   16CHL1    C5 1118   4.334   1.971  10.275  0.4948  0.8953  0.6743
   16CHL1    C6 1119   4.326   1.849  10.212 -0.5068 -0.4433 -0.4999
   16CHL1    H6 1120   4.334   1.756  10.270 -3.7510 -0.3075  0.3241
   16CHL1    C7 1121   4.328   1.841  10.059  0.0543  0.0702 -0.8396
   16CHL1   H7A 1122   4.403   1.768  10.020 -0.1041  0.5655 -2.1369
   16CHL1   H7B 1123   4.230   1.807  10.019 -0.4306 -0.2636  0.5825
   16CHL1    C8 1124   4.362   1.979   9.994 -0.1116 -0.4703  0.7636
   16CHL1    H8 1125   4.469   1.993  10.017 -0.1881 -0.2687  0.9959
   16CHL1   C14 1126   4.327   1.974   9.849 -0.1197 -0.1988  0.1933
   16CHL1   H14 1127   4.216   1.976   9.850 -0.1939 -2.0581  0.2503
   16CHL1   C15 1128   4.364   1.857   9.758 -0.1367 -0.5610 -0.2730
   16CHL1  H15A 1129   4.465   1.814   9.779  0.4495  1.5658  1.5592
   16CHL1  H15B 1130   4.287   1.782   9.786 -1.0881  1.2058  2.0788
   16CHL1   C16 1131   4.359   1.910   9.616 -0.5827  0.3890 -0.7512
   16CHL1  H16A 1132   4.458   1.906   9.567 -1.1320  0.4633 -1.9119
   16CHL1  H16B 1133   4.279   1.873   9.548 -0.8952  2.3973 -1.5717
   16CHL1   C17 1134   4.318   2.062   9.623  0.0530 -0.1622  0.2806
   16CHL1   H17 1135   4.208   2.076   9.617  0.2770  1.1578 -1.4191
   16CHL1   C13 1136   4.365   2.099   9.765  0.3951 -0.1862  0.2494
   16CHL1   C18 1137   4.517   2.129   9.768  0.1609  0.1759 -0.1459
   16CHL1  H18A 1138   4.581   2.041   9.743 -0.1598 -0.1338  0.1086
   16CHL1  H18B 1139   4.544   2.214   9.701 -1.3965 -0.6332 -1.8759
   16CHL1  H18C 1140   4.547   2.161   9.870 -1.4193  0.4494  0.2609
   16CHL1   C12 1141   4.279   2.213   9.823  0.0425  0.2317  0.1031
   16CHL1  H12A 1142   4.297   2.307   9.767 -1.4290  0.2030 -0.4631
   16CHL1  H12B 1143   4.170   2.198   9.805  0.4077 -0.6457 -1.5430
   16CHL1   C11 1144   4.294   2.227   9.974 -0.6153  0.3039  0.1907
   16CHL1  H11A 1145   4.397   2.266   9.983 -0.1593 -0.5731 -1.0187
   16CHL1  H11B 1146   4.219   2.302  10.007 -1.0099  0.4858 -1.0759
   16CHL1    C9 1147   4.282   2.089  10.056  0.3731  0.2991 -0.1752
   16CHL1    H9 1148   4.175   2.062  10.046  0.2034  1.1065 -0.6199
   16CHL1   C10 1149   4.310   2.109  10.205 -0.3197  0.3792 -0.4029
   16CHL1   C19 1150   4.453   2.177  10.218 -0.6717 -0.3403  0.4364
   16CHL1  H19A 1151   4.476   2.194  10.325  1.0256  1.0590 -0.1084
   16CHL1  H19B 1152   4.537   2.124  10.169  1.0089  0.5387  2.2509
   16CHL1  H19C 1153   4.443   2.281  10.180  3.0105  0.2321  0.6561
   16CHL1    C1 1154   4.196   2.190  10.276 -0.6042 -0.4348 -0.3504
   16CHL1   H1A 1155   4.200   2.294  10.237  1.4835 -0.9384 -1.6243
   16CHL1   H1B 1156   4.097   2.148  10.251  0.6528 -2.0582 -3.0891
   16CHL1    C2 1157   4.209   2.197  10.425  0.1893 -0.1535 -0.0457
   16CHL1   H2A 1158   4.133   2.261  10.476  1.5566  2.5530 -1.2211
   16CHL1   H2B 1159   4.307   2.247  10.443  0.7054 -0.3878 -1.9921
   16CHL1   C20 1160   4.362   2.145   9.498  0.1034  0.8650  0.0265
   16CHL1   H20 1161   4.473   2.152   9.492  0.0365  0.8125 -1.5143
   16CHL1   C21 1162   4.319   2.288   9.512 -0.0055  0.2994  0.4489
   16CHL1  H21A 1163   4.383   2.342   9.584  0.1021 -0.2386  0.7621
   16CHL1  H21B 1164   4.213   2.275   9.544 -0.7596 -2.7656 -2.7161
   16CHL1  H21C 1165   4.326   2.339   9.414 -1.2093  0.1201  0.2449
   16CHL1   C22 1166   4.306   2.094   9.362  0.3029  0.0818  0.2572
   16CHL1  H22A 1167   4.282   1.986   9.360  0.3087  0.0700 -2.4593
   16CHL1  H22B 1168   4.210   2.148   9.347  1.3842  2.0334  0.0455
   16CHL1   C23 1169   4.394   2.120   9.229 -0.0511 -0.0132  0.7971
   16CHL1  H23A 1170   4.449   2.212   9.259 -0.2599 -0.1716  1.6864
   16CHL1  H23B 1171   4.473   2.046   9.206  1.2671  1.6114 -0.1745
   16CHL1   C24 1172   4.306   2.121   9.109  0.0089  0.1539  0.1918
   16CHL1  H24A 1173   4.263   2.020   9.096  0.6098 -0.0160 -0.5556
   16CHL1  H24B 1174   4.216   2.182   9.129 -0.7734 -0.0044 -2.5092
   16CHL1   C25 1175   4.373   2.166   8.984 -0.9568  0.4003 -0.0130
   16CHL1   H25 1176   4.411   2.270   8.997  0.8677  0.5241 -4.5098
   16CHL1   C26 1177   4.495   2.078   8.937  0.3044  0.0103  0.8520
   16CHL1  H26A 1178   4.467   1.976   8.902  4.6137 -2.0367  2.4810
   16CHL1  H26B 1179   4.541   2.129   8.850  0.5146 -1.9221 -0.2397
   16CHL1  H26C 1180   4.571   2.062   9.017  1.0968  1.6668  0.4607
   16CHL1   C27 1181   4.274   2.190   8.864 -0.5347 -0.1650  0.5211
   16CHL1  H27A 1182   4.232   2.092   8.832 -0.1034  0.1075 -0.9755
   16CHL1  H27B 1183   4.191   2.261   8.883 -1.6316 -0.2194 -3.2648
   16CHL1  H27C 1184   4.326   2.231   8.775  0.1593  1.9127  1.8130
   17CHL1    C3 1185   0.415   5.427  10.562 -0.0494  0.0050  0.8228
   17CHL1    H3 1186   0.471   5.512  10.518 -2.3514  0.5035 -1.3710
   17CHL1    O3 1187   0.435   5.419  10.703 -0.5775 -0.0821  0.0169
   17CHL1   H3' 1188   0.399   5.336  10.735  1.3117 -1.1162 -0.4055
   17CHL1    C4 1189   0.267   5.446  10.513  0.1580  0.7776  0.5062
   17CHL1   H4A 1190   0.207   5.373  10.573  0.7436  1.4226  1.9177
   17CHL1   H4B 1191   0.239   5.548  10.545  0.9335  1.3510 -0.6026
   17CHL1    C5 1192   0.254   5.426  10.357  0.5781 -1.0774 -0.1215
   17CHL1    C6 1193   0.198   5.521  10.282 -0.2111 -0.0137  0.5752
   17CHL1    H6 1194   0.167   5.617  10.327  0.5081 -0.0103  1.0906
   17CHL1    C7 1195   0.169   5.518  10.133 -0.4608  0.1925 -1.0966
   17CHL1   H7A 1196   0.070   5.568  10.119 -0.3795  0.5758 -0.3880
   17CHL1   H7B 1197   0.242   5.584  10.082  1.1006 -0.5937  0.0427
   17CHL1    C8 1198   0.194   5.383  10.068 -0.3776  0.5731 -0.0476
   17CHL1    H8 1199   0.102   5.326  10.093 -0.6953  0.8982 -0.4482
   17CHL1   C14 1200   0.205   5.388   9.909  0.0959  0.0054 -0.2855
   17CHL1   H14 1201   0.294   5.452   9.890 -0.4685  0.3018 -2.0314
   17CHL1   C15 1202   0.100   5.451   9.823  0.0934  0.1892 -0.3861
   17CHL1  H15A 1203  -0.005   5.432   9.851 -0.7492  1.2228 -2.5500
   17CHL1  H15B 1204   0.117   5.559   9.801 -1.4218  0.2266 -1.5512
   17CHL1   C16 1205   0.123   5.386   9.686 -0.2175 -0.7644  0.3447
   17CHL1  H16A 1206   0.029   5.335   9.658 -0.7067 -0.0402  0.6328
   17CHL1  H16B 1207   0.137   5.458   9.603 -0.9538  0.4050  1.2017
   17CHL1   C17 1208   0.236   5.285   9.704 -0.3206  0.8860 -0.9029
   17CHL1   H17 1209   0.325   5.350   9.693  0.0304  0.6964  0.6185
   17CHL1   C13 1210   0.234   5.251   9.856  0.2755 -0.3923 -0.3688
   17CHL1   C18 1211   0.109   5.158   9.882 -0.4087 -0.3345 -0.3459
   17CHL1  H18A 1212   0.094   5.138   9.990  0.2071  0.6250 -0.0739
   17CHL1  H18B 1213   0.012   5.204   9.855 -0.0966  0.7791  0.3486
   17CHL1  H18C 1214   0.116   5.063   9.825 -0.2573  0.4396 -1.6503
   17CHL1   C12 1215   0.363   5.176   9.913 -0.1101 -0.6843  0.0640
   17CHL1  H12A 1216   0.364   5.074   9.869 -1.5096 -0.1386 -1.2982
   17CHL1  H12B 1217   0.454   5.235   9.891  0.3157 -1.1859  0.4503
   17CHL1   C11 1218   0.356   5.171  10.065 -0.1559  0.3825 -0.3889
   17CHL1  H11A 1219   0.291   5.089  10.102  1.1946 -0.7891 -0.5341
   17CHL1  H11B 1220   0.457   5.151  10.107 -0.7700  0.5710  1.2774
   17CHL1    C9 1221   0.318   5.311  10.129 -0.2129  0.1578  0.0698
   17CHL1    H9 1222   0.407   5.376  10.112  2.1294 -1.9536  3.1165
   17CHL1   C10 1223   0.311   5.305  10.289  0.5006 -0.1265  0.1753
   17CHL1   C19 1224   0.232   5.188  10.337 -0.1421 -0.1090 -0.0075
   17CHL1  H19A 1225   0.133   5.191  10.287  1.1081  2.7414 -2.6649
   17CHL1  H19B 1226   0.282   5.094  10.307  2.0712  0.8897  0.3664
   17CHL1  H19C 1227   0.224   5.174  10.447  0.5852  1.0708  0.2185
   17CHL1    C1 1228   0.458   5.281  10.347  0.9115 -0.6420  0.2735
   17CHL1   H1A 1229   0.501   5.183  10.316 -0.4276 -1.3881  0.6877
   17CHL1   H1B 1230   0.517   5.360  10.297  1.9436 -1.4163  0.2376
   17CHL1    C2 1231   0.478   5.302  10.497 -0.2798  0.2779  0.5662
   17CHL1   H2A 1232   0.585   5.291  10.524  0.0632  1.8700 -0.0391
   17CHL1   H2B 1233   0.424   5.219  10.548 -1.4064  0.2779 -0.5596
   17CHL1   C20 1234   0.251   5.173   9.596 -0.4129  0.6061 -0.1995
   17CHL1   H20 1235   0.208   5.079   9.637  0.2448  0.1984 -0.4301
   17CHL1   C21 1236   0.404   5.153   9.580 -0.2436 -0.8769 -0.3469
   17CHL1  H21A 1237   0.440   5.099   9.669 -0.1435 -0.2685 -0.0132
   17CHL1  H21B 1238   0.470   5.238   9.551 -0.8338 -0.6488 -1.0848
   17CHL1  H21C 1239   0.418   5.073   9.505  1.6973 -1.2711  0.3803
   17CHL1   C22 1240   0.173   5.202   9.468 -0.1163 -0.6773 -0.1042
   17CHL1  H22A 1241   0.065   5.219   9.488  0.1299  1.8482 -0.5434
   17CHL1  H22B 1242   0.216   5.297   9.429  2.1161 -0.9149  1.6063
   17CHL1   C23 1243   0.201   5.095   9.357 -0.1934  0.1997 -0.3141
   17CHL1  H23A 1244   0.306   5.112   9.325 -0.0515  0.0419  0.0610
   17CHL1  H23B 1245   0.199   4.992   9.399 -1.9099  0.2811 -0.1078
   17CHL1   C24 1246   0.108   5.117   9.240 -0.2612  0.2566  0.1886
   17CHL1  H24A 1247   0.010   5.077   9.273  0.3133 -2.5375 -1.2111
   17CHL1  H24B 1248   0.087   5.225   9.228 -0.9326 -0.0551 -1.8394
   17CHL1   C25 1249   0.150   5.050   9.105 -0.7984 -0.0632  0.7186
   17CHL1   H25 1250   0.256   5.078   9.090 -0.9692 -0.5284 -1.7698
   17CHL1   C26 1251   0.135   4.900   9.103 -0.3893 -0.5870 -0.7420
   17CHL1  H26A 1252   0.187   4.862   9.012 -0.4040  0.5300 -1.2279
   17CHL1  H26B 1253   0.184   4.860   9.195  0.8512 -0.4477 -1.3288
   17CHL1  H26C 1254   0.029   4.867   9.105 -0.4792 -0.3541  1.8612
   17CHL1   C27 1255   0.082   5.130   8.981 -0.2323  0.1469 -0.5249
   17CHL1  H27A 1256   0.125   5.231   8.993 -2.1113  0.7405  2.0164
   17CHL1  H27B 1257   0.119   5.091   8.883  0.2261 -1.4881  0.2643
   17CHL1  H27C 1258  -0.028   5.135   8.994  0.0738  2.9644  2.0495
   18CHL1    C3 1259   6.420   4.261  10.433 -0.1803 -0.0502  0.5399
   18CHL1    H3 1260   6.495   4.342  10.419  1.2635 -1.8087 -3.4098
   18CHL1    O3 1261   6.397   4.217  10.564 -0.6120 -0.2018 -0.2696
   18CHL1   H3' 1262   6.349   4.280  10.618  0.3634 -1.3202  2.0511
   18CHL1    C4 1263   6.284   4.298  10.366  0.4643 -0.0561 -0.5457
   18CHL1   H4A 1264   6.213   4.213  10.376  1.1533 -0.5042  0.6364
   18CHL1   H4B 1265   6.239   4.382  10.423  1.0631 -1.2361  1.7601
   18CHL1    C5 1266   6.276   4.317  10.212 -0.5031 -0.5344 -0.7299
   18CHL1    C6 1267   6.213   4.428  10.168 -0.1456 -0.1723 -0.6379
   18CHL1    H6 1268   6.167   4.494  10.244 -0.8242 -1.6064  0.2514
   18CHL1    C7 1269   6.213   4.466  10.019  0.7387  0.4079  0.0222
   18CHL1   H7A 1270   6.111   4.494   9.983  0.7035 -0.5681 -0.6890
   18CHL1   H7B 1271   6.280   4.554  10.005 -0.1887  1.3705  1.3226
   18CHL1    C8 1272   6.253   4.345   9.924  0.4287 -0.7777 -0.0193
   18CHL1    H8 1273   6.173   4.268   9.916  0.9282 -1.4340  1.0471
   18CHL1   C14 1274   6.283   4.391   9.788 -0.6392 -0.3644  0.1113
   18CHL1   H14 1275   6.370   4.459   9.803  0.2235 -1.8000  1.9981
   18CHL1   C15 1276   6.168   4.458   9.709  0.2321 -0.0468 -0.2951
   18CHL1  H15A 1277   6.079   4.398   9.737  1.8082 -2.6412 -0.5455
   18CHL1  H15B 1278   6.158   4.562   9.748  2.4596  0.8048 -1.7688
   18CHL1   C16 1279   6.222   4.456   9.559  0.7864 -0.7763  0.6618
   18CHL1  H16A 1280   6.139   4.415   9.497 -0.1128  2.2516 -0.3272
   18CHL1  H16B 1281   6.257   4.557   9.531  0.6928 -1.1760 -1.0230
   18CHL1   C17 1282   6.352   4.368   9.558  0.6095  0.2504  0.1829
   18CHL1   H17 1283   6.434   4.442   9.571 -0.4466  1.5421 -0.2935
   18CHL1   C13 1284   6.344   4.287   9.687  1.0367 -0.2455  0.3495
   18CHL1   C18 1285   6.232   4.175   9.662 -0.3667 -0.3272  0.6058
   18CHL1  H18A 1286   6.148   4.216   9.602  1.4756 -0.8903 -2.5211
   18CHL1  H18B 1287   6.289   4.096   9.610  0.0790 -0.2048  0.8994
   18CHL1  H18C 1288   6.193   4.122   9.752 -0.7857 -1.5685 -0.2779
   18CHL1   C12 1289   6.476   4.241   9.750  0.0349 -0.5272 -0.3643
   18CHL1  H12A 1290   6.521   4.161   9.687  2.6685  0.1624  0.5162
   18CHL1  H12B 1291   6.549   4.322   9.771  1.7189 -2.5466  2.3755
   18CHL1   C11 1292   6.453   4.188   9.884 -0.3515  0.2777  0.2371
   18CHL1  H11A 1293   6.402   4.090   9.891 -1.0460  0.6448  0.4580
   18CHL1  H11B 1294   6.555   4.179   9.926  0.3125  1.0791 -1.1440
   18CHL1    C9 1295   6.376   4.280   9.983 -0.1785 -0.2667  0.3270
   18CHL1    H9 1296   6.441   4.369   9.997 -2.0692  1.2125  0.0905
   18CHL1   C10 1297   6.358   4.220  10.125  0.3101 -0.0939 -0.2836
   18CHL1   C19 1298   6.284   4.088  10.120 -0.0727 -0.7684  0.5243
   18CHL1  H19A 1299   6.189   4.070  10.065  1.9062  1.5981 -4.3225
   18CHL1  H19B 1300   6.351   4.010  10.077  0.2809  0.2172 -0.8053
   18CHL1  H19C 1301   6.259   4.060  10.224 -0.3666 -0.3467  0.5673
   18CHL1    C1 1302   6.498   4.203  10.197  0.5043 -0.0548 -0.1658
   18CHL1   H1A 1303   6.558   4.124  10.147  0.1647  0.6690 -1.7798
   18CHL1   H1B 1304   6.557   4.297  10.191 -1.0116  0.8780 -1.6851
   18CHL1    C2 1305   6.494   4.161  10.349  0.2346  0.2446  1.2466
   18CHL1   H2A 1306   6.595   4.145  10.392  0.7923 -0.1044 -0.1455
   18CHL1   H2B 1307   6.449   4.060  10.362 -1.9255  0.7245 -1.5283
   18CHL1   C20 1308   6.366   4.295   9.423  0.6438 -0.1424 -0.2890
   18CHL1   H20 1309   6.280   4.225   9.414  0.9810 -0.7434  0.9471
   18CHL1   C21 1310   6.498   4.221   9.424 -0.3992  0.4338  0.3577
   18CHL1  H21A 1311   6.498   4.144   9.504 -1.1229  1.7442  1.6484
   18CHL1  H21B 1312   6.580   4.292   9.448  1.6832 -1.1952 -1.4634
   18CHL1  H21C 1313   6.537   4.167   9.334 -1.1679  0.1214  0.2080
   18CHL1   C22 1314   6.372   4.388   9.302 -0.5879 -0.3021 -0.7120
   18CHL1  H22A 1315   6.277   4.447   9.300 -0.1628  0.3973 -0.6430
   18CHL1  H22B 1316   6.462   4.452   9.311  0.1995 -1.6679  1.9760
   18CHL1   C23 1317   6.365   4.321   9.167  0.0042 -0.0378 -0.8783
   18CHL1  H23A 1318   6.434   4.234   9.164 -0.3312 -0.2881 -1.4650
   18CHL1  H23B 1319   6.268   4.269   9.152  0.8676 -2.1160  0.1863
   18CHL1   C24 1320   6.400   4.409   9.047 -0.2248 -0.0138 -0.1898
   18CHL1  H24A 1321   6.341   4.504   9.046  1.1272  0.8548 -1.5903
   18CHL1  H24B 1322   6.503   4.447   9.066 -1.0307  0.6400  3.9949
   18CHL1   C25 1323   6.391   4.355   8.903  0.0230  0.1306 -0.5497
   18CHL1   H25 1324   6.387   4.451   8.846  0.2109  1.3764  1.4423
   18CHL1   C26 1325   6.518   4.280   8.883  0.0223 -0.2595 -0.1994
   18CHL1  H26A 1326   6.530   4.197   8.956  0.9608 -1.0970 -1.2671
   18CHL1  H26B 1327   6.527   4.244   8.778 -2.4778  0.6684 -0.8056
   18CHL1  H26C 1328   6.598   4.357   8.896  0.2175 -0.3916 -0.6145
   18CHL1   C27 1329   6.272   4.264   8.882  0.6027  0.3986  0.7347
   18CHL1  H27A 1330   6.288   4.173   8.943  3.4305  0.0927 -0.3209
   18CHL1  H27B 1331   6.176   4.317   8.902 -0.2821 -0.7958 -0.1834
   18CHL1  H27C 1332   6.273   4.238   8.774  0.4839  1.6600  0.4132
   19CHL1    C3 1333   2.839   0.038  10.355  0.4855 -0.7816  0.2452
   19CHL1    H3 1334   2.907  -0.049  10.339  0.8284 -0.3191 -0.8960
   19CHL1    O3 1335   2.843   0.063  10.494 -0.4546 -0.2713  0.4878
   19CHL1   H3' 1336   2.766   0.116  10.516 -0.4851 -0.1986  0.2040
   19CHL1    C4 1337   2.888   0.154  10.267  0.4233  0.2008 -0.6714
   19CHL1   H4A 1338   2.827   0.244  10.287  0.2823  0.1951 -1.0653
   19CHL1   H4B 1339   2.994   0.175  10.295  0.6113  0.0260 -1.2329
   19CHL1    C5 1340   2.872   0.133  10.115 -0.2554 -0.3904 -0.6122
   19CHL1    C6 1341   2.976   0.139  10.035 -0.0345  0.0665 -0.0984
   19CHL1    H6 1342   3.069   0.173  10.083  0.0943  0.4188 -0.5945
   19CHL1    C7 1343   2.966   0.123   9.887  0.0331  0.2528 -0.1304
   19CHL1   H7A 1344   3.020   0.206   9.837  0.3613  1.1596  1.6380
   19CHL1   H7B 1345   3.006   0.024   9.859 -4.3378 -1.8861  0.2894
   19CHL1    C8 1346   2.821   0.121   9.832  0.8730  0.4501 -0.5423
   19CHL1    H8 1347   2.779   0.224   9.838 -1.1760 -0.3736 -0.0299
   19CHL1   C14 1348   2.814   0.069   9.691  0.4384  0.4044 -0.5817
   19CHL1   H14 1349   2.849  -0.037   9.694  0.8632  0.5135 -1.4148
   19CHL1   C15 1350   2.916   0.128   9.588  0.9651  0.4142 -0.3940
   19CHL1  H15A 1351   2.912   0.236   9.564  2.1293  0.6406  0.3311
   19CHL1  H15B 1352   3.020   0.103   9.620  1.0012 -0.2779 -1.0144
   19CHL1   C16 1353   2.885   0.054   9.463  0.3196  0.0997 -0.2646
   19CHL1  H16A 1354   2.891   0.131   9.384  1.9686  2.8219  2.3157
   19CHL1  H16B 1355   2.957  -0.029   9.444 -1.3930 -1.6055  0.3280
   19CHL1   C17 1356   2.735  -0.001   9.482 -0.6327 -0.6349  0.1688
   19CHL1   H17 1357   2.754  -0.107   9.510  0.3280 -0.4480  0.2618
   19CHL1   C13 1358   2.680   0.065   9.612  0.1844  0.5406  0.5321
   19CHL1   C18 1359   2.621   0.205   9.586  0.1644 -0.0247  0.1627
   19CHL1  H18A 1360   2.527   0.202   9.526 -0.6864  1.0160  1.3722
   19CHL1  H18B 1361   2.592   0.261   9.678 -1.0393  3.6047 -2.2018
   19CHL1  H18C 1362   2.698   0.273   9.543  0.7786 -1.3901 -0.9830
   19CHL1   C12 1363   2.586  -0.026   9.710  0.3101  0.8407  0.0256
   19CHL1  H12A 1364   2.485  -0.040   9.665  0.5331 -1.2196  0.0399
   19CHL1  H12B 1365   2.638  -0.124   9.721  0.6223  1.2985  3.6298
   19CHL1   C11 1366   2.586   0.030   9.854  0.5272 -0.4476 -0.5804
   19CHL1  H11A 1367   2.531   0.127   9.864  1.7622  0.0719  1.9289
   19CHL1  H11B 1368   2.523  -0.043   9.908 -0.2246 -0.7155 -1.7731
   19CHL1    C9 1369   2.727   0.034   9.918 -0.5451  0.0828 -0.4214
   19CHL1    H9 1370   2.763  -0.071   9.911 -0.1261  0.2146 -0.2918
   19CHL1   C10 1371   2.729   0.083  10.078  0.3116  0.6172 -0.1622
   19CHL1   C19 1372   2.635   0.208  10.092  0.0197 -0.3317 -0.6998
   19CHL1  H19A 1373   2.649   0.291  10.019 -0.1493 -0.1094 -0.4842
   19CHL1  H19B 1374   2.530   0.173  10.078 -0.0144  0.1009 -1.5631
   19CHL1  H19C 1375   2.643   0.251  10.195 -1.3465 -0.1774 -0.6320
   19CHL1    C1 1376   2.682  -0.029  10.165  0.6483 -0.2864  0.4831
   19CHL1   H1A 1377   2.576  -0.058  10.144  0.4144  0.0361  1.1833
   19CHL1   H1B 1378   2.747  -0.116  10.143  0.8286 -0.1193  0.3487
   19CHL1    C2 1379   2.700  -0.010  10.315  0.4480 -0.0514 -0.1375
   19CHL1   H2A 1380   2.675  -0.100  10.375 -0.9136  1.5267  1.8081
   19CHL1   H2B 1381   2.640   0.079  10.347  1.0294  0.6358 -0.9134
   19CHL1   C20 1382   2.649  -0.002   9.352 -0.3973 -0.0453  0.2038
   19CHL1   H20 1383   2.626   0.099   9.312 -2.4763 -0.5383  0.0501
   19CHL1   C21 1384   2.513  -0.072   9.374 -0.5195 -0.2916  0.1952
   19CHL1  H21A 1385   2.459  -0.013   9.452  0.1633 -2.1422  2.1640
   19CHL1  H21B 1386   2.527  -0.174   9.415 -2.1507 -0.2035  1.0898
   19CHL1  H21C 1387   2.447  -0.073   9.285  0.9249 -0.2469 -0.9113
   19CHL1   C22 1388   2.729  -0.071   9.235 -0.7034  0.2013  0.3628
   19CHL1  H22A 1389   2.822  -0.013   9.216 -0.0257 -0.5610  1.2136
   19CHL1  H22B 1390   2.754  -0.171   9.277  2.2490  0.4366 -0.5996
   19CHL1   C23 1391   2.658  -0.081   9.100 -0.2884  0.4897  0.0369
   19CHL1  H23A 1392   2.564  -0.138   9.112 -0.1155  0.5050  1.7638
   19CHL1  H23B 1393   2.629   0.024   9.080 -3.1170 -0.4179 -1.0229
   19CHL1   C24 1394   2.736  -0.138   8.981  0.5583 -0.2227 -0.3242
   19CHL1  H24A 1395   2.827  -0.076   8.972 -0.5821  1.5464 -0.0225
   19CHL1  H24B 1396   2.771  -0.241   9.007  2.4373 -0.2418 -2.5739
   19CHL1   C25 1397   2.667  -0.162   8.848 -0.1370  0.1785  0.5256
   19CHL1   H25 1398   2.615  -0.073   8.809 -0.8560  0.4003  1.9110
   19CHL1   C26 1399   2.773  -0.209   8.748 -0.3535 -0.2934  0.2292
   19CHL1  H26A 1400   2.840  -0.287   8.790 -0.7058 -0.5139  0.3842
   19CHL1  H26B 1401   2.717  -0.228   8.654  1.5686 -0.8959 -0.8324
   19CHL1  H26C 1402   2.837  -0.120   8.728 -0.3058 -0.2205  0.6875
   19CHL1   C27 1403   2.563  -0.267   8.861 -0.4204 -0.0661 -0.8216
   19CHL1  H27A 1404   2.488  -0.247   8.941  1.1514 -0.8046  0.9063
   19CHL1  H27B 1405   2.509  -0.276   8.764  0.9082  0.2843 -1.6300
   19CHL1  H27C 1406   2.607  -0.366   8.883  1.4417  0.7312 -0.7510
   20CHL1    C3 1407   5.719   1.174  10.574 -0.2139  0.5799  0.0969
   20CHL1    H3 1408   5.730   1.283  10.552  0.1995  0.3248 -1.0735
   20CHL1    O3 1409   5.756   1.152  10.711  0.8799 -0.1237 -0.5635
   20CHL1   H3' 1410   5.710   1.073  10.742  0.1086  1.0521  1.5060
   20CHL1    C4 1411   5.564   1.150  10.552 -0.8697  0.4620  0.4466
   20CHL1   H4A 1412   5.533   1.053  10.597  1.0950 -0.3835  0.0889
   20CHL1   H4B 1413   5.513   1.228  10.612 -1.4994  0.3521  0.0606
   20CHL1    C5 1414   5.534   1.153  10.400 -0.3820 -0.5316  0.1136
   20CHL1    C6 1415   5.442   1.233  10.344 -0.0468 -1.3434 -0.3717
   20CHL1    H6 1416   5.386   1.302  10.409 -0.1322  0.3759 -2.1806
   20CHL1    C7 1417   5.412   1.221  10.196 -0.1566 -0.2338  0.0513
   20CHL1   H7A 1418   5.306   1.198  10.173  0.0313 -0.9348 -0.1315
   20CHL1   H7B 1419   5.451   1.311  10.143  1.1549 -1.9410 -2.0676
   20CHL1    C8 1420   5.468   1.091  10.116  0.4042 -0.2099  0.3593
   20CHL1    H8 1421   5.403   1.006  10.147  0.7686 -0.3252  0.8164
   20CHL1   C14 1422   5.457   1.119   9.966 -1.4532 -0.2987 -0.0186
   20CHL1   H14 1423   5.518   1.209   9.944 -1.0261 -0.7046 -0.5023
   20CHL1   C15 1424   5.321   1.160   9.907 -0.1825 -0.4212 -0.5847
   20CHL1  H15A 1425   5.230   1.116   9.954 -0.9270  1.3631 -0.2883
   20CHL1  H15B 1426   5.301   1.269   9.915  1.2776 -0.2999  3.8609
   20CHL1   C16 1427   5.331   1.125   9.758  0.5234  0.2404 -1.4828
   20CHL1  H16A 1428   5.262   1.042   9.730 -0.7221  0.9680 -0.6629
   20CHL1  H16B 1429   5.307   1.207   9.687  1.4501  0.1668 -1.8985
   20CHL1   C17 1430   5.477   1.073   9.742 -0.4866  0.2178 -0.4158
   20CHL1   H17 1431   5.542   1.160   9.721 -0.4743  0.2332 -0.3175
   20CHL1   C13 1432   5.520   1.014   9.881 -0.2376  0.6008  0.3505
   20CHL1   C18 1433   5.447   0.877   9.910 -0.2391 -0.1796 -0.1009
   20CHL1  H18A 1434   5.506   0.801   9.853 -0.4781  0.0213 -0.6214
   20CHL1  H18B 1435   5.447   0.850  10.018 -2.5037 -0.6410 -0.1837
   20CHL1  H18C 1436   5.339   0.870   9.889 -0.3103 -1.6557  0.6289
   20CHL1   C12 1437   5.672   1.008   9.914 -0.0540  0.0892  0.0081
   20CHL1  H12A 1438   5.724   0.930   9.854 -0.2623  1.1956 -1.6955
   20CHL1  H12B 1439   5.713   1.107   9.885 -1.3315  0.5569 -0.2678
   20CHL1   C11 1440   5.688   0.982  10.064 -0.0398 -0.5107 -0.4191
   20CHL1  H11A 1441   5.645   0.882  10.088 -1.0121 -0.1141 -0.4487
   20CHL1  H11B 1442   5.798   0.979  10.072  0.0509  0.6531 -1.0630
   20CHL1    C9 1443   5.611   1.076  10.159 -0.1692 -0.1459  0.0021
   20CHL1    H9 1444   5.643   1.180  10.136 -0.5538  0.1046  0.5808
   20CHL1   C10 1445   5.629   1.062  10.314  0.7989  0.2731 -0.0695
   20CHL1   C19 1446   5.598   0.913  10.342  0.4773  0.8057  0.2394
   20CHL1  H19A 1447   5.501   0.883  10.297  0.1978  0.2539  1.1855
   20CHL1  H19B 1448   5.678   0.844  10.306  0.1009  0.1090  0.7192
   20CHL1  H19C 1449   5.581   0.883  10.447 -0.1343  1.8351  0.4426
   20CHL1    C1 1450   5.774   1.102  10.347 -0.3645  0.0155  0.3997
   20CHL1   H1A 1451   5.834   1.028  10.290 -2.1198 -0.6586 -0.6597
   20CHL1   H1B 1452   5.797   1.205  10.312 -1.3732  0.4032  0.8347
   20CHL1    C2 1453   5.810   1.078  10.495  0.1357 -0.3911 -0.0771
   20CHL1   H2A 1454   5.914   1.101  10.526  1.8731 -4.7328 -1.9142
   20CHL1   H2B 1455   5.793   0.970  10.518  2.6975 -0.6648  0.8928
   20CHL1   C20 1456   5.492   0.983   9.622  0.3810  0.2995  0.0002
   20CHL1   H20 1457   5.437   0.896   9.664  0.7604  0.2173  0.3400
   20CHL1   C21 1458   5.639   0.951   9.593  0.2057 -0.3590 -0.0516
   20CHL1  H21A 1459   5.687   0.878   9.661 -0.6702 -0.9834 -0.0865
   20CHL1  H21B 1460   5.697   1.045   9.602  0.8122 -0.7526  0.2267
   20CHL1  H21C 1461   5.654   0.918   9.488 -0.7370 -1.3093  0.0993
   20CHL1   C22 1462   5.421   1.026   9.492  0.4336  0.1201 -0.0144
   20CHL1  H22A 1463   5.421   0.939   9.424  1.2845  0.3151 -0.2783
   20CHL1  H22B 1464   5.315   1.056   9.509  1.1292  2.3622  0.8361
   20CHL1   C23 1465   5.481   1.160   9.432 -0.3626  0.4765 -0.5162
   20CHL1  H23A 1466   5.505   1.227   9.517 -0.7209 -0.7581  0.6010
   20CHL1  H23B 1467   5.580   1.135   9.389  0.0550  2.8322 -1.0473
   20CHL1   C24 1468   5.378   1.228   9.344 -0.3891  0.1281 -0.1604
   20CHL1  H24A 1469   5.354   1.162   9.258  0.1937  0.4166 -0.5511
   20CHL1  H24B 1470   5.284   1.241   9.403 -0.1523 -1.0346  0.4986
   20CHL1   C25 1471   5.433   1.359   9.277  0.1367 -0.2241  0.0418
   20CHL1   H25 1472   5.470   1.425   9.359  2.9653 -0.2327 -1.1223
   20CHL1   C26 1473   5.539   1.337   9.176 -0.8099  0.0652 -0.4239
   20CHL1  H26A 1474   5.623   1.291   9.232  0.1320 -1.0150 -2.6153
   20CHL1  H26B 1475   5.513   1.266   9.095  1.1779  0.5530 -1.5373
   20CHL1  H26C 1476   5.579   1.426   9.123 -0.2500  0.0749  0.0084
   20CHL1   C27 1477   5.321   1.426   9.207 -0.3892 -0.1001 -0.1891
   20CHL1  H27A 1478   5.241   1.440   9.283  0.3256 -1.2377  0.8076
   20CHL1  H27B 1479   5.350   1.531   9.185 -1.7965  0.4481  0.4469
   20CHL1  H27C 1480   5.292   1.384   9.109 -0.6000  1.3250 -0.7709
   21CHL1    C3 1481   5.217   5.001  10.330  0.1558 -0.3492  0.2761
   21CHL1    H3 1482   5.162   5.097  10.341 -2.2969 -1.8419  2.1884
   21CHL1    O3 1483   5.208   4.947  10.458 -0.0906 -0.1562  0.5287
   21CHL1   H3' 1484   5.244   5.020  10.510 -1.4309  2.5891 -2.1016
   21CHL1    C4 1485   5.149   4.899  10.233  0.4265  0.0260  0.4590
   21CHL1   H4A 1486   5.205   4.804  10.241 -1.8574 -2.1034 -4.6620
   21CHL1   H4B 1487   5.044   4.881  10.266 -0.0228  0.9058 -0.4300
   21CHL1    C5 1488   5.159   4.948  10.087  0.4082  0.0437 -0.0315
   21CHL1    C6 1489   5.054   4.961  10.003  0.2208  0.0683  0.0028
   21CHL1    H6 1490   4.952   4.949  10.042  0.1836 -1.4209 -0.4908
   21CHL1    C7 1491   5.062   4.997   9.856  0.6918 -0.6620  0.7197
   21CHL1   H7A 1492   5.002   4.941   9.781  0.9711  1.2517 -1.0058
   21CHL1   H7B 1493   5.029   5.102   9.844 -1.1778 -1.4208 -1.7932
   21CHL1    C8 1494   5.209   4.987   9.796 -0.3478  0.4268 -0.2142
   21CHL1    H8 1495   5.234   4.880   9.781 -0.0257  0.3004  1.0779
   21CHL1   C14 1496   5.220   5.068   9.663 -0.3985  0.5682  0.6904
   21CHL1   H14 1497   5.190   5.172   9.689 -1.5928  0.5680 -0.5684
   21CHL1   C15 1498   5.124   5.037   9.547  0.0292  0.8144  0.7044
   21CHL1  H15A 1499   5.121   4.927   9.533  2.5319  0.7085  0.4784
   21CHL1  H15B 1500   5.021   5.079   9.550 -0.3271  0.4352 -2.3981
   21CHL1   C16 1501   5.185   5.091   9.415  0.7828  0.1957 -0.5860
   21CHL1  H16A 1502   5.202   5.001   9.352 -0.7932  1.0880 -2.3861
   21CHL1  H16B 1503   5.115   5.169   9.377  0.8174  1.4519  1.7559
   21CHL1   C17 1504   5.317   5.144   9.461  0.3090 -0.1044  0.6552
   21CHL1   H17 1505   5.299   5.252   9.484  0.9557  0.2387 -0.3864
   21CHL1   C13 1506   5.353   5.077   9.590 -0.5121  0.6275 -0.0987
   21CHL1   C18 1507   5.397   4.932   9.553 -0.0386  0.0194 -0.6883
   21CHL1  H18A 1508   5.326   4.892   9.478 -1.2505 -0.1992  0.5444
   21CHL1  H18B 1509   5.502   4.925   9.516 -0.6305 -1.1083 -2.2644
   21CHL1  H18C 1510   5.382   4.861   9.636 -0.6303  0.8049 -0.1124
   21CHL1   C12 1511   5.454   5.144   9.695  0.5339  0.4412 -1.2258
   21CHL1  H12A 1512   5.559   5.151   9.660  1.3607 -0.4865  0.8991
   21CHL1  H12B 1513   5.414   5.245   9.718  5.4649  2.1335  1.1081
   21CHL1   C11 1514   5.452   5.064   9.834  0.0073  0.0358  1.1297
   21CHL1  H11A 1515   5.504   4.969   9.809  1.9777  1.6916 -1.5837
   21CHL1  H11B 1516   5.495   5.136   9.907 -1.4017  2.3916 -0.2009
   21CHL1    C9 1517   5.314   5.040   9.894  0.2113 -0.5054  0.2338
   21CHL1    H9 1518   5.269   5.141   9.902  3.2605  1.0725 -1.0798
   21CHL1   C10 1519   5.303   4.977  10.037  0.4826  0.6604 -0.5188
   21CHL1   C19 1520   5.384   4.837  10.036  0.1742 -0.6840  0.4944
   21CHL1  H19A 1521   5.387   4.787  10.136 -0.6108 -1.6463  0.0474
   21CHL1  H19B 1522   5.338   4.767   9.964  0.3807  0.4776 -0.7963
   21CHL1  H19C 1523   5.487   4.850   9.995  0.3548 -0.0557  1.1133
   21CHL1    C1 1524   5.380   5.066  10.141 -0.1930  0.4320  0.2886
   21CHL1   H1A 1525   5.489   5.078  10.123 -0.2527  2.0513  0.8292
   21CHL1   H1B 1526   5.349   5.173  10.140  0.9123  0.7927 -2.2124
   21CHL1    C2 1527   5.362   5.023  10.292  0.0418  0.1013  0.3925
   21CHL1   H2A 1528   5.404   5.106  10.354  0.5045  0.9291 -0.9925
   21CHL1   H2B 1529   5.421   4.929  10.301 -2.0544 -1.2166  1.1029
   21CHL1   C20 1530   5.414   5.136   9.346  0.1327 -0.1837 -0.7789
   21CHL1   H20 1531   5.430   5.028   9.326  0.9807 -0.1650 -0.2596
   21CHL1   C21 1532   5.549   5.209   9.380  1.0251 -0.5575 -0.1324
   21CHL1  H21A 1533   5.605   5.245   9.292  1.0226  1.1228  0.5062
   21CHL1  H21B 1534   5.619   5.145   9.438  1.7667 -0.0079 -0.4142
   21CHL1  H21C 1535   5.526   5.296   9.445  0.3569 -1.5196  0.9698
   21CHL1   C22 1536   5.372   5.203   9.217  0.2054 -0.1551 -0.0912
   21CHL1  H22A 1537   5.465   5.201   9.157 -0.1548  0.3952 -0.6836
   21CHL1  H22B 1538   5.300   5.135   9.167 -2.3494  0.2048  2.7424
   21CHL1   C23 1539   5.322   5.340   9.226 -0.1803 -0.0289  0.4160
   21CHL1  H23A 1540   5.224   5.338   9.278 -1.5093  2.5450 -1.7228
   21CHL1  H23B 1541   5.386   5.411   9.283  0.5432  0.1582 -0.5997
   21CHL1   C24 1542   5.298   5.399   9.084 -0.4914  0.4064 -0.3243
   21CHL1  H24A 1543   5.393   5.404   9.026 -0.0214  0.0436  0.4015
   21CHL1  H24B 1544   5.235   5.325   9.030 -1.4487  0.8791  0.1337
   21CHL1   C25 1545   5.231   5.539   9.072  0.2049  0.1999 -0.3465
   21CHL1   H25 1546   5.312   5.605   9.109  0.8955 -0.7658 -0.1043
   21CHL1   C26 1547   5.198   5.580   8.922 -0.2462  0.0034  0.8341
   21CHL1  H26A 1548   5.282   5.548   8.857 -0.2596  1.4846  0.0452
   21CHL1  H26B 1549   5.115   5.517   8.882  0.0766 -0.2632  0.5842
   21CHL1  H26C 1550   5.183   5.688   8.902 -2.8252 -0.6909 -1.8529
   21CHL1   C27 1551   5.111   5.555   9.170 -0.2083 -0.0887 -0.1809
   21CHL1  H27A 1552   5.046   5.470   9.143  0.1270  0.0469 -1.5149
   21CHL1  H27B 1553   5.139   5.554   9.277  2.8575  1.1021 -0.8595
   21CHL1  H27C 1554   5.063   5.653   9.150  1.7372  1.0240  0.3226
   22CHL1    C3 1555   5.301   5.928  10.407  0.6745  0.2374  0.9451
   22CHL1    H3 1556   5.396   5.898  10.359  0.3904 -1.2380  1.2591
   22CHL1    O3 1557   5.307   5.923  10.547 -0.0528  0.5365  0.0617
   22CHL1   H3' 1558   5.378   5.982  10.574  1.1706 -0.6102 -0.5187
   22CHL1    C4 1559   5.253   6.064  10.363  1.3101 -0.7350  0.6325
   22CHL1   H4A 1560   5.154   6.075  10.412  0.2596 -0.6982 -1.3864
   22CHL1   H4B 1561   5.316   6.145  10.406 -1.0046  1.0968  0.7308
   22CHL1    C5 1562   5.234   6.067  10.210  0.0474  0.7918 -0.2823
   22CHL1    C6 1563   5.297   6.153  10.131  0.4273 -0.3780  0.0471
   22CHL1    H6 1564   5.368   6.219  10.184 -0.0223 -1.1909  1.7088
   22CHL1    C7 1565   5.279   6.175   9.990 -0.4311  0.1961 -0.2597
   22CHL1   H7A 1566   5.262   6.282   9.967 -0.5435 -0.5138 -4.1995
   22CHL1   H7B 1567   5.367   6.135   9.935  0.1908 -1.0895  1.5613
   22CHL1    C8 1568   5.156   6.096   9.930 -0.2013 -0.3620  0.0441
   22CHL1    H8 1569   5.066   6.158   9.952  0.7890  1.5183 -0.9213
   22CHL1   C14 1570   5.161   6.081   9.782 -0.1677 -0.0925  0.7375
   22CHL1   H14 1571   5.256   6.029   9.758 -0.0808  0.3636  0.0585
   22CHL1   C15 1572   5.178   6.208   9.698  0.2703  0.8069  0.1819
   22CHL1  H15A 1573   5.122   6.295   9.737 -0.7485  0.3712 -0.2759
   22CHL1  H15B 1574   5.287   6.231   9.693  0.6797 -0.8806  0.6207
   22CHL1   C16 1575   5.128   6.166   9.557 -1.0761 -0.0177 -0.3321
   22CHL1  H16A 1576   5.034   6.225   9.545 -1.1346 -0.2972 -1.3599
   22CHL1  H16B 1577   5.201   6.194   9.478 -0.1522  0.6265  0.7095
   22CHL1   C17 1578   5.089   6.018   9.565 -0.4656 -0.1540 -0.4571
   22CHL1   H17 1579   5.176   5.951   9.548 -0.8710 -1.0146  0.7487
   22CHL1   C13 1580   5.055   6.000   9.716  0.3193  0.1673  0.8817
   22CHL1   C18 1581   4.917   6.069   9.747 -0.1961 -0.1319 -0.3361
   22CHL1  H18A 1582   4.842   6.016   9.684  0.5834 -1.1716 -0.4100
   22CHL1  H18B 1583   4.885   6.051   9.852 -0.5656  0.7746 -0.2842
   22CHL1  H18C 1584   4.921   6.180   9.740  0.4939  0.0507  1.9369
   22CHL1   C12 1585   5.059   5.859   9.767  0.0786 -0.6988 -0.3000
   22CHL1  H12A 1586   4.964   5.810   9.736 -0.0771  1.2138 -3.2435
   22CHL1  H12B 1587   5.153   5.807   9.735 -1.7362 -2.1176 -3.9329
   22CHL1   C11 1588   5.053   5.860   9.925 -0.3422  0.5277 -0.0720
   22CHL1  H11A 1589   4.953   5.898   9.954 -1.0826  0.4383 -2.3304
   22CHL1  H11B 1590   5.083   5.759   9.961  1.6497  0.6339 -1.2785
   22CHL1    C9 1591   5.154   5.957   9.998 -0.3861  0.3454  0.6724
   22CHL1    H9 1592   5.255   5.912   9.984  0.7551  1.7270  3.6476
   22CHL1   C10 1593   5.135   5.963  10.153 -0.2366 -0.4194  0.2852
   22CHL1   C19 1594   4.987   5.993  10.194 -0.1991 -0.5910 -0.0859
   22CHL1  H19A 1595   4.929   5.898  10.183 -0.7190 -0.4498  1.2547
   22CHL1  H19B 1596   4.989   6.024  10.301  0.1623  2.1240 -0.8226
   22CHL1  H19C 1597   4.946   6.074  10.131  1.8451  0.2114 -0.4675
   22CHL1    C1 1598   5.181   5.822  10.211 -0.3289 -0.3598 -0.4734
   22CHL1   H1A 1599   5.103   5.753  10.172 -1.0307  0.0030  0.2590
   22CHL1   H1B 1600   5.279   5.804  10.163 -0.9480 -1.4541 -1.3643
   22CHL1    C2 1601   5.199   5.822  10.364 -0.4535  0.6026  0.5592
   22CHL1   H2A 1602   5.236   5.723  10.397 -0.3298  0.3398 -0.3412
   22CHL1   H2B 1603   5.106   5.838  10.422 -3.2144 -4.0648 -1.9777
   22CHL1   C20 1604   4.990   5.968   9.452 -0.6953  0.1274 -0.2644
   22CHL1   H20 1605   4.900   6.033   9.455  0.4075  1.7185 -0.0837
   22CHL1   C21 1606   4.959   5.818   9.463 -0.4694  0.2095 -0.7525
   22CHL1  H21A 1607   4.882   5.798   9.385 -1.2809  0.2911 -0.0011
   22CHL1  H21B 1608   4.897   5.793   9.552 -1.6931  1.7026 -1.1325
   22CHL1  H21C 1609   5.048   5.752   9.464 -0.6786 -0.1197  1.6442
   22CHL1   C22 1610   5.044   5.999   9.312 -0.2159  0.3836  0.3869
   22CHL1  H22A 1611   5.144   5.954   9.294 -1.5707 -2.2168 -1.0957
   22CHL1  H22B 1612   4.980   5.932   9.251  0.8539 -1.4949  1.2507
   22CHL1   C23 1613   5.026   6.139   9.262  0.3620  0.1204 -0.5983
   22CHL1  H23A 1614   4.934   6.180   9.309 -0.2333 -1.0427 -0.7249
   22CHL1  H23B 1615   5.113   6.203   9.290  1.1227 -0.3923 -1.7624
   22CHL1   C24 1616   5.008   6.155   9.111  0.4289  0.8202 -0.1081
   22CHL1  H24A 1617   5.013   6.261   9.080 -0.6208  0.3158 -2.1795
   22CHL1  H24B 1618   5.103   6.112   9.073  0.0512 -2.3242  2.1064
   22CHL1   C25 1619   4.877   6.096   9.046  0.3842 -0.1671 -0.4780
   22CHL1   H25 1620   4.876   5.985   9.054 -0.5285 -0.0969  0.5578
   22CHL1   C26 1621   4.761   6.149   9.127 -0.1644 -0.5790 -0.8018
   22CHL1  H26A 1622   4.765   6.260   9.129  1.5672 -0.5906  2.1205
   22CHL1  H26B 1623   4.656   6.126   9.100 -1.7792  3.8961  0.7577
   22CHL1  H26C 1624   4.760   6.116   9.233  0.3518  0.5906 -0.4191
   22CHL1   C27 1625   4.875   6.140   8.905  0.0789  0.0092  0.0232
   22CHL1  H27A 1626   4.783   6.111   8.852 -0.1628  1.0849 -0.1775
   22CHL1  H27B 1627   4.880   6.251   8.905 -0.5610  0.0415  0.2119
   22CHL1  H27C 1628   4.963   6.099   8.851  0.2831  0.0332  0.3339
   23CHL1    C3 1629   2.918   6.266  10.279 -0.8373 -0.4250 -0.9086
   23CHL1    H3 1630   3.012   6.214  10.247 -0.1329  1.2456 -1.6739
   23CHL1    O3 1631   2.928   6.289  10.418  0.3460 -0.7819 -0.3006
   23CHL1   H3' 1632   2.919   6.384  10.430  0.1520 -0.3948 -2.8940
   23CHL1    C4 1633   2.914   6.393  10.210  0.3567  0.2065 -0.3066
   23CHL1   H4A 1634   2.820   6.445  10.240  0.3298 -0.5021  0.9258
   23CHL1   H4B 1635   2.994   6.465  10.238  0.1180  0.6715 -0.8099
   23CHL1    C5 1636   2.901   6.377  10.054  0.6869 -0.5077 -0.4721
   23CHL1    C6 1637   2.985   6.440   9.967  1.2201 -0.3780  0.0951
   23CHL1    H6 1638   3.062   6.511   9.998  0.9748 -0.0303 -0.0873
   23CHL1    C7 1639   2.982   6.419   9.821 -0.5389  0.2518  0.4629
   23CHL1   H7A 1640   2.997   6.515   9.768 -2.1770  0.2045 -0.1374
   23CHL1   H7B 1641   3.065   6.349   9.796 -1.5039 -1.6416  2.2073
   23CHL1    C8 1642   2.864   6.350   9.764  0.0915  0.6415 -0.3667
   23CHL1    H8 1643   2.783   6.425   9.755 -0.2002  0.2500 -1.0643
   23CHL1   C14 1644   2.878   6.295   9.620 -0.4530  0.2405  0.2214
   23CHL1   H14 1645   2.947   6.209   9.627 -0.6575  0.1809  2.2668
   23CHL1   C15 1646   2.953   6.381   9.520  0.3172  0.0926 -0.1642
   23CHL1  H15A 1647   2.908   6.482   9.526 -0.3954 -0.1226 -1.5223
   23CHL1  H15B 1648   3.063   6.388   9.537  0.3544 -2.7851  1.3367
   23CHL1   C16 1649   2.911   6.325   9.383 -0.1587 -0.6930 -0.6438
   23CHL1  H16A 1650   2.847   6.401   9.334  0.7294  1.5234  1.4389
   23CHL1  H16B 1651   2.993   6.294   9.315 -0.2553  0.5530 -1.3530
   23CHL1   C17 1652   2.818   6.202   9.416  0.3327 -0.6818  1.3429
   23CHL1   H17 1653   2.875   6.109   9.433 -1.2426 -1.8700  0.4133
   23CHL1   C13 1654   2.754   6.243   9.551 -0.0268 -0.2092 -0.3018
   23CHL1   C18 1655   2.657   6.355   9.523 -0.0977  0.3965  0.5741
   23CHL1  H18A 1656   2.567   6.310   9.476  0.1797  0.7020 -0.2782
   23CHL1  H18B 1657   2.623   6.416   9.609 -1.0537 -0.1683  0.6102
   23CHL1  H18C 1658   2.704   6.430   9.456  0.7179 -1.3717 -0.9360
   23CHL1   C12 1659   2.697   6.130   9.636  0.4831  0.2904  0.0971
   23CHL1  H12A 1660   2.603   6.085   9.598  1.2424 -1.0673 -0.2535
   23CHL1  H12B 1661   2.764   6.044   9.614  1.3143  0.6507  1.1544
   23CHL1   C11 1662   2.684   6.161   9.787  0.1414 -0.3390 -0.3726
   23CHL1  H11A 1663   2.591   6.219   9.807  1.9664  2.0897  1.6045
   23CHL1  H11B 1664   2.669   6.067   9.845  1.5307  0.0384  0.6455
   23CHL1    C9 1665   2.806   6.234   9.860 -0.3013  0.0092  0.0251
   23CHL1    H9 1666   2.884   6.156   9.872 -1.6996 -1.3228  0.6955
   23CHL1   C10 1667   2.785   6.280  10.009  0.0284 -0.6560  1.3853
   23CHL1   C19 1668   2.651   6.359  10.019 -0.3535 -1.1091 -0.5109
   23CHL1  H19A 1669   2.573   6.280  10.022 -1.4212 -0.0745 -0.0220
   23CHL1  H19B 1670   2.643   6.402  10.122  0.5960 -3.5156  0.6407
   23CHL1  H19C 1671   2.635   6.430   9.935  1.6360 -1.3247 -1.1114
   23CHL1    C1 1672   2.780   6.154  10.106 -0.1109 -0.7203 -1.0272
   23CHL1   H1A 1673   2.694   6.096  10.066  0.1991 -0.3776 -2.2603
   23CHL1   H1B 1674   2.879   6.106  10.090  0.6270 -0.0931  1.2525
   23CHL1    C2 1675   2.796   6.189  10.251  0.2443  0.4821 -0.1474
   23CHL1   H2A 1676   2.797   6.089  10.299 -2.2112  0.6869  0.4524
   23CHL1   H2B 1677   2.703   6.243  10.279  0.7716  2.0933 -1.3763
   23CHL1   C20 1678   2.730   6.178   9.292  0.4092 -0.1548  0.2131
   23CHL1   H20 1679   2.675   6.269   9.259 -0.6132 -0.6473  0.5412
   23CHL1   C21 1680   2.633   6.067   9.329  0.2962  0.2486  0.2293
   23CHL1  H21A 1681   2.688   5.989   9.386 -1.7857 -2.0720 -0.7153
   23CHL1  H21B 1682   2.576   6.010   9.253 -1.5419  0.9886  0.9888
   23CHL1  H21C 1683   2.551   6.102   9.396  0.2717  0.3983  0.1211
   23CHL1   C22 1684   2.815   6.139   9.171  0.1180  0.7528  0.1019
   23CHL1  H22A 1685   2.880   6.220   9.131 -0.8158  0.3707 -2.3426
   23CHL1  H22B 1686   2.870   6.044   9.192  0.6815  0.8596 -0.8242
   23CHL1   C23 1687   2.719   6.104   9.053 -0.2400 -0.6938 -0.0070
   23CHL1  H23A 1688   2.689   5.997   9.059 -1.6797 -0.4118 -1.3623
   23CHL1  H23B 1689   2.624   6.161   9.065 -0.9514 -1.1498 -2.8199
   23CHL1   C24 1690   2.782   6.141   8.914 -0.3314  0.0357  0.0686
   23CHL1  H24A 1691   2.814   6.247   8.926  0.6992 -0.2625  0.0931
   23CHL1  H24B 1692   2.878   6.085   8.902 -0.8414 -0.7941 -0.2492
   23CHL1   C25 1693   2.712   6.116   8.787 -0.4662 -0.2407 -0.3612
   23CHL1   H25 1694   2.640   6.200   8.771 -1.1988 -1.1668 -2.3219
   23CHL1   C26 1695   2.818   6.120   8.676 -0.0589 -0.1952 -0.0065
   23CHL1  H26A 1696   2.914   6.174   8.696  0.0127  0.3306 -1.5727
   23CHL1  H26B 1697   2.839   6.012   8.660  0.9162  0.0016 -0.1745
   23CHL1  H26C 1698   2.785   6.162   8.578 -0.0476  0.3821  0.2304
   23CHL1   C27 1699   2.640   5.981   8.787  0.4359 -0.4007 -0.3240
   23CHL1  H27A 1700   2.692   5.892   8.829  1.3877 -2.0588 -4.5276
   23CHL1  H27B 1701   2.543   5.991   8.840  0.1864 -0.5055 -0.7521
   23CHL1  H27C 1702   2.615   5.955   8.682  0.1775  2.1146 -0.9393
   24CHL1    C3 1703   3.177   0.548  10.295  0.3476 -0.9166 -0.5809
   24CHL1    H3 1704   3.224   0.451  10.321 -0.1692 -1.2339 -0.8239
   24CHL1    O3 1705   3.118   0.609  10.414  0.1081  0.3258  0.2385
   24CHL1   H3' 1706   3.104   0.698  10.382 -0.1522  0.2341  0.1005
   24CHL1    C4 1707   3.291   0.640  10.245  0.1673  0.1040  0.5002
   24CHL1   H4A 1708   3.255   0.743  10.225  0.1230  0.3021  1.5564
   24CHL1   H4B 1709   3.353   0.649  10.336  0.7105 -2.5582  0.4883
   24CHL1    C5 1710   3.358   0.585  10.122 -0.9018 -0.2125  0.3269
   24CHL1    C6 1711   3.492   0.557  10.108  0.2703 -0.7046 -0.3182
   24CHL1    H6 1712   3.566   0.562  10.189 -1.6081  0.5989  1.4232
   24CHL1    C7 1713   3.544   0.503   9.978 -0.0023  0.4467 -0.0928
   24CHL1   H7A 1714   3.638   0.552   9.946  0.0992 -0.1239 -0.6807
   24CHL1   H7B 1715   3.559   0.395   9.999  0.2995  0.8261  1.8554
   24CHL1    C8 1716   3.447   0.524   9.860  0.3509  0.0144 -0.2217
   24CHL1    H8 1717   3.458   0.631   9.833  1.5741 -0.4356 -1.6838
   24CHL1   C14 1718   3.493   0.440   9.744 -0.3060  0.4848  0.5471
   24CHL1   H14 1719   3.498   0.334   9.776  1.3459  0.2494 -0.4043
   24CHL1   C15 1720   3.632   0.461   9.679  0.2607 -0.1439 -0.5267
   24CHL1  H15A 1721   3.650   0.570   9.686  0.5459 -0.2684  1.6124
   24CHL1  H15B 1722   3.703   0.411   9.750  1.3694  1.1028 -0.7104
   24CHL1   C16 1723   3.627   0.397   9.540  1.0567  0.2984 -0.0462
   24CHL1  H16A 1724   3.656   0.471   9.463  2.0411  1.0400  0.9871
   24CHL1  H16B 1725   3.694   0.309   9.530 -2.5292 -2.3191 -4.5757
   24CHL1   C17 1726   3.484   0.343   9.510  0.0054 -0.6160  0.6671
   24CHL1   H17 1727   3.479   0.238   9.545 -0.9593 -1.0760 -0.7883
   24CHL1   C13 1728   3.397   0.423   9.619 -0.0871 -0.6628 -0.9168
   24CHL1   C18 1729   3.369   0.562   9.569  0.3462  0.1859 -0.0330
   24CHL1  H18A 1730   3.287   0.564   9.494  3.6777  0.8885 -4.0632
   24CHL1  H18B 1731   3.340   0.628   9.653  1.6241 -0.7606  1.2065
   24CHL1  H18C 1732   3.465   0.600   9.526 -0.4254  0.5608 -1.4675
   24CHL1   C12 1733   3.271   0.358   9.674  0.4636 -0.1785  0.3381
   24CHL1  H12A 1734   3.188   0.353   9.600  0.4602  2.5160  0.0573
   24CHL1  H12B 1735   3.293   0.264   9.730 -4.4883 -2.5375 -1.0750
   24CHL1   C11 1736   3.207   0.446   9.785 -0.5817  0.3058  0.3889
   24CHL1  H11A 1737   3.170   0.541   9.741  0.5259  0.7753  0.4445
   24CHL1  H11B 1738   3.116   0.390   9.815 -1.2031  0.5664 -0.9349
   24CHL1    C9 1739   3.304   0.476   9.900 -0.2555  0.2107  0.4032
   24CHL1    H9 1740   3.323   0.375   9.941  2.7575  1.0117  1.2329
   24CHL1   C10 1741   3.249   0.558  10.011 -0.3421 -0.0577 -0.1474
   24CHL1   C19 1742   3.184   0.691   9.956  1.0209 -0.1527  0.1720
   24CHL1  H19A 1743   3.135   0.764  10.024 -3.0409  0.4904 -2.9912
   24CHL1  H19B 1744   3.251   0.759   9.898 -0.9920  2.8965  1.1291
   24CHL1  H19C 1745   3.104   0.658   9.885  0.8787  2.6740 -1.1314
   24CHL1    C1 1746   3.135   0.473  10.076  0.2107  0.1409  0.0202
   24CHL1   H1A 1747   3.056   0.458  10.000  0.2863  0.1671 -0.0649
   24CHL1   H1B 1748   3.183   0.376  10.099  1.0293 -0.2477 -2.8455
   24CHL1    C2 1749   3.071   0.536  10.197 -0.2178  0.8271  0.3229
   24CHL1   H2A 1750   2.998   0.456  10.225  1.4539 -0.8428  0.0907
   24CHL1   H2B 1751   3.026   0.636  10.177 -1.0994  0.7525  1.7777
   24CHL1   C20 1752   3.446   0.346   9.359 -0.7799  0.4118  0.2263
   24CHL1   H20 1753   3.467   0.443   9.309 -0.3052 -0.6908 -1.8203
   24CHL1   C21 1754   3.294   0.307   9.343 -0.2033 -0.5080  1.0312
   24CHL1  H21A 1755   3.217   0.386   9.359  0.2767  0.4511 -0.9864
   24CHL1  H21B 1756   3.266   0.220   9.407 -2.9153 -1.3905 -1.1222
   24CHL1  H21C 1757   3.280   0.277   9.236  4.4083  0.6305 -0.0961
   24CHL1   C22 1758   3.524   0.241   9.275 -0.0864  0.3597  0.1202
   24CHL1  H22A 1759   3.624   0.240   9.325 -0.0207  1.0924  0.0229
   24CHL1  H22B 1760   3.492   0.138   9.301  1.6036 -0.0569  0.7365
   24CHL1   C23 1761   3.523   0.271   9.125  0.7974  0.7857  0.6113
   24CHL1  H23A 1762   3.418   0.255   9.093  1.4189 -0.6517 -0.8033
   24CHL1  H23B 1763   3.553   0.378   9.115 -0.4779  1.0710 -0.5151
   24CHL1   C24 1764   3.600   0.169   9.048 -0.3695 -0.2639 -0.2687
   24CHL1  H24A 1765   3.708   0.194   9.053 -0.3743  0.4352 -2.5498
   24CHL1  H24B 1766   3.590   0.066   9.090 -1.1844 -0.6707 -1.4149
   24CHL1   C25 1767   3.556   0.171   8.905 -0.1514  0.4596  0.6579
   24CHL1   H25 1768   3.447   0.161   8.889  0.1718 -0.5572 -1.1472
   24CHL1   C26 1769   3.609   0.306   8.845  0.0133  1.0540  0.4366
   24CHL1  H26A 1770   3.569   0.393   8.902  0.4617 -0.8818  3.9596
   24CHL1  H26B 1771   3.720   0.305   8.851  0.4150 -2.8968 -3.2611
   24CHL1  H26C 1772   3.583   0.319   8.738 -1.7001 -1.7286  0.4185
   24CHL1   C27 1773   3.617   0.044   8.824  0.2343 -0.4794 -0.1676
   24CHL1  H27A 1774   3.728   0.046   8.818  0.1831  0.1652 -1.5396
   24CHL1  H27B 1775   3.582  -0.052   8.867 -1.2291 -0.2041 -0.7113
   24CHL1  H27C 1776   3.583   0.051   8.718 -1.4828  0.4134  0.4104
   25CHL1    C3 1777   3.531   1.527  10.432 -0.1597 -0.1410  0.3449
   25CHL1    H3 1778   3.577   1.628  10.441  0.7807 -0.2211 -2.4396
   25CHL1    O3 1779   3.501   1.479  10.563  0.0441  0.1396 -0.4889
   25CHL1   H3' 1780   3.480   1.386  10.556  2.3074 -0.7166  2.2501
   25CHL1    C4 1781   3.396   1.527  10.356 -0.0672  0.8490 -0.4597
   25CHL1   H4A 1782   3.342   1.430  10.365 -2.6365  2.0252 -2.0534
   25CHL1   H4B 1783   3.322   1.597  10.402 -1.0058 -0.2148 -0.2979
   25CHL1    C5 1784   3.414   1.570  10.211 -0.0290 -0.4440 -0.3450
   25CHL1    C6 1785   3.358   1.688  10.164  0.0996  0.1076  0.1453
   25CHL1    H6 1786   3.315   1.754  10.241  0.5644  0.3295  0.2243
   25CHL1    C7 1787   3.383   1.737  10.026 -0.7386  0.5514 -0.5301
   25CHL1   H7A 1788   3.302   1.795   9.977  0.1108 -0.0448 -2.8182
   25CHL1   H7B 1789   3.466   1.811  10.027 -1.0052  0.8507 -0.6800
   25CHL1    C8 1790   3.429   1.622   9.931  0.6221  0.1735  0.4642
   25CHL1    H8 1791   3.342   1.552   9.925  2.2345 -2.1702  2.4473
   25CHL1   C14 1792   3.471   1.668   9.789  0.3724  0.7116 -0.9632
   25CHL1   H14 1793   3.565   1.724   9.809  0.2140  1.3271 -1.8753
   25CHL1   C15 1794   3.377   1.771   9.717 -0.5365  0.9565 -0.2164
   25CHL1  H15A 1795   3.274   1.736   9.740  0.2097 -0.9596  0.4653
   25CHL1  H15B 1796   3.377   1.878   9.746 -1.2871  0.7237  0.6893
   25CHL1   C16 1797   3.422   1.754   9.569 -0.2500 -0.6019 -0.0373
   25CHL1  H16A 1798   3.334   1.726   9.508 -1.3486  0.3073  1.0838
   25CHL1  H16B 1799   3.449   1.847   9.514 -1.5168 -0.2237 -0.0468
   25CHL1   C17 1800   3.539   1.650   9.555 -0.0605  0.2343  0.2633
   25CHL1   H17 1801   3.637   1.700   9.572 -0.1243 -0.0892  1.6333
   25CHL1   C13 1802   3.515   1.563   9.690  0.0129  0.2550  0.4479
   25CHL1   C18 1803   3.394   1.466   9.665 -0.2747  0.1060  0.2275
   25CHL1  H18A 1804   3.315   1.515   9.604 -0.0138 -0.3752 -0.5157
   25CHL1  H18B 1805   3.438   1.379   9.613  1.1517  1.0715 -0.2442
   25CHL1  H18C 1806   3.355   1.431   9.763  1.1296 -0.9633  0.4319
   25CHL1   C12 1807   3.636   1.498   9.757  1.1421  0.1632  0.0931
   25CHL1  H12A 1808   3.662   1.418   9.685 -2.5831  0.0892 -1.3861
   25CHL1  H12B 1809   3.720   1.570   9.750 -0.1289  1.6701 -0.3897
   25CHL1   C11 1810   3.597   1.438   9.896 -0.1695  0.2841  0.6866
   25CHL1  H11A 1811   3.522   1.361   9.865 -0.7807  1.2681 -0.3567
   25CHL1  H11B 1812   3.685   1.393   9.946 -0.2378  0.3177  0.8376
   25CHL1    C9 1813   3.542   1.536   9.995  0.2288  0.3450 -0.1187
   25CHL1    H9 1814   3.624   1.610  10.009 -1.8863  2.5791  1.2664
   25CHL1   C10 1815   3.510   1.489  10.135 -0.0051 -0.6545  0.8052
   25CHL1   C19 1816   3.437   1.350  10.115  0.6268  0.5018  0.0052
   25CHL1  H19A 1817   3.498   1.281  10.051 -0.7543  1.4536 -2.4856
   25CHL1  H19B 1818   3.433   1.291  10.209 -0.0458  0.0571 -0.2972
   25CHL1  H19C 1819   3.337   1.363  10.070  0.4691  0.3638  0.3121
   25CHL1    C1 1820   3.648   1.465  10.213 -0.2889  0.2303 -0.3291
   25CHL1   H1A 1821   3.703   1.383  10.161 -0.1785 -1.2631  2.0101
   25CHL1   H1B 1822   3.718   1.549  10.196  1.1662 -0.4416  1.9553
   25CHL1    C2 1823   3.629   1.434  10.366 -0.3625 -0.0798 -0.2903
   25CHL1   H2A 1824   3.723   1.437  10.425 -0.2479  3.7077 -0.4306
   25CHL1   H2B 1825   3.597   1.328  10.377 -0.6567 -0.0697 -1.0130
   25CHL1   C20 1826   3.541   1.584   9.413 -0.1295 -0.3864 -0.2163
   25CHL1   H20 1827   3.452   1.519   9.400 -0.5666  0.4956 -1.8449
   25CHL1   C21 1828   3.663   1.490   9.412 -0.8415 -0.9150 -0.6086
   25CHL1  H21A 1829   3.656   1.406   9.484  2.5258  1.3959  2.8403
   25CHL1  H21B 1830   3.749   1.558   9.429 -1.4414 -0.2477 -0.1544
   25CHL1  H21C 1831   3.694   1.463   9.309 -0.3047  0.5473 -0.8571
   25CHL1   C22 1832   3.549   1.689   9.297 -0.5452  0.5449 -0.0554
   25CHL1  H22A 1833   3.579   1.791   9.332 -4.3134  1.7097  0.2562
   25CHL1  H22B 1834   3.628   1.654   9.228 -2.4746  0.2635 -2.2524
   25CHL1   C23 1835   3.417   1.689   9.216 -0.1008  0.0747  1.4782
   25CHL1  H23A 1836   3.406   1.594   9.160 -0.0768  1.3741 -0.8371
   25CHL1  H23B 1837   3.333   1.695   9.288 -0.0410  2.4615  1.4164
   25CHL1   C24 1838   3.395   1.801   9.108  0.5705 -0.0514 -0.0025
   25CHL1  H24A 1839   3.469   1.805   9.026 -0.9450  0.5085 -1.3944
   25CHL1  H24B 1840   3.294   1.798   9.062  0.2173  3.6725  0.2596
   25CHL1   C25 1841   3.390   1.947   9.169  0.4183 -0.2711  0.5293
   25CHL1   H25 1842   3.475   1.961   9.239  2.1266  1.5847 -1.7643
   25CHL1   C26 1843   3.390   2.056   9.056 -0.0896  0.4713 -0.3218
   25CHL1  H26A 1844   3.378   2.162   9.088 -2.0222  0.5638 -1.2707
   25CHL1  H26B 1845   3.482   2.049   8.995  0.6424 -0.2609  0.8216
   25CHL1  H26C 1846   3.309   2.046   8.982 -0.6218  1.9311  0.0221
   25CHL1   C27 1847   3.259   1.961   9.252 -0.0576  0.4258  0.1094
   25CHL1  H27A 1848   3.176   1.933   9.184  0.7953 -1.5968 -0.1559
   25CHL1  H27B 1849   3.256   1.886   9.334  0.7431 -0.6147 -0.7859
   25CHL1  H27C 1850   3.238   2.058   9.304 -0.9916  0.9569 -1.2142
   26CHL1    C3 1851   4.764   5.519  10.420 -0.2009 -0.3227  0.2013
   26CHL1    H3 1852   4.692   5.603  10.407 -2.0127 -1.1824  3.6368
   26CHL1    O3 1853   4.793   5.495  10.558  0.0742  0.1162  0.7577
   26CHL1   H3' 1854   4.707   5.517  10.596  0.2468  2.4939 -0.0559
   26CHL1    C4 1855   4.694   5.394  10.352 -0.1317  0.4617  0.0932
   26CHL1   H4A 1856   4.750   5.303  10.382 -1.8984 -1.0337 -0.9469
   26CHL1   H4B 1857   4.596   5.387  10.404 -0.5631  0.4368 -0.7200
   26CHL1    C5 1858   4.672   5.409  10.200 -0.8829  0.2715 -0.2201
   26CHL1    C6 1859   4.552   5.392  10.145 -0.8358  0.4359 -0.0135
   26CHL1    H6 1860   4.471   5.358  10.213 -0.4328  1.3382  0.9455
   26CHL1    C7 1861   4.538   5.395   9.998 -0.8980 -0.2351  0.7796
   26CHL1   H7A 1862   4.467   5.316   9.962 -0.5678  0.9669 -2.8586
   26CHL1   H7B 1863   4.494   5.491   9.963 -1.2197 -0.6552 -0.0176
   26CHL1    C8 1864   4.663   5.372   9.917 -0.1428  0.2672 -0.3947
   26CHL1    H8 1865   4.692   5.266   9.935 -2.1353 -0.0113  1.4856
   26CHL1   C14 1866   4.641   5.413   9.768  0.1564  0.4683  0.0950
   26CHL1   H14 1867   4.612   5.521   9.765 -2.2382 -0.0841  1.0164
   26CHL1   C15 1868   4.522   5.334   9.697  0.0910 -0.6408 -0.0354
   26CHL1  H15A 1869   4.519   5.229   9.732 -0.1666 -0.3184  0.9285
   26CHL1  H15B 1870   4.432   5.393   9.723  0.9276  0.2055  1.0322
   26CHL1   C16 1871   4.563   5.351   9.549  0.3978  0.1234 -0.0936
   26CHL1  H16A 1872   4.578   5.243   9.525  2.5025  0.6542 -1.3932
   26CHL1  H16B 1873   4.485   5.394   9.483  1.1971 -0.4978 -1.4836
   26CHL1   C17 1874   4.702   5.433   9.541  0.4229  0.1932 -0.2594
   26CHL1   H17 1875   4.671   5.540   9.545 -0.4791 -0.0579 -0.4913
   26CHL1   C13 1876   4.767   5.403   9.674  0.4584 -0.1318  0.4529
   26CHL1   C18 1877   4.834   5.271   9.675  0.1293  0.6111 -0.5768
   26CHL1  H18A 1878   4.925   5.275   9.611  1.4742 -2.4350  0.9160
   26CHL1  H18B 1879   4.862   5.228   9.773 -0.5143 -0.3391 -0.7910
   26CHL1  H18C 1880   4.763   5.199   9.628  1.4752 -1.3800  0.2717
   26CHL1   C12 1881   4.861   5.513   9.726  0.4823  0.0688 -0.4960
   26CHL1  H12A 1882   4.950   5.514   9.660  0.4512 -1.5199 -0.6039
   26CHL1  H12B 1883   4.801   5.606   9.729  1.3323  0.6064  0.4463
   26CHL1   C11 1884   4.899   5.493   9.880  0.4568  0.4506  0.1620
   26CHL1  H11A 1885   4.955   5.398   9.870  1.7566  1.2351 -0.3281
   26CHL1  H11B 1886   4.976   5.563   9.920  1.0406 -0.6662  1.0592
   26CHL1    C9 1887   4.775   5.465   9.971  0.0881 -0.2271  0.0102
   26CHL1    H9 1888   4.727   5.566   9.966 -0.4997 -0.4645  0.7376
   26CHL1   C10 1889   4.805   5.443  10.122  0.4855  0.2013 -0.0810
   26CHL1   C19 1890   4.906   5.323  10.139  0.6975 -0.7264  0.4612
   26CHL1  H19A 1891   4.876   5.246  10.064  0.9980  0.5255 -1.0112
   26CHL1  H19B 1892   5.005   5.363  10.109  0.3782  0.5715  1.0374
   26CHL1  H19C 1893   4.911   5.282  10.241  0.7341 -0.4338  0.5791
   26CHL1    C1 1894   4.868   5.564  10.190 -0.2257 -0.1708  0.1463
   26CHL1   H1A 1895   4.967   5.581  10.143 -0.9227 -3.2910 -2.8100
   26CHL1   H1B 1896   4.803   5.652  10.171 -0.2787  0.3406  2.3756
   26CHL1    C2 1897   4.892   5.551  10.340 -0.4448 -0.7504 -0.6798
   26CHL1   H2A 1898   4.934   5.648  10.374 -1.7477  0.1322 -1.5034
   26CHL1   H2B 1899   4.958   5.465  10.367 -0.9160 -0.6225  0.9398
   26CHL1   C20 1900   4.776   5.417   9.404  0.0953  0.3829 -0.1022
   26CHL1   H20 1901   4.884   5.445   9.408 -0.2771  1.9050 -0.0665
   26CHL1   C21 1902   4.705   5.517   9.303 -1.1039 -0.0576  0.3502
   26CHL1  H21A 1903   4.600   5.484   9.295 -0.9169 -0.9597  1.3864
   26CHL1  H21B 1904   4.748   5.507   9.201  0.6106 -0.2471  1.0433
   26CHL1  H21C 1905   4.708   5.624   9.333  3.5495 -0.1363  0.8905
   26CHL1   C22 1906   4.764   5.277   9.337 -0.9403  0.0473  0.4744
   26CHL1  H22A 1907   4.791   5.204   9.416  1.7429  1.5620  1.0700
   26CHL1  H22B 1908   4.657   5.266   9.308 -0.2583 -0.1626 -2.1642
   26CHL1   C23 1909   4.856   5.265   9.212  0.0964  0.1434  0.1240
   26CHL1  H23A 1910   4.835   5.329   9.124  0.3450  2.0829  1.4121
   26CHL1  H23B 1911   4.957   5.293   9.249  0.0155 -0.6484  0.9795
   26CHL1   C24 1912   4.873   5.119   9.168  0.0348 -0.1279  0.0934
   26CHL1  H24A 1913   4.920   5.065   9.252  1.6744 -1.3670 -1.5478
   26CHL1  H24B 1914   4.777   5.064   9.154 -0.5966  1.3618 -2.0562
   26CHL1   C25 1915   4.976   5.103   9.051 -0.1228  0.5127 -0.0542
   26CHL1   H25 1916   5.062   5.166   9.083  0.1179 -0.8880  2.3330
   26CHL1   C26 1917   5.022   4.955   9.044  0.0938  0.0494  0.5569
   26CHL1  H26A 1918   4.926   4.902   9.021  0.3542 -0.4611  0.6367
   26CHL1  H26B 1919   5.086   4.946   8.954 -2.6301  0.1764 -1.5454
   26CHL1  H26C 1920   5.052   4.913   9.142 -1.1690  3.8006  2.7171
   26CHL1   C27 1921   4.929   5.161   8.923  0.0475 -0.3494 -0.1590
   26CHL1  H27A 1922   4.830   5.119   8.896 -1.2984  1.0629  2.2649
   26CHL1  H27B 1923   4.921   5.271   8.930  0.1052 -0.4274  1.8605
   26CHL1  H27C 1924   4.996   5.139   8.837 -0.1794  2.8311 -1.2819
   27CHL1    C3 1925   4.822   2.047  10.410 -0.9625 -0.7340 -1.1150
   27CHL1    H3 1926   4.716   2.063  10.378 -1.1445 -0.7168 -0.5191
   27CHL1    O3 1927   4.810   2.018  10.548  0.0831 -0.3910  0.1579
   27CHL1   H3' 1928   4.894   1.985  10.579  0.2610 -0.0143  0.0902
   27CHL1    C4 1929   4.866   1.919  10.339 -0.3232 -0.1488 -0.6044
   27CHL1   H4A 1930   4.967   1.895  10.379 -0.5134  0.6121  0.3940
   27CHL1   H4B 1931   4.790   1.843  10.368 -0.4998 -0.3848 -1.6689
   27CHL1    C5 1932   4.871   1.946  10.191  0.1769 -0.2962  0.1961
   27CHL1    C6 1933   4.784   1.888  10.099 -0.3549  0.0748  0.1108
   27CHL1    H6 1934   4.709   1.812  10.125 -1.3867  0.9588 -0.2007
   27CHL1    C7 1935   4.796   1.918   9.953  0.0567 -0.1323 -0.1452
   27CHL1   H7A 1936   4.773   1.829   9.891 -0.3785  0.4851 -0.8908
   27CHL1   H7B 1937   4.720   1.996   9.931  0.1345  0.7672  2.4334
   27CHL1    C8 1938   4.936   1.982   9.905  0.2440 -0.0103  0.4150
   27CHL1    H8 1939   5.009   1.899   9.912  0.8694  0.4979 -0.0116
   27CHL1   C14 1940   4.917   2.039   9.764 -0.1243  0.1999 -0.0013
   27CHL1   H14 1941   4.833   2.111   9.775 -0.7524 -0.7715  1.9251
   27CHL1   C15 1942   4.865   1.951   9.645 -0.3324  0.7487 -0.3080
   27CHL1  H15A 1943   4.907   1.849   9.661 -1.4267  0.3365 -0.0151
   27CHL1  H15B 1944   4.755   1.945   9.658 -0.2935 -0.6983 -0.4358
   27CHL1   C16 1945   4.925   2.012   9.521 -0.5970 -0.7552 -0.0575
   27CHL1  H16A 1946   5.006   1.942   9.489 -0.8774 -1.4853  0.7704
   27CHL1  H16B 1947   4.849   2.034   9.443  1.4694 -0.5550 -2.1375
   27CHL1   C17 1948   5.001   2.139   9.563 -0.2643  0.2437  0.0117
   27CHL1   H17 1949   4.920   2.214   9.576 -0.8919 -0.0400 -1.9305
   27CHL1   C13 1950   5.041   2.112   9.713  0.2910 -0.9121 -0.0887
   27CHL1   C18 1951   5.161   2.020   9.711  0.0758 -0.3863  0.5451
   27CHL1  H18A 1952   5.195   2.001   9.815  0.1981 -0.4295  0.4961
   27CHL1  H18B 1953   5.135   1.923   9.663 -4.3804  0.8430 -0.0031
   27CHL1  H18C 1954   5.247   2.077   9.672 -0.0452 -0.0769  0.7255
   27CHL1   C12 1955   5.060   2.232   9.809  0.8818  0.3827 -0.5719
   27CHL1  H12A 1956   5.145   2.301   9.787 -0.3947  1.6016 -2.0044
   27CHL1  H12B 1957   4.976   2.304   9.799 -1.4352 -1.9589  1.0809
   27CHL1   C11 1958   5.075   2.190   9.956 -0.0895  0.3463 -0.0603
   27CHL1  H11A 1959   5.174   2.141   9.964 -0.1884  0.0116 -0.7642
   27CHL1  H11B 1960   5.085   2.273  10.029  0.1405  0.6316 -0.4110
   27CHL1    C9 1961   4.963   2.096  10.006 -1.1725 -0.1668  0.2829
   27CHL1    H9 1962   4.866   2.151  10.001 -2.1065 -1.8262 -1.5645
   27CHL1   C10 1963   4.974   2.059  10.154  0.8616  0.7035  0.3630
   27CHL1   C19 1964   5.113   1.997  10.177  0.6131 -0.1468  0.5857
   27CHL1  H19A 1965   5.117   1.956  10.280 -0.1635  0.4815  0.8769
   27CHL1  H19B 1966   5.147   1.916  10.108 -2.2963  0.3259 -1.5837
   27CHL1  H19C 1967   5.183   2.084  10.182  2.0642 -1.1817 -0.4760
   27CHL1    C1 1968   4.940   2.183  10.243 -0.2376 -0.4384  0.7648
   27CHL1   H1A 1969   5.029   2.248  10.230 -0.0233 -0.8614  0.0344
   27CHL1   H1B 1970   4.853   2.239  10.202 -1.1012 -0.3001  2.6858
   27CHL1    C2 1971   4.924   2.167  10.389  0.1855  0.2172 -0.6167
   27CHL1   H2A 1972   4.867   2.249  10.438 -2.4396 -2.4864  1.1907
   27CHL1   H2B 1973   5.015   2.137  10.445 -0.3454 -1.7300 -0.7376
   27CHL1   C20 1974   5.108   2.191   9.466  0.0846  0.5643 -0.4528
   27CHL1   H20 1975   5.187   2.113   9.455 -2.3003 -1.9590 -0.6851
   27CHL1   C21 1976   5.175   2.314   9.530  0.3472 -0.1415  0.3595
   27CHL1  H21A 1977   5.101   2.383   9.575 -1.5809 -2.1796  0.4750
   27CHL1  H21B 1978   5.227   2.362   9.444  0.5928 -1.9146 -0.5334
   27CHL1  H21C 1979   5.257   2.282   9.598  2.2992  0.2885 -1.6640
   27CHL1   C22 1980   5.067   2.218   9.325  0.0133  0.1386  0.4433
   27CHL1  H22A 1981   5.001   2.137   9.287 -2.1530  2.4920 -1.1894
   27CHL1  H22B 1982   5.019   2.318   9.320  2.3472  1.5117  3.0138
   27CHL1   C23 1983   5.177   2.219   9.217 -0.2248 -0.6278  0.0753
   27CHL1  H23A 1984   5.243   2.306   9.236 -0.1547 -0.4836 -0.8031
   27CHL1  H23B 1985   5.230   2.121   9.208  0.7138 -0.0024 -1.5582
   27CHL1   C24 1986   5.134   2.243   9.069 -0.0447  0.3151 -0.7448
   27CHL1  H24A 1987   5.060   2.167   9.036 -0.3676 -0.5127  1.7353
   27CHL1  H24B 1988   5.073   2.336   9.067  1.4958  1.5946  3.1091
   27CHL1   C25 1989   5.238   2.246   8.958  0.0157 -0.3460 -0.3132
   27CHL1   H25 1990   5.298   2.153   8.957  2.9117  1.4140 -1.3675
   27CHL1   C26 1991   5.170   2.246   8.813  0.6779  0.2408 -0.0109
   27CHL1  H26A 1992   5.258   2.245   8.745  0.6869  1.0226 -0.0113
   27CHL1  H26B 1993   5.113   2.152   8.794  2.6229 -0.9682 -0.2035
   27CHL1  H26C 1994   5.096   2.326   8.793 -1.0971 -1.4039 -0.3066
   27CHL1   C27 1995   5.343   2.361   8.973  0.7474  0.3180  0.0330
   27CHL1  H27A 1996   5.393   2.387   8.878  0.4201  1.4010  0.1426
   27CHL1  H27B 1997   5.277   2.448   8.994 -1.1699 -0.9342 -0.5271
   27CHL1  H27C 1998   5.404   2.360   9.066  3.5306  3.2992 -1.5660
   28CHL1    C3 1999   3.383   0.081  10.000 -0.0824 -0.7200  1.0555
   28CHL1    H3 2000   3.355   0.166   9.935 -1.4220 -0.2728  2.1687
   28CHL1    O3 2001   3.334   0.125  10.125 -0.2017 -0.1747  0.3328
   28CHL1   H3' 2002   3.360   0.058  10.188  2.8555  1.0233  0.5190
   28CHL1    C4 2003   3.305  -0.034   9.938  0.3796 -0.4367  1.1404
   28CHL1   H4A 2004   3.319  -0.129   9.993 -2.5518 -0.9385  1.2121
   28CHL1   H4B 2005   3.196  -0.010   9.936  0.4088 -0.3151  0.8138
   28CHL1    C5 2006   3.361  -0.068   9.798 -0.2605  0.3719 -0.3235
   28CHL1    C6 2007   3.289  -0.067   9.688 -0.2041  0.1831 -0.3633
   28CHL1    H6 2008   3.182  -0.047   9.705 -0.3777 -1.8165  1.4133
   28CHL1    C7 2009   3.333  -0.110   9.550  0.3116 -0.8354  0.4432
   28CHL1   H7A 2010   3.265  -0.187   9.507  0.8359 -0.0284 -2.0116
   28CHL1   H7B 2011   3.325  -0.023   9.481  2.9055 -0.4509  0.5226
   28CHL1    C8 2012   3.480  -0.173   9.550 -0.6898 -0.9007 -0.2527
   28CHL1    H8 2013   3.470  -0.279   9.582 -2.0803 -0.9852 -0.9079
   28CHL1   C14 2014   3.528  -0.167   9.407 -0.4346 -0.1763 -0.3820
   28CHL1   H14 2015   3.532  -0.058   9.385 -0.6360 -0.6871 -3.3026
   28CHL1   C15 2016   3.442  -0.237   9.303  0.4798 -0.7901  0.0909
   28CHL1  H15A 2017   3.414  -0.339   9.338  1.3978 -0.3064  2.4141
   28CHL1  H15B 2018   3.349  -0.184   9.271  0.1100 -1.1457  0.5597
   28CHL1   C16 2019   3.538  -0.237   9.182 -0.4801  0.5397  0.2888
   28CHL1  H16A 2020   3.533  -0.346   9.159 -2.3371  0.6786 -0.1792
   28CHL1  H16B 2021   3.514  -0.177   9.092  1.1614  0.8626  0.0341
   28CHL1   C17 2022   3.691  -0.212   9.235 -0.4143 -0.0913 -0.5068
   28CHL1   H17 2023   3.704  -0.105   9.210  0.0701  0.2520  1.1182
   28CHL1   C13 2024   3.670  -0.219   9.394 -0.1432  0.7279  0.3998
   28CHL1   C18 2025   3.681  -0.368   9.439  0.4247 -0.2496  0.1309
   28CHL1  H18A 2026   3.645  -0.367   9.544  0.1700 -2.2184  0.0929
   28CHL1  H18B 2027   3.615  -0.437   9.381  0.9608 -2.3092  1.8459
   28CHL1  H18C 2028   3.789  -0.395   9.436  0.4665 -0.6395  2.9563
   28CHL1   C12 2029   3.759  -0.128   9.483  0.2771 -0.2492 -0.0004
   28CHL1  H12A 2030   3.865  -0.163   9.484  1.3839  2.7367  2.5738
   28CHL1  H12B 2031   3.772  -0.024   9.445  1.1937 -0.6403 -0.8300
   28CHL1   C11 2032   3.720  -0.119   9.625  0.1819 -0.0367  0.6719
   28CHL1  H11A 2033   3.733  -0.220   9.669 -1.9012 -2.0951 -2.9058
   28CHL1  H11B 2034   3.768  -0.037   9.681  0.0553 -0.6337  1.6740
   28CHL1    C9 2035   3.568  -0.087   9.643 -0.1920  0.1675  0.4668
   28CHL1    H9 2036   3.555   0.011   9.593 -2.0499 -0.2493  0.0476
   28CHL1   C10 2037   3.515  -0.087   9.786 -0.4263 -0.3364  0.4266
   28CHL1   C19 2038   3.544  -0.224   9.852 -0.2854  0.6896  0.3647
   28CHL1  H19A 2039   3.500  -0.226   9.954 -0.9614  0.0032  0.0748
   28CHL1  H19B 2040   3.514  -0.308   9.786  1.4638 -0.4800  0.9899
   28CHL1  H19C 2041   3.654  -0.235   9.864 -0.3063  0.4110  0.3063
   28CHL1    C1 2042   3.588   0.028   9.872 -0.5086 -0.3715 -0.2131
   28CHL1   H1A 2043   3.697   0.006   9.876 -0.3124  0.5638 -0.0879
   28CHL1   H1B 2044   3.582   0.125   9.818 -0.8505  0.2870  0.9662
   28CHL1    C2 2045   3.529   0.056  10.012 -0.5000 -0.8463 -0.5976
   28CHL1   H2A 2046   3.583   0.142  10.056  1.3002 -2.3742  0.3012
   28CHL1   H2B 2047   3.546  -0.033  10.076 -0.1186 -0.5986 -0.3543
   28CHL1   C20 2048   3.801  -0.300   9.169  0.1965  0.5345 -0.2929
   28CHL1   H20 2049   3.798  -0.403   9.210  0.4588  0.7401  0.2595
   28CHL1   C21 2050   3.930  -0.215   9.183 -0.1209  0.6600 -0.2473
   28CHL1  H21A 2051   3.940  -0.195   9.292  0.3854  0.5628 -0.2759
   28CHL1  H21B 2052   3.915  -0.117   9.132  1.2396  1.0453  0.0683
   28CHL1  H21C 2053   4.019  -0.269   9.144 -0.0596  1.0116 -0.6017
   28CHL1   C22 2054   3.774  -0.320   9.014  0.3260 -0.0011 -0.8599
   28CHL1  H22A 2055   3.678  -0.374   9.020  0.1433  0.4266  0.3736
   28CHL1  H22B 2056   3.752  -0.224   8.963  0.1794  0.2222 -0.3852
   28CHL1   C23 2057   3.869  -0.410   8.938  0.1290 -0.4556  0.3386
   28CHL1  H23A 2058   3.970  -0.375   8.968  0.0121 -1.7186  2.4008
   28CHL1  H23B 2059   3.865  -0.513   8.981  1.4812 -1.2846 -1.3902
   28CHL1   C24 2060   3.833  -0.408   8.788 -0.2231  0.3280 -0.5952
   28CHL1  H24A 2061   3.749  -0.481   8.783  0.8478 -1.0386  0.6462
   28CHL1  H24B 2062   3.801  -0.305   8.763 -0.9847  0.0159 -0.9465
   28CHL1   C25 2063   3.945  -0.454   8.694 -0.5739 -0.8598  0.4685
   28CHL1   H25 2064   4.041  -0.411   8.730 -0.1463 -0.2630 -1.2689
   28CHL1   C26 2065   3.961  -0.607   8.695 -0.4385  0.0221 -0.5515
   28CHL1  H26A 2066   3.863  -0.653   8.669 -0.4936 -0.7365  0.8989
   28CHL1  H26B 2067   4.042  -0.641   8.627 -2.1108 -1.8778 -1.7077
   28CHL1  H26C 2068   3.991  -0.631   8.799 -1.8939  2.2238  0.4384
   28CHL1   C27 2069   3.913  -0.397   8.554  0.3415 -0.1986 -0.1467
   28CHL1  H27A 2070   3.990  -0.426   8.479  0.9605  2.5234 -0.6755
   28CHL1  H27B 2071   3.822  -0.448   8.517 -0.7297 -0.5806  2.7519
   28CHL1  H27C 2072   3.905  -0.286   8.554  1.2070 -0.1099  1.4803
   29CHL1    C3 2073   4.664   5.674   6.911  0.0893  0.4932  0.0470
   29CHL1    H3 2074   4.714   5.772   6.927 -0.8554  0.9671  0.1788
   29CHL1    O3 2075   4.658   5.657   6.774  0.3403 -0.4227  0.1953
   29CHL1   H3' 2076   4.728   5.596   6.749  0.8216  0.5191 -0.8545
   29CHL1    C4 2077   4.741   5.556   6.973  0.5801 -0.3538  0.1579
   29CHL1   H4A 2078   4.691   5.466   6.932 -0.7694  0.2699  0.3751
   29CHL1   H4B 2079   4.842   5.538   6.933 -0.6289  0.0823 -3.4069
   29CHL1    C5 2080   4.739   5.567   7.127  0.9541  0.1271  0.2372
   29CHL1    C6 2081   4.855   5.560   7.191  0.1136 -0.0002  0.7376
   29CHL1    H6 2082   4.947   5.548   7.132  0.8056  0.1136  1.7619
   29CHL1    C7 2083   4.867   5.564   7.338  0.1157 -0.4879 -0.6745
   29CHL1   H7A 2084   4.927   5.485   7.389 -1.5082 -0.9845  0.5966
   29CHL1   H7B 2085   4.913   5.661   7.369 -3.1298  1.0116 -0.0985
   29CHL1    C8 2086   4.733   5.542   7.414  0.0301 -0.4876  0.4671
   29CHL1    H8 2087   4.722   5.432   7.401  0.0489 -0.2047 -3.1371
   29CHL1   C14 2088   4.747   5.597   7.548 -0.0640  0.0132 -0.2517
   29CHL1   H14 2089   4.754   5.708   7.553 -1.9603  0.1126  1.7010
   29CHL1   C15 2090   4.872   5.554   7.627  0.5732 -0.2813  0.0426
   29CHL1  H15A 2091   4.897   5.449   7.599  0.5432 -0.2091 -0.2574
   29CHL1  H15B 2092   4.957   5.625   7.619  1.1406 -1.1620 -2.8237
   29CHL1   C16 2093   4.829   5.556   7.775 -0.1591  0.2267  0.0279
   29CHL1  H16A 2094   4.849   5.454   7.815 -2.2628 -0.6745 -1.0377
   29CHL1  H16B 2095   4.888   5.627   7.837 -1.6987  0.4831  1.2560
   29CHL1   C17 2096   4.682   5.606   7.769  0.8968 -0.1376 -0.5748
   29CHL1   H17 2097   4.700   5.715   7.762 -1.0551  0.2738  0.3192
   29CHL1   C13 2098   4.622   5.567   7.634 -0.9294  0.7813 -0.1093
   29CHL1   C18 2099   4.600   5.420   7.641 -1.0081 -0.0597  0.3346
   29CHL1  H18A 2100   4.688   5.367   7.684 -0.7360  0.3985  0.3447
   29CHL1  H18B 2101   4.516   5.381   7.702  0.3073  0.8207  2.8281
   29CHL1  H18C 2102   4.592   5.369   7.542 -1.1820  1.3898 -0.4254
   29CHL1   C12 2103   4.510   5.642   7.576 -0.4051 -0.1435  0.0365
   29CHL1  H12A 2104   4.418   5.633   7.638  0.4863 -0.7193  1.3195
   29CHL1  H12B 2105   4.536   5.749   7.584 -1.8290  0.2024  0.2372
   29CHL1   C11 2106   4.482   5.614   7.428  0.0124  0.1276 -0.0433
   29CHL1  H11A 2107   4.420   5.522   7.417  0.5533  0.0162 -2.6408
   29CHL1  H11B 2108   4.417   5.695   7.388 -0.5465 -0.8631 -1.2214
   29CHL1    C9 2109   4.618   5.615   7.342 -0.1029 -0.2268 -0.4307
   29CHL1    H9 2110   4.653   5.720   7.349  0.7448 -0.6208  2.2473
   29CHL1   C10 2111   4.600   5.575   7.189  0.7347  0.7373 -0.0121
   29CHL1   C19 2112   4.529   5.433   7.169  0.4905  0.0530 -0.1627
   29CHL1  H19A 2113   4.427   5.436   7.211  0.8734  3.7348  0.8102
   29CHL1  H19B 2114   4.512   5.406   7.063 -1.6749 -1.3227  0.4793
   29CHL1  H19C 2115   4.596   5.358   7.217  0.8324  0.6293  0.2747
   29CHL1    C1 2116   4.528   5.692   7.127 -0.0151  1.1448 -0.3349
   29CHL1   H1A 2117   4.421   5.682   7.154  0.3828  2.9694  2.3405
   29CHL1   H1B 2118   4.571   5.789   7.159  0.7337  0.4827  0.7625
   29CHL1    C2 2119   4.521   5.682   6.973  0.4482 -0.0072 -0.0423
   29CHL1   H2A 2120   4.472   5.771   6.928  2.2694  0.7005 -0.7482
   29CHL1   H2B 2121   4.469   5.593   6.932  0.1592  0.6262 -1.0876
   29CHL1   C20 2122   4.595   5.598   7.897  0.9202 -0.3734 -0.2842
   29CHL1   H20 2123   4.490   5.591   7.862  1.2731  1.1538 -1.7591
   29CHL1   C21 2124   4.612   5.726   7.990 -0.4063 -0.8881  0.2804
   29CHL1  H21A 2125   4.547   5.730   8.080  0.3418  1.5231  0.7747
   29CHL1  H21B 2126   4.588   5.817   7.931 -1.4621 -1.9248 -0.9931
   29CHL1  H21C 2127   4.711   5.727   8.039  1.1582  0.7002 -2.6312
   29CHL1   C22 2128   4.628   5.474   7.984  0.0285  0.2013 -0.1872
   29CHL1  H22A 2129   4.614   5.381   7.925  1.8688 -0.1024 -0.2100
   29CHL1  H22B 2130   4.732   5.471   8.024 -0.3869 -0.4468  0.9015
   29CHL1   C23 2131   4.541   5.469   8.115  0.4325  0.5781 -0.2244
   29CHL1  H23A 2132   4.581   5.537   8.194  0.3859  1.1947 -0.7230
   29CHL1  H23B 2133   4.439   5.506   8.089  0.4567 -0.6674 -2.2385
   29CHL1   C24 2134   4.535   5.332   8.189 -0.1146 -0.3451 -0.2790
   29CHL1  H24A 2135   4.464   5.261   8.143  0.1798 -1.4973  0.9602
   29CHL1  H24B 2136   4.634   5.284   8.174 -0.1034  0.0240 -1.4549
   29CHL1   C25 2137   4.494   5.341   8.336  0.4081 -0.2946 -0.4688
   29CHL1   H25 2138   4.390   5.381   8.342  1.2631  2.5204 -2.4897
   29CHL1   C26 2139   4.482   5.201   8.397  0.1187 -0.1914 -0.1593
   29CHL1  H26A 2140   4.396   5.149   8.348  1.0344  0.5307 -2.7060
   29CHL1  H26B 2141   4.577   5.145   8.392 -0.3162 -0.8935 -0.7626
   29CHL1  H26C 2142   4.445   5.202   8.502 -2.0799  3.1372 -0.7901
   29CHL1   C27 2143   4.580   5.437   8.424 -0.1245 -0.6123  0.0535
   29CHL1  H27A 2144   4.543   5.541   8.418  2.1924  0.2081 -1.5244
   29CHL1  H27B 2145   4.568   5.402   8.529  0.5592 -0.9938  0.0107
   29CHL1  H27C 2146   4.688   5.426   8.399 -0.0706  2.4877 -1.5834
   30CHL1    C3 2147   2.475   5.311   7.555  0.6945  0.2317  0.0995
   30CHL1    H3 2148   2.572   5.364   7.547  0.8959 -0.4780 -4.2512
   30CHL1    O3 2149   2.419   5.322   7.428 -0.9958 -0.1619 -0.3077
   30CHL1   H3' 2150   2.404   5.236   7.388 -1.2138  0.5527 -1.8413
   30CHL1    C4 2151   2.493   5.161   7.588 -0.0838  0.0730 -0.0686
   30CHL1   H4A 2152   2.390   5.120   7.588  0.1241 -0.5859  2.1697
   30CHL1   H4B 2153   2.551   5.118   7.504 -0.2434  3.1070 -1.8587
   30CHL1    C5 2154   2.559   5.149   7.729 -0.1637 -0.3427  0.0282
   30CHL1    C6 2155   2.688   5.105   7.735  0.7765  0.5088  0.3463
   30CHL1    H6 2156   2.727   5.071   7.638  1.0334 -0.3497  0.7417
   30CHL1    C7 2157   2.754   5.068   7.865  0.4667  0.3594  0.1849
   30CHL1   H7A 2158   2.771   4.959   7.866 -0.0163  0.2691 -0.6826
   30CHL1   H7B 2159   2.848   5.126   7.878  0.1340  1.5982 -2.2792
   30CHL1    C8 2160   2.660   5.104   7.985  0.2530  0.3687  0.1890
   30CHL1    H8 2161   2.588   5.020   7.987  2.1351 -1.3224  1.8712
   30CHL1   C14 2162   2.743   5.113   8.110 -0.3138 -0.1156  0.2214
   30CHL1   H14 2163   2.817   5.192   8.085 -0.8454 -0.0849 -1.3259
   30CHL1   C15 2164   2.815   4.988   8.149  0.0280  0.5499 -0.8606
   30CHL1  H15A 2165   2.739   4.909   8.130 -2.5628  1.7812  3.1611
   30CHL1  H15B 2166   2.912   4.974   8.098  0.8775 -1.1294  1.0928
   30CHL1   C16 2167   2.843   5.004   8.300  0.2533 -0.1928  0.5860
   30CHL1  H16A 2168   2.817   4.911   8.355  1.3579 -0.9403 -0.1185
   30CHL1  H16B 2169   2.951   5.029   8.310  0.0280  1.3129 -0.3136
   30CHL1   C17 2170   2.761   5.126   8.349  0.4826  0.0729  0.7989
   30CHL1   H17 2171   2.821   5.219   8.352  0.2171  0.2435  0.7807
   30CHL1   C13 2172   2.663   5.145   8.234  0.4499 -0.2422  0.3174
   30CHL1   C18 2173   2.544   5.043   8.253  0.5029 -0.0986  0.5304
   30CHL1  H18A 2174   2.585   4.941   8.268 -0.1335 -0.1475  2.0704
   30CHL1  H18B 2175   2.482   5.059   8.344 -1.3904  0.1077 -0.7190
   30CHL1  H18C 2176   2.468   5.054   8.172  1.1002 -0.4694 -0.0809
   30CHL1   C12 2177   2.613   5.294   8.208 -0.4139  0.0271 -0.0501
   30CHL1  H12A 2178   2.565   5.335   8.299  0.0514 -0.7592  0.5680
   30CHL1  H12B 2179   2.706   5.350   8.187  1.7273 -2.4681  2.0876
   30CHL1   C11 2180   2.526   5.299   8.085 -0.4793  0.5267  1.0190
   30CHL1  H11A 2181   2.435   5.240   8.107  0.0595 -0.1940  1.3272
   30CHL1  H11B 2182   2.496   5.405   8.069  1.3295  1.0766  1.1041
   30CHL1    C9 2183   2.586   5.237   7.959 -0.3651 -0.1060 -0.2936
   30CHL1    H9 2184   2.658   5.311   7.919 -0.7203  0.0040 -0.7433
   30CHL1   C10 2185   2.483   5.227   7.846  0.4373  0.1473 -0.1816
   30CHL1   C19 2186   2.354   5.142   7.883 -0.3107  0.1137 -0.5737
   30CHL1  H19A 2187   2.381   5.037   7.908  0.9751  0.5401 -0.0578
   30CHL1  H19B 2188   2.312   5.198   7.970 -0.9867 -1.4064  0.1194
   30CHL1  H19C 2189   2.290   5.147   7.793  2.6032  1.4661 -2.7418
   30CHL1    C1 2190   2.429   5.373   7.795 -1.5690  0.1761  0.3769
   30CHL1   H1A 2191   2.354   5.431   7.853 -0.6626  0.6828  1.0773
   30CHL1   H1B 2192   2.520   5.436   7.809 -0.4677 -1.1903 -0.3069
   30CHL1    C2 2193   2.377   5.381   7.652 -0.2104  0.3629  0.1204
   30CHL1   H2A 2194   2.354   5.485   7.619 -0.6490  1.0823  2.4745
   30CHL1   H2B 2195   2.279   5.329   7.651  0.1106 -0.3559  2.1198
   30CHL1   C20 2196   2.716   5.106   8.489 -0.0699  0.1443  0.1892
   30CHL1   H20 2197   2.646   5.019   8.493 -0.7823  0.7397  1.1226
   30CHL1   C21 2198   2.641   5.235   8.524  0.0310 -0.0408 -0.0917
   30CHL1  H21A 2199   2.598   5.231   8.626 -0.1314  0.1765 -0.1505
   30CHL1  H21B 2200   2.544   5.245   8.471  0.2532  0.8828 -0.3446
   30CHL1  H21C 2201   2.686   5.335   8.504 -1.6547  0.2318 -3.2058
   30CHL1   C22 2202   2.832   5.097   8.592 -0.1846 -0.1900  0.6896
   30CHL1  H22A 2203   2.904   5.014   8.576  0.0126 -0.1168  1.1713
   30CHL1  H22B 2204   2.902   5.183   8.587 -0.7548  0.2363 -3.1587
   30CHL1   C23 2205   2.794   5.083   8.741 -0.4003 -0.2879 -0.9399
   30CHL1  H23A 2206   2.885   5.065   8.801 -0.3483  1.9796 -0.2748
   30CHL1  H23B 2207   2.757   5.184   8.769  0.2770 -0.1962 -0.3594
   30CHL1   C24 2208   2.679   4.991   8.783 -0.1568  0.4184 -0.2278
   30CHL1  H24A 2209   2.582   5.012   8.734  0.0953  1.6091 -0.2536
   30CHL1  H24B 2210   2.703   4.885   8.758 -0.0211  0.2770  0.4768
   30CHL1   C25 2211   2.655   5.001   8.931  0.3075 -0.4827  0.4110
   30CHL1   H25 2212   2.750   5.025   8.983  0.0376  0.1194  0.6355
   30CHL1   C26 2213   2.564   5.119   8.961 -0.8200 -0.2780 -0.8643
   30CHL1  H26A 2214   2.603   5.165   9.055 -2.5778  0.9770 -0.6944
   30CHL1  H26B 2215   2.567   5.195   8.880  1.8677 -1.0351 -1.5791
   30CHL1  H26C 2216   2.463   5.077   8.980 -0.2825 -1.4003 -0.4169
   30CHL1   C27 2217   2.594   4.867   8.989 -1.0158  0.5958  0.3311
   30CHL1  H27A 2218   2.581   4.880   9.098 -1.7483  0.5615  0.2565
   30CHL1  H27B 2219   2.495   4.846   8.943 -0.0447  1.1196 -2.1675
   30CHL1  H27C 2220   2.655   4.775   8.972 -0.6676  0.2951  2.8246
   31CHL1    C3 2221   2.728   6.704   6.971 -0.1994 -0.1103  0.7369
   31CHL1    H3 2222   2.834   6.674   6.967 -0.5230 -1.1359 -1.5924
   31CHL1    O3 2223   2.691   6.687   6.832 -0.6121 -0.7774 -0.6624
   31CHL1   H3' 2224   2.602   6.722   6.822 -1.3087  0.7107  5.7976
   31CHL1    C4 2225   2.638   6.609   7.051 -0.6470  0.0534  0.2090
   31CHL1   H4A 2226   2.532   6.629   7.026 -0.6767  2.2135  1.7674
   31CHL1   H4B 2227   2.668   6.505   7.024  0.7046  0.2488  0.8634
   31CHL1    C5 2228   2.653   6.623   7.203 -0.7391 -0.0375  0.1641
   31CHL1    C6 2229   2.676   6.513   7.270 -0.9330  0.0051 -0.1989
   31CHL1    H6 2230   2.682   6.415   7.222  1.1005  0.0368 -0.1056
   31CHL1    C7 2231   2.706   6.515   7.418 -0.0359  0.5995  0.2926
   31CHL1   H7A 2232   2.656   6.429   7.467  1.1079  0.2803  0.9468
   31CHL1   H7B 2233   2.816   6.497   7.422 -0.2217 -0.8131 -0.1697
   31CHL1    C8 2234   2.669   6.651   7.487  0.6597 -0.1515  0.6910
   31CHL1    H8 2235   2.558   6.659   7.489  0.7811  2.4861  0.6861
   31CHL1   C14 2236   2.724   6.666   7.633 -0.1831 -0.5443  0.1295
   31CHL1   H14 2237   2.834   6.656   7.624 -0.3771 -2.0071 -0.9235
   31CHL1   C15 2238   2.681   6.561   7.736  0.1185  0.2621  0.1304
   31CHL1  H15A 2239   2.572   6.547   7.729  0.0773 -0.5866  1.8290
   31CHL1  H15B 2240   2.713   6.454   7.742  0.0736  0.3201  2.0285
   31CHL1   C16 2241   2.713   6.628   7.875 -0.1461  0.5055 -0.3182
   31CHL1  H16A 2242   2.616   6.620   7.929 -0.9908 -1.0708 -1.9565
   31CHL1  H16B 2243   2.796   6.573   7.925 -2.3276 -2.0840  0.6823
   31CHL1   C17 2244   2.745   6.777   7.840  0.9916  0.1410 -0.1366
   31CHL1   H17 2245   2.856   6.782   7.833  1.1696 -1.9007  0.4343
   31CHL1   C13 2246   2.697   6.805   7.697  0.7502  0.4626  0.1553
   31CHL1   C18 2247   2.547   6.825   7.710  0.2929  0.7195 -0.0514
   31CHL1  H18A 2248   2.498   6.747   7.773 -0.4451  0.6059 -0.7467
   31CHL1  H18B 2249   2.520   6.920   7.762 -0.4894 -0.2522  1.4200
   31CHL1  H18C 2250   2.491   6.827   7.614 -0.2577  1.1505  0.2723
   31CHL1   C12 2251   2.761   6.909   7.609  0.1915  1.0554 -0.0861
   31CHL1  H12A 2252   2.747   7.010   7.653  0.7177  0.3495  1.7848
   31CHL1  H12B 2253   2.870   6.886   7.614  0.0413  0.4259  0.2790
   31CHL1   C11 2254   2.716   6.905   7.462 -0.3673  0.2073  0.4284
   31CHL1  H11A 2255   2.613   6.947   7.461 -1.0422 -1.3375  1.7966
   31CHL1  H11B 2256   2.788   6.973   7.412 -1.5747  1.4600  0.3210
   31CHL1    C9 2257   2.720   6.766   7.397 -0.1321 -0.0176 -0.3521
   31CHL1    H9 2258   2.826   6.738   7.380 -0.4447 -2.4075  1.2535
   31CHL1   C10 2259   2.653   6.764   7.258 -0.2657  0.0120  0.1916
   31CHL1   C19 2260   2.503   6.815   7.273  0.1204 -0.1245 -0.3788
   31CHL1  H19A 2261   2.442   6.766   7.352 -1.2492  2.1727  0.1125
   31CHL1  H19B 2262   2.500   6.925   7.289  0.3167  0.2846 -2.7661
   31CHL1  H19C 2263   2.454   6.784   7.178  0.7870 -1.5499 -0.2723
   31CHL1    C1 2264   2.742   6.853   7.173  0.2467 -0.4235 -0.2037
   31CHL1   H1A 2265   2.712   6.955   7.203  0.2888 -0.2335 -0.7851
   31CHL1   H1B 2266   2.852   6.851   7.188 -0.0121  0.5440  2.2898
   31CHL1    C2 2267   2.707   6.841   7.021 -0.8911  0.2720  0.1653
   31CHL1   H2A 2268   2.781   6.905   6.967  0.3673 -1.2334  0.0352
   31CHL1   H2B 2269   2.603   6.875   7.005 -0.9349 -0.8909 -2.4183
   31CHL1   C20 2270   2.706   6.877   7.954  0.2876  0.0892  0.3580
   31CHL1   H20 2271   2.596   6.868   7.962  0.2404  0.3637  0.0422
   31CHL1   C21 2272   2.748   7.025   7.914  0.3678  0.4880 -0.4876
   31CHL1  H21A 2273   2.753   7.098   7.997 -1.8707  2.0239 -1.6057
   31CHL1  H21B 2274   2.678   7.079   7.847 -2.4548 -0.9150  1.1182
   31CHL1  H21C 2275   2.851   7.015   7.873 -0.2470 -2.4338 -1.5998
   31CHL1   C22 2276   2.751   6.839   8.104 -0.3695  0.1023  0.2348
   31CHL1  H22A 2277   2.749   6.729   8.118  0.7329  0.1445  0.8133
   31CHL1  H22B 2278   2.857   6.868   8.115 -0.6993  1.3732  0.1976
   31CHL1   C23 2279   2.667   6.901   8.210  0.7201 -0.0614 -0.0344
   31CHL1  H23A 2280   2.652   7.009   8.189  0.6809 -0.2119 -0.7852
   31CHL1  H23B 2281   2.573   6.841   8.211  1.3259 -1.0320  0.0170
   31CHL1   C24 2282   2.736   6.887   8.346  0.1704 -0.5109  0.3376
   31CHL1  H24A 2283   2.744   6.779   8.370 -0.5317 -0.7386 -0.3936
   31CHL1  H24B 2284   2.834   6.938   8.328 -0.8736  1.4023 -0.2105
   31CHL1   C25 2285   2.682   6.969   8.469  0.2550  1.0490 -0.3576
   31CHL1   H25 2286   2.660   7.073   8.437 -0.7001  1.3708  1.2646
   31CHL1   C26 2287   2.554   6.903   8.526 -0.1184  0.0242 -0.2100
   31CHL1  H26A 2288   2.505   6.971   8.599  0.0248  1.1046 -1.1073
   31CHL1  H26B 2289   2.490   6.893   8.436 -2.0579  3.1309  0.6978
   31CHL1  H26C 2290   2.576   6.807   8.578  1.6767  0.6650  0.2929
   31CHL1   C27 2291   2.793   6.969   8.575 -0.6122  0.5168  0.0155
   31CHL1  H27A 2292   2.763   7.008   8.675 -0.4203 -0.1390  0.3357
   31CHL1  H27B 2293   2.868   7.046   8.545  2.8446 -2.5998 -0.0604
   31CHL1  H27C 2294   2.839   6.869   8.594 -0.1936  0.9052  1.1516
   32CHL1    C3 2295   2.880   5.533   7.288  0.3300  0.0294 -0.6984
   32CHL1    H3 2296   2.801   5.587   7.344  0.1010 -0.8855 -0.1288
   32CHL1    O3 2297   2.851   5.534   7.147  0.1933 -0.0436  0.2478
   32CHL1   H3' 2298   2.891   5.610   7.104 -0.6761  0.9759  1.1978
   32CHL1    C4 2299   3.018   5.600   7.319  0.5437 -0.3108 -0.2507
   32CHL1   H4A 2300   3.094   5.558   7.249  2.2863  2.4461 -0.1634
   32CHL1   H4B 2301   2.987   5.701   7.286  0.3064 -0.3343 -0.1008
   32CHL1    C5 2302   3.050   5.595   7.464 -0.3284  0.4528  0.0234
   32CHL1    C6 2303   3.037   5.700   7.547 -0.0262  0.0121  1.2097
   32CHL1    H6 2304   3.016   5.801   7.506  0.2431  0.8834  3.1304
   32CHL1    C7 2305   3.046   5.690   7.694 -0.3835 -0.0709  0.1323
   32CHL1   H7A 2306   3.112   5.768   7.739  1.5552 -2.1801  1.1347
   32CHL1   H7B 2307   2.944   5.689   7.737 -0.0500 -1.4392  0.9438
   32CHL1    C8 2308   3.119   5.563   7.741 -0.7898  0.3830 -1.1332
   32CHL1    H8 2309   3.223   5.572   7.703 -0.3741 -2.6411 -0.9579
   32CHL1   C14 2310   3.116   5.549   7.896  0.0450 -0.2098 -0.1999
   32CHL1   H14 2311   3.006   5.562   7.911  0.0453  0.9591 -1.0601
   32CHL1   C15 2312   3.196   5.644   7.988  0.3713  0.2185  0.1258
   32CHL1  H15A 2313   3.304   5.653   7.963  0.8391 -3.4253  0.2672
   32CHL1  H15B 2314   3.145   5.742   7.980 -1.9634 -0.8940  0.4365
   32CHL1   C16 2315   3.169   5.588   8.127  0.2076 -0.0542 -0.4550
   32CHL1  H16A 2316   3.260   5.603   8.189  0.4001 -0.5424 -0.6108
   32CHL1  H16B 2317   3.080   5.638   8.170  0.3508  0.7148 -1.0378
   32CHL1   C17 2318   3.128   5.432   8.108  0.2971 -0.2657 -0.0957
   32CHL1   H17 2319   3.021   5.416   8.130  0.0477  1.7190  0.3359
   32CHL1   C13 2320   3.144   5.412   7.959  0.2240 -0.4676 -0.6310
   32CHL1   C18 2321   3.296   5.381   7.922  1.0572 -0.1128 -0.5452
   32CHL1  H18A 2322   3.363   5.461   7.961 -0.7460  2.7014 -2.7895
   32CHL1  H18B 2323   3.326   5.282   7.961  2.2477 -0.2093 -1.6291
   32CHL1  H18C 2324   3.309   5.385   7.811 -0.5561  1.5967 -0.7303
   32CHL1   C12 2325   3.050   5.310   7.892  0.0547  0.3269 -0.5939
   32CHL1  H12A 2326   3.070   5.213   7.942 -0.3817  0.3769 -0.3206
   32CHL1  H12B 2327   2.945   5.338   7.915 -0.4232 -0.2483 -1.9338
   32CHL1   C11 2328   3.069   5.308   7.740  0.3318 -0.6518 -1.6322
   32CHL1  H11A 2329   3.165   5.262   7.708 -0.1104 -1.9655 -1.1273
   32CHL1  H11B 2330   2.994   5.233   7.709 -0.4433 -0.2382 -0.8038
   32CHL1    C9 2331   3.045   5.442   7.676  0.3199  0.3722 -0.0079
   32CHL1    H9 2332   2.939   5.457   7.707 -0.1061 -1.2539 -0.5627
   32CHL1   C10 2333   3.042   5.448   7.518 -0.7417  0.6723  0.3796
   32CHL1   C19 2334   3.160   5.361   7.461 -0.5152  0.2934 -0.9336
   32CHL1  H19A 2335   3.263   5.384   7.496 -0.7504  1.1898 -0.7940
   32CHL1  H19B 2336   3.143   5.253   7.480 -0.0683  0.1286 -1.4367
   32CHL1  H19C 2337   3.174   5.368   7.351 -1.8712 -1.8992 -1.2925
   32CHL1    C1 2338   2.909   5.377   7.478  0.0225 -0.3658  0.0784
   32CHL1   H1A 2339   2.912   5.273   7.518 -0.7783 -1.0326 -1.5157
   32CHL1   H1B 2340   2.824   5.429   7.528 -0.5374 -2.2647  1.2125
   32CHL1    C2 2341   2.881   5.386   7.329 -0.4681  0.7859 -0.7028
   32CHL1   H2A 2342   2.786   5.330   7.319 -0.8694  1.3102  0.0593
   32CHL1   H2B 2343   2.955   5.327   7.272 -1.5822 -1.3580 -0.0277
   32CHL1   C20 2344   3.209   5.341   8.209  0.7922  0.1421  0.1117
   32CHL1   H20 2345   3.320   5.343   8.197  1.1197  1.5675  2.5799
   32CHL1   C21 2346   3.172   5.187   8.192  0.1409  0.3443  0.5074
   32CHL1  H21A 2347   3.063   5.171   8.198  0.0250  1.4082  1.5830
   32CHL1  H21B 2348   3.210   5.124   8.276  0.8256  1.3220  0.9502
   32CHL1  H21C 2349   3.209   5.143   8.096  2.6984  1.8313  0.7124
   32CHL1   C22 2350   3.169   5.376   8.354  0.3852  0.2530 -0.9689
   32CHL1  H22A 2351   3.180   5.483   8.382  2.4054  0.1079 -1.0616
   32CHL1  H22B 2352   3.066   5.338   8.368  0.3798  0.4323 -0.5118
   32CHL1   C23 2353   3.259   5.307   8.465 -0.1729  0.5108 -0.4649
   32CHL1  H23A 2354   3.231   5.200   8.475 -0.5035  0.7246  1.1801
   32CHL1  H23B 2355   3.365   5.326   8.440  0.1314  0.9094  1.0371
   32CHL1   C24 2356   3.225   5.376   8.597  0.6428 -0.0553 -0.1380
   32CHL1  H24A 2357   3.251   5.484   8.586 -0.0390 -0.0237 -1.7553
   32CHL1  H24B 2358   3.115   5.378   8.615  0.4016 -2.3010 -1.0084
   32CHL1   C25 2359   3.292   5.318   8.722 -0.7760  0.4816 -0.8122
   32CHL1   H25 2360   3.398   5.314   8.690 -0.6783 -2.0462 -0.4029
   32CHL1   C26 2361   3.257   5.398   8.849  0.1706 -0.1972  0.7160
   32CHL1  H26A 2362   3.150   5.390   8.878  0.1788  0.4129  0.9395
   32CHL1  H26B 2363   3.323   5.359   8.930  1.6068  0.7589  0.0694
   32CHL1  H26C 2364   3.286   5.504   8.832 -0.7829 -0.0676 -0.1713
   32CHL1   C27 2365   3.249   5.171   8.743  0.9518  0.4517  0.1654
   32CHL1  H27A 2366   3.283   5.124   8.837 -0.2722 -1.9445 -0.5114
   32CHL1  H27B 2367   3.139   5.155   8.739  1.2877 -2.5760  0.8753
   32CHL1  H27C 2368   3.280   5.114   8.654 -1.0685  1.3016 -1.1761
   33CHL1    C3 2369   4.122   5.311   6.926  0.0994  0.2960  0.1395
   33CHL1    H3 2370   4.217   5.368   6.932  0.5593 -0.3959 -0.3515
   33CHL1    O3 2371   4.114   5.259   6.792  0.8211  0.5208 -0.0460
   33CHL1   H3' 2372   4.032   5.210   6.787 -0.6154  2.6666  0.9043
   33CHL1    C4 2373   4.133   5.194   7.028  0.1198 -0.0081  0.1226
   33CHL1   H4A 2374   4.037   5.139   7.041  0.2263  0.0225  1.1078
   33CHL1   H4B 2375   4.209   5.123   6.989 -0.2677  0.8643 -2.4140
   33CHL1    C5 2376   4.151   5.252   7.174 -0.3997  0.3214  0.6520
   33CHL1    C6 2377   4.253   5.207   7.249 -0.1475 -0.1930 -0.3215
   33CHL1    H6 2378   4.309   5.130   7.194  0.0792 -0.7878  0.7135
   33CHL1    C7 2379   4.275   5.244   7.390  0.3263  0.5138  0.0175
   33CHL1   H7A 2380   4.295   5.149   7.445  0.1284  0.3195 -0.2458
   33CHL1   H7B 2381   4.367   5.302   7.415  1.2850 -1.2920  0.9469
   33CHL1    C8 2382   4.147   5.318   7.452  0.2998 -0.0797  0.8392
   33CHL1    H8 2383   4.072   5.239   7.475  2.2936 -1.8724  1.5464
   33CHL1   C14 2384   4.178   5.387   7.586  0.2562  0.1632  0.2960
   33CHL1   H14 2385   4.269   5.447   7.569  1.4629 -1.6410  0.1258
   33CHL1   C15 2386   4.226   5.292   7.695  0.1532 -0.0052 -0.0493
   33CHL1  H15A 2387   4.156   5.206   7.696 -0.8148  0.7539 -0.7409
   33CHL1  H15B 2388   4.325   5.248   7.670  0.7274 -0.1596  2.2047
   33CHL1   C16 2389   4.225   5.381   7.821 -0.0774 -0.2162  0.8193
   33CHL1  H16A 2390   4.161   5.332   7.898 -0.8110 -0.9236 -0.2044
   33CHL1  H16B 2391   4.326   5.399   7.861  1.3094  0.7956 -2.7576
   33CHL1   C17 2392   4.156   5.516   7.776 -0.7035  0.4710  0.0001
   33CHL1   H17 2393   4.232   5.589   7.741 -1.0759  1.1232  0.5264
   33CHL1   C13 2394   4.079   5.482   7.650  0.3998 -0.3128  0.2522
   33CHL1   C18 2395   3.954   5.404   7.689 -0.1937 -0.2070  0.0430
   33CHL1  H18A 2396   3.909   5.376   7.591  1.7760  1.0154 -1.2818
   33CHL1  H18B 2397   3.973   5.309   7.744  0.5960  0.4714  0.9696
   33CHL1  H18C 2398   3.877   5.461   7.746 -0.9380 -2.1573  1.0776
   33CHL1   C12 2399   4.056   5.597   7.542 -0.0252  0.5237  0.0982
   33CHL1  H12A 2400   3.980   5.664   7.588  0.3224  0.4668  0.7606
   33CHL1  H12B 2401   4.148   5.654   7.516 -0.7308  1.2064 -0.9655
   33CHL1   C11 2402   4.004   5.536   7.407  0.2624 -0.5539 -0.8206
   33CHL1  H11A 2403   3.901   5.497   7.416  1.2490 -3.1937 -0.1356
   33CHL1  H11B 2404   3.999   5.624   7.339  2.9341 -0.2157 -0.7191
   33CHL1    C9 2405   4.097   5.424   7.346  0.4909 -0.7946 -1.0362
   33CHL1    H9 2406   4.185   5.478   7.306 -1.6461  1.1645 -3.4544
   33CHL1   C10 2407   4.051   5.354   7.215 -0.3535  0.5251 -0.2465
   33CHL1   C19 2408   3.927   5.270   7.243 -0.5422  0.2976 -0.3894
   33CHL1  H19A 2409   3.855   5.331   7.301  1.5114  1.9488  0.5626
   33CHL1  H19B 2410   3.877   5.244   7.148 -1.4080  0.8466 -0.0952
   33CHL1  H19C 2411   3.948   5.181   7.306  3.8168  1.2886 -0.0889
   33CHL1    C1 2412   4.027   5.460   7.104 -0.0101 -0.0561  0.1488
   33CHL1   H1A 2413   3.935   5.518   7.126  0.5867  0.5186  1.2447
   33CHL1   H1B 2414   4.117   5.526   7.104  0.5486 -0.7841  1.0076
   33CHL1    C2 2415   4.002   5.394   6.965  0.2316  0.4518  0.7899
   33CHL1   H2A 2416   3.987   5.473   6.889  0.2814 -2.0698 -2.0293
   33CHL1   H2B 2417   3.911   5.330   6.970 -0.1850  0.9141 -0.5403
   33CHL1   C20 2418   4.087   5.581   7.898  0.2547  0.3522  0.2252
   33CHL1   H20 2419   4.010   5.510   7.935  1.9194 -0.5465  2.1758
   33CHL1   C21 2420   4.020   5.713   7.854  0.3608  0.1323  0.1447
   33CHL1  H21A 2421   4.008   5.788   7.935  1.7493 -2.2058  2.6922
   33CHL1  H21B 2422   3.914   5.698   7.821  0.2811  0.1038  0.4143
   33CHL1  H21C 2423   4.078   5.752   7.768 -0.5334 -1.6976 -1.3614
   33CHL1   C22 2424   4.175   5.604   8.026  0.6196  0.0703 -0.7128
   33CHL1  H22A 2425   4.213   5.508   8.064  0.1498  0.6704  1.3863
   33CHL1  H22B 2426   4.256   5.676   8.001  0.3424  0.6104 -0.0898
   33CHL1   C23 2427   4.086   5.643   8.153 -0.5761 -0.0850  0.6888
   33CHL1  H23A 2428   4.026   5.736   8.139 -0.5255  0.0063  1.0609
   33CHL1  H23B 2429   4.026   5.550   8.165  0.1503 -0.6392  0.1124
   33CHL1   C24 2430   4.175   5.673   8.271  0.2631  0.0457  0.5093
   33CHL1  H24A 2431   4.263   5.605   8.270 -0.6742 -1.3516  3.3472
   33CHL1  H24B 2432   4.208   5.779   8.261  0.2907  0.0349  0.4836
   33CHL1   C25 2433   4.099   5.683   8.407 -0.4229 -0.2813 -0.7077
   33CHL1   H25 2434   4.178   5.703   8.483 -0.2205 -3.5114  0.0583
   33CHL1   C26 2435   3.989   5.793   8.405  0.1688  0.3552  0.6368
   33CHL1  H26A 2436   3.934   5.793   8.501  2.3599 -2.4744  2.0339
   33CHL1  H26B 2437   4.032   5.891   8.374  1.2692 -0.5091 -0.6967
   33CHL1  H26C 2438   3.924   5.771   8.318  0.1313  3.3520 -0.2351
   33CHL1   C27 2439   4.031   5.552   8.445 -0.0957  1.5181 -0.9080
   33CHL1  H27A 2440   3.945   5.529   8.378 -0.0016  1.5218 -1.0301
   33CHL1  H27B 2441   4.103   5.470   8.423 -3.4257 -1.5940 -1.3057
   33CHL1  H27C 2442   3.997   5.538   8.550  0.1276 -1.7073 -1.1727
   34CHL1    C3 2443   5.475   4.716   7.256 -0.0916  0.2605  0.1805
   34CHL1    H3 2444   5.368   4.747   7.252 -1.0246 -2.6819  0.1576
   34CHL1    O3 2445   5.504   4.689   7.119 -0.1036  0.6639  0.5845
   34CHL1   H3' 2446   5.599   4.698   7.110 -0.1459 -0.2168 -0.9569
   34CHL1    C4 2447   5.573   4.823   7.305  0.2369  0.2027  1.0095
   34CHL1   H4A 2448   5.672   4.776   7.289 -0.6259 -1.3454 -0.0273
   34CHL1   H4B 2449   5.570   4.912   7.237 -0.0659 -1.8018 -1.7850
   34CHL1    C5 2450   5.546   4.863   7.446  0.7520  0.4602  0.0137
   34CHL1    C6 2451   5.521   4.992   7.479  0.3447 -0.2297  0.6014
   34CHL1    H6 2452   5.535   5.068   7.400  1.4112 -0.5653  0.4455
   34CHL1    C7 2453   5.520   5.050   7.621  0.3226 -0.0813  0.0936
   34CHL1   H7A 2454   5.584   5.138   7.644  0.3723 -0.2178  0.4974
   34CHL1   H7B 2455   5.411   5.072   7.628 -0.3491 -2.1028 -2.2835
   34CHL1    C8 2456   5.552   4.941   7.729  0.2845  0.4381 -1.3209
   34CHL1    H8 2457   5.662   4.932   7.726  0.3334 -0.0763  0.7219
   34CHL1   C14 2458   5.487   4.985   7.859 -0.4243 -0.1432  0.5532
   34CHL1   H14 2459   5.377   4.984   7.842 -0.0928  1.3773 -2.2814
   34CHL1   C15 2460   5.520   5.122   7.920 -0.4511 -0.0857 -0.4781
   34CHL1  H15A 2461   5.624   5.158   7.902 -0.7643 -0.6550 -4.5438
   34CHL1  H15B 2462   5.460   5.208   7.885  0.3445  0.2543 -1.0401
   34CHL1   C16 2463   5.497   5.099   8.070 -0.3376 -0.1396  0.1172
   34CHL1  H16A 2464   5.589   5.133   8.121 -0.0888 -0.5967 -0.0279
   34CHL1  H16B 2465   5.420   5.171   8.105  1.6859  1.0942  2.3170
   34CHL1   C17 2466   5.457   4.949   8.093  0.1352 -0.6126  0.1630
   34CHL1   H17 2467   5.346   4.956   8.086  0.3277  2.5389 -1.8758
   34CHL1   C13 2468   5.512   4.880   7.972  0.2782  0.3619  0.0587
   34CHL1   C18 2469   5.663   4.855   7.993  0.2793  0.4397  0.1722
   34CHL1  H18A 2470   5.708   4.936   8.054 -0.2174  0.7357  0.1565
   34CHL1  H18B 2471   5.680   4.767   8.057 -2.0780 -0.3086 -0.1279
   34CHL1  H18C 2472   5.715   4.832   7.897  0.0030  1.2827 -0.2004
   34CHL1   C12 2473   5.433   4.755   7.924 -0.1868 -0.6032  0.2749
   34CHL1  H12A 2474   5.438   4.670   7.995  0.0523  1.9084  3.4710
   34CHL1  H12B 2475   5.327   4.781   7.906  0.0815  1.8065  1.8065
   34CHL1   C11 2476   5.479   4.703   7.793 -0.7475  0.0038 -0.6674
   34CHL1  H11A 2477   5.579   4.659   7.816 -1.1137 -0.5367 -0.0808
   34CHL1  H11B 2478   5.409   4.619   7.770  0.8409 -2.2218  1.9366
   34CHL1    C9 2479   5.491   4.808   7.685 -0.1230 -0.1787  0.2502
   34CHL1    H9 2480   5.386   4.839   7.668  0.2869  0.8333 -0.5475
   34CHL1   C10 2481   5.545   4.747   7.552 -0.2313 -0.0250 -0.5408
   34CHL1   C19 2482   5.690   4.696   7.581 -0.5485  0.9635  0.0787
   34CHL1  H19A 2483   5.750   4.781   7.620 -0.4523  0.7505  0.3968
   34CHL1  H19B 2484   5.696   4.603   7.640  0.1713  0.7172 -0.3609
   34CHL1  H19C 2485   5.737   4.663   7.486 -0.5640 -1.3350  0.8194
   34CHL1    C1 2486   5.455   4.629   7.496 -0.6037  0.1907  0.3520
   34CHL1   H1A 2487   5.480   4.546   7.566  0.3551 -1.7608 -2.1837
   34CHL1   H1B 2488   5.349   4.662   7.509 -0.1481  1.0018  2.6717
   34CHL1    C2 2489   5.475   4.589   7.348  0.3122 -1.0832 -0.2204
   34CHL1   H2A 2490   5.392   4.524   7.312  0.6758 -1.2092 -0.8505
   34CHL1   H2B 2491   5.570   4.534   7.336  0.0540 -1.9628  1.4507
   34CHL1   C20 2492   5.501   4.906   8.238 -0.0085  0.0125  0.2478
   34CHL1   H20 2493   5.611   4.887   8.238  0.2048  1.1974  1.0907
   34CHL1   C21 2494   5.438   4.764   8.245 -0.3840  0.3722 -0.2289
   34CHL1  H21A 2495   5.343   4.768   8.188  0.3663  2.5033 -1.4851
   34CHL1  H21B 2496   5.416   4.727   8.347  2.1256 -1.4373 -0.2455
   34CHL1  H21C 2497   5.498   4.689   8.189  0.1741  0.6486 -0.0107
   34CHL1   C22 2498   5.476   5.011   8.350  0.0870  0.4763  0.8784
   34CHL1  H22A 2499   5.533   5.106   8.346  1.2293 -0.2256 -1.5234
   34CHL1  H22B 2500   5.369   5.040   8.345 -0.3622 -1.1371  0.6780
   34CHL1   C23 2501   5.491   4.947   8.498 -0.3777 -0.0883  0.3437
   34CHL1  H23A 2502   5.419   4.862   8.496 -0.5748  0.0626  0.8676
   34CHL1  H23B 2503   5.595   4.913   8.513  0.0079  0.9132  0.0569
   34CHL1   C24 2504   5.456   5.057   8.600  0.0582  0.2921  0.6519
   34CHL1  H24A 2505   5.510   5.151   8.576 -0.5282 -0.0972 -2.6910
   34CHL1  H24B 2506   5.348   5.076   8.585 -0.2405 -1.4554  0.2895
   34CHL1   C25 2507   5.492   5.030   8.748 -0.2215 -0.6706 -0.1183
   34CHL1   H25 2508   5.603   5.024   8.748  0.0184  2.3225 -0.4319
   34CHL1   C26 2509   5.448   5.136   8.847 -0.3967 -0.8882 -0.0013
   34CHL1  H26A 2510   5.338   5.144   8.839 -0.1967  2.2015 -0.8748
   34CHL1  H26B 2511   5.483   5.113   8.950  1.1676  0.4045 -0.2065
   34CHL1  H26C 2512   5.497   5.233   8.822  0.7594 -1.4561 -0.0212
   34CHL1   C27 2513   5.426   4.893   8.801  0.0086  0.5141 -0.2210
   34CHL1  H27A 2514   5.460   4.877   8.906  1.8842  1.1361 -0.6882
   34CHL1  H27B 2515   5.316   4.909   8.812 -0.2419 -0.2959 -1.4078
   34CHL1  H27C 2516   5.448   4.813   8.728 -1.4243 -0.2166  0.1151
   35CHL1    C3 2517   1.331   5.500   7.434 -0.0740  0.0527  0.5245
   35CHL1    H3 2518   1.252   5.423   7.448 -0.7878  1.0855  2.6137
   35CHL1    O3 2519   1.332   5.542   7.299  0.0132  0.1430 -0.8050
   35CHL1   H3' 2520   1.411   5.596   7.291  0.0704 -0.0867 -1.9512
   35CHL1    C4 2521   1.302   5.630   7.515 -0.0824  0.6196  0.0844
   35CHL1   H4A 2522   1.361   5.713   7.470  0.6997  0.3120  0.5135
   35CHL1   H4B 2523   1.196   5.653   7.493 -0.5405  0.4664  1.9526
   35CHL1    C5 2524   1.339   5.639   7.660  0.3775  0.1851 -0.1185
   35CHL1    C6 2525   1.250   5.676   7.753  0.2975  0.1860  0.0751
   35CHL1    H6 2526   1.151   5.707   7.717 -0.0093  0.2777  0.9940
   35CHL1    C7 2527   1.267   5.668   7.900 -0.2135  0.9523  0.1183
   35CHL1   H7A 2528   1.221   5.756   7.950 -1.6509 -0.5203  1.5502
   35CHL1   H7B 2529   1.206   5.585   7.942 -1.2146  2.4707  1.7969
   35CHL1    C8 2530   1.419   5.658   7.942  0.0808 -0.2676  0.7217
   35CHL1    H8 2531   1.473   5.752   7.920 -0.8522  0.4149  1.2916
   35CHL1   C14 2532   1.433   5.610   8.085  0.2745  0.2703 -0.5101
   35CHL1   H14 2533   1.387   5.509   8.090 -1.4230  0.9907 -1.0043
   35CHL1   C15 2534   1.358   5.692   8.192  0.2607 -0.4292 -0.8739
   35CHL1  H15A 2535   1.386   5.799   8.182 -1.0191  0.1391  1.0166
   35CHL1  H15B 2536   1.248   5.686   8.179  0.3381 -1.5257 -1.0364
   35CHL1   C16 2537   1.424   5.639   8.324  0.0012 -0.2089  0.2361
   35CHL1  H16A 2538   1.467   5.725   8.381  0.0043 -0.1761  0.1848
   35CHL1  H16B 2539   1.351   5.574   8.376 -1.5173  0.0280 -1.5270
   35CHL1   C17 2540   1.548   5.551   8.282 -0.2439 -0.7127 -0.6092
   35CHL1   H17 2541   1.522   5.443   8.277  4.3755 -2.0304 -0.5203
   35CHL1   C13 2542   1.576   5.590   8.132 -0.3606 -0.3805  0.4514
   35CHL1   C18 2543   1.662   5.718   8.127 -0.1181 -0.0994 -1.3426
   35CHL1  H18A 2544   1.664   5.777   8.033  1.3670  2.5650  0.2281
   35CHL1  H18B 2545   1.612   5.787   8.200  0.1732 -0.9671 -0.2962
   35CHL1  H18C 2546   1.764   5.695   8.165  0.2941  1.5656 -1.3500
   35CHL1   C12 2547   1.641   5.480   8.045  0.0196  0.0772 -0.6852
   35CHL1  H12A 2548   1.743   5.441   8.065  0.0353  0.4220 -0.0509
   35CHL1  H12B 2549   1.581   5.387   8.052 -2.6062  1.7057 -0.2722
   35CHL1   C11 2550   1.637   5.525   7.901 -0.1970  0.6905  0.2091
   35CHL1  H11A 2551   1.703   5.614   7.890 -0.2857  0.9896  1.8367
   35CHL1  H11B 2552   1.685   5.448   7.838  0.5384 -0.6888  2.3478
   35CHL1    C9 2553   1.493   5.554   7.850  0.4253  0.5651  0.5191
   35CHL1    H9 2554   1.439   5.459   7.872  1.4455 -0.1201  0.1164
   35CHL1   C10 2555   1.479   5.584   7.699 -0.7514 -0.4482  0.1356
   35CHL1   C19 2556   1.585   5.691   7.663  0.3958 -0.9302 -0.1019
   35CHL1  H19A 2557   1.565   5.780   7.725  1.9519 -0.3276 -0.4211
   35CHL1  H19B 2558   1.687   5.655   7.691 -0.3500 -0.7316  3.2456
   35CHL1  H19C 2559   1.584   5.729   7.559  4.4994  2.9482  0.9544
   35CHL1    C1 2560   1.497   5.448   7.618 -1.0323 -0.5419 -0.5861
   35CHL1   H1A 2561   1.596   5.400   7.634 -0.9790  0.1081  1.2215
   35CHL1   H1B 2562   1.431   5.383   7.680 -0.7263  1.1795  1.6674
   35CHL1    C2 2563   1.477   5.451   7.464 -0.2437 -0.0612 -0.4748
   35CHL1   H2A 2564   1.483   5.349   7.421  0.7472 -0.1147 -0.2250
   35CHL1   H2B 2565   1.558   5.510   7.417 -0.3223  0.2427 -0.2339
   35CHL1   C20 2566   1.657   5.563   8.383 -0.6080  0.0294  0.2640
   35CHL1   H20 2567   1.715   5.658   8.374  0.6587 -0.5556  1.7364
   35CHL1   C21 2568   1.751   5.440   8.362 -0.4302 -0.1732  0.5618
   35CHL1  H21A 2569   1.688   5.349   8.375 -1.6807  0.6983  0.6949
   35CHL1  H21B 2570   1.829   5.442   8.441  1.6687 -2.2571 -1.2773
   35CHL1  H21C 2571   1.802   5.455   8.265  0.1378  1.6550  1.1156
   35CHL1   C22 2572   1.614   5.559   8.533 -0.3625  0.2733 -0.5143
   35CHL1  H22A 2573   1.706   5.533   8.590  0.4978  0.2746 -1.8536
   35CHL1  H22B 2574   1.590   5.663   8.565  0.7993  0.2957  0.3493
   35CHL1   C23 2575   1.505   5.458   8.583  0.1949 -0.5984 -0.9849
   35CHL1  H23A 2576   1.419   5.448   8.514 -0.0352  0.5926 -0.9040
   35CHL1  H23B 2577   1.548   5.356   8.572  1.8993  0.0078 -0.3320
   35CHL1   C24 2578   1.468   5.492   8.733  0.3826 -0.6480  0.5445
   35CHL1  H24A 2579   1.446   5.601   8.735 -0.7577 -0.8665  0.8914
   35CHL1  H24B 2580   1.369   5.442   8.748 -1.2465  2.8434  2.6694
   35CHL1   C25 2581   1.560   5.446   8.843  0.6156  0.3035  0.2440
   35CHL1   H25 2582   1.639   5.523   8.848  1.2833 -0.4487  1.8350
   35CHL1   C26 2583   1.478   5.453   8.977  0.3065  0.7208  0.3176
   35CHL1  H26A 2584   1.560   5.445   9.050  0.2780  0.2660  0.3042
   35CHL1  H26B 2585   1.424   5.550   8.984 -2.6032 -0.2368 -4.1504
   35CHL1  H26C 2586   1.402   5.372   8.985 -1.6045  2.2655 -1.1758
   35CHL1   C27 2587   1.625   5.305   8.828 -0.5066  1.0563 -0.1332
   35CHL1  H27A 2588   1.548   5.225   8.821 -0.9580  1.4608  0.2129
   35CHL1  H27B 2589   1.689   5.286   8.917 -0.3332  2.2145 -0.0016
   35CHL1  H27C 2590   1.676   5.292   8.730 -2.0945  1.0351 -0.9897
   36CHL1    C3 2591   1.497   3.889   7.315 -0.8893 -0.4911 -0.2127
   36CHL1    H3 2592   1.491   3.782   7.346  0.2165 -0.4082  0.3670
   36CHL1    O3 2593   1.489   3.900   7.174  0.6091 -0.4939  0.3094
   36CHL1   H3' 2594   1.473   3.991   7.148 -0.2603 -0.8330 -0.3770
   36CHL1    C4 2595   1.402   3.981   7.392  0.0298 -0.3851  0.2592
   36CHL1   H4A 2596   1.419   4.086   7.359 -1.8017  0.6763  2.4177
   36CHL1   H4B 2597   1.302   3.950   7.354  1.2994 -1.8764 -2.1169
   36CHL1    C5 2598   1.420   3.969   7.546 -0.4949 -0.0491 -0.3156
   36CHL1    C6 2599   1.323   3.934   7.628  0.3341 -0.0412  0.3772
   36CHL1    H6 2600   1.222   3.921   7.587  0.8415 -0.1909 -0.8756
   36CHL1    C7 2601   1.338   3.932   7.778 -0.3617 -0.0353  0.5159
   36CHL1   H7A 2602   1.263   3.995   7.831 -2.7861 -2.2175 -0.0801
   36CHL1   H7B 2603   1.327   3.829   7.819  1.2723  0.2022  1.6316
   36CHL1    C8 2604   1.476   3.980   7.839  0.2669  0.0440 -0.6654
   36CHL1    H8 2605   1.468   4.090   7.853  1.2833  0.0626 -0.0673
   36CHL1   C14 2606   1.505   3.916   7.975  0.0214  0.4837  0.1638
   36CHL1   H14 2607   1.531   3.812   7.945  0.0730  0.9459 -1.5343
   36CHL1   C15 2608   1.393   3.901   8.069 -0.3550 -0.2013  0.6561
   36CHL1  H15A 2609   1.327   3.987   8.096  1.1023 -0.0911  4.4390
   36CHL1  H15B 2610   1.330   3.813   8.043 -0.2169 -1.1634  3.2499
   36CHL1   C16 2611   1.465   3.875   8.205 -0.3014  0.0549  0.0663
   36CHL1  H16A 2612   1.448   3.959   8.276  0.2770 -0.3715  0.7259
   36CHL1  H16B 2613   1.441   3.775   8.247 -2.0648  0.5692  0.3364
   36CHL1   C17 2614   1.626   3.876   8.178  0.0237 -0.3607  0.0955
   36CHL1   H17 2615   1.661   3.776   8.143  0.0128 -0.5864  0.7239
   36CHL1   C13 2616   1.631   3.964   8.049  0.1265 -0.0363 -0.4564
   36CHL1   C18 2617   1.618   4.119   8.082  0.5326 -0.1682  0.2352
   36CHL1  H18A 2618   1.701   4.150   8.150  0.9790  0.3756 -0.5480
   36CHL1  H18B 2619   1.641   4.181   7.993  2.6665 -0.4847  0.5098
   36CHL1  H18C 2620   1.518   4.144   8.124 -0.3508 -1.6986 -0.8775
   36CHL1   C12 2621   1.744   3.946   7.950  0.5617 -0.6190 -0.3205
   36CHL1  H12A 2622   1.833   3.993   7.997 -0.0848  0.9507 -0.5793
   36CHL1  H12B 2623   1.747   3.835   7.944 -3.7058 -0.9253 -0.4395
   36CHL1   C11 2624   1.720   3.997   7.802 -0.3500  0.4665  0.3713
   36CHL1  H11A 2625   1.720   4.107   7.814  1.1388  0.8688 -2.4012
   36CHL1  H11B 2626   1.811   3.976   7.742  0.2003  1.5546  0.7955
   36CHL1    C9 2627   1.590   3.948   7.747 -0.2020 -0.2258 -0.0170
   36CHL1    H9 2628   1.584   3.838   7.742  2.8588 -0.4945 -0.0608
   36CHL1   C10 2629   1.563   3.990   7.596 -0.5310  0.2864 -0.3842
   36CHL1   C19 2630   1.603   4.140   7.584  0.7863 -0.5979  0.2461
   36CHL1  H19A 2631   1.711   4.164   7.595  0.7755 -0.3454 -0.2026
   36CHL1  H19B 2632   1.571   4.184   7.488  2.9112  0.6713  0.0523
   36CHL1  H19C 2633   1.548   4.192   7.666  0.8790 -0.0285 -0.0520
   36CHL1    C1 2634   1.660   3.908   7.510  0.2635  0.1471 -0.7849
   36CHL1   H1A 2635   1.762   3.930   7.547  0.2370  0.0530 -0.6548
   36CHL1   H1B 2636   1.640   3.801   7.535 -1.1993 -0.0021 -2.4255
   36CHL1    C2 2637   1.648   3.931   7.358  0.7799 -0.2485 -0.4186
   36CHL1   H2A 2638   1.713   3.862   7.300 -0.3250 -0.0388 -1.9981
   36CHL1   H2B 2639   1.665   4.037   7.330 -0.3590  0.2177  0.5511
   36CHL1   C20 2640   1.710   3.913   8.298 -0.3162  0.4389  0.8057
   36CHL1   H20 2641   1.705   4.019   8.328 -2.3568  0.4891  0.4808
   36CHL1   C21 2642   1.858   3.887   8.265 -0.0859  0.2705  0.5507
   36CHL1  H21A 2643   1.894   3.944   8.177 -0.2700  0.3538  0.5278
   36CHL1  H21B 2644   1.878   3.781   8.239 -0.7338  0.5379 -1.1066
   36CHL1  H21C 2645   1.934   3.895   8.346 -0.9462 -1.5953  1.6346
   36CHL1   C22 2646   1.671   3.818   8.418 -0.1355  0.6194  0.5376
   36CHL1  H22A 2647   1.563   3.823   8.440 -0.8517 -0.7477 -2.1991
   36CHL1  H22B 2648   1.694   3.719   8.374 -1.9530 -0.4367  1.8274
   36CHL1   C23 2649   1.763   3.831   8.551  0.1925  0.0842  0.1766
   36CHL1  H23A 2650   1.862   3.781   8.537 -0.9747 -2.4247  0.4089
   36CHL1  H23B 2651   1.772   3.942   8.559  0.0458  0.0352  1.1105
   36CHL1   C24 2652   1.690   3.778   8.670  0.9939 -0.1639  0.4694
   36CHL1  H24A 2653   1.586   3.815   8.655  2.2153  2.7324 -1.9017
   36CHL1  H24B 2654   1.680   3.667   8.669 -2.3063 -0.0577 -2.7493
   36CHL1   C25 2655   1.741   3.842   8.799 -1.0433  0.1420  0.1922
   36CHL1   H25 2656   1.744   3.950   8.774 -1.1770 -0.2929 -1.9659
   36CHL1   C26 2657   1.644   3.805   8.909  0.0791 -0.2029  0.0073
   36CHL1  H26A 2658   1.542   3.822   8.869  0.7376  1.3120 -1.1317
   36CHL1  H26B 2659   1.656   3.701   8.948  2.8924  0.4435  1.1604
   36CHL1  H26C 2660   1.656   3.869   8.999 -1.9131 -0.7221  0.6863
   36CHL1   C27 2661   1.886   3.797   8.830  0.5993 -0.0872  0.2257
   36CHL1  H27A 2662   1.893   3.686   8.828 -0.5464 -0.1600 -0.7745
   36CHL1  H27B 2663   1.954   3.840   8.754 -0.7936  4.3866  1.1861
   36CHL1  H27C 2664   1.919   3.837   8.929  2.5246  1.2621 -0.9029
   37CHL1    C3 2665   5.037   1.033   7.004 -0.2822  0.0850 -0.0012
   37CHL1    H3 2666   5.142   1.064   7.026  0.8603 -0.5975 -3.6940
   37CHL1    O3 2667   5.039   1.023   6.864 -0.5883 -0.1839 -0.1466
   37CHL1   H3' 2668   4.949   0.997   6.843 -0.3839 -0.0841 -1.2286
   37CHL1    C4 2669   5.012   0.893   7.070 -0.2640 -0.0232  0.3564
   37CHL1   H4A 2670   4.915   0.855   7.031 -1.8719  1.1203  2.9558
   37CHL1   H4B 2671   5.097   0.826   7.044 -0.1294  0.3805 -0.2681
   37CHL1    C5 2672   5.011   0.909   7.216  0.2226 -0.3958 -0.0827
   37CHL1    C6 2673   5.109   0.854   7.291 -0.1558 -0.5434  0.1622
   37CHL1    H6 2674   5.187   0.783   7.259  0.8307 -0.0529  1.4104
   37CHL1    C7 2675   5.113   0.872   7.441  0.0468  0.1262  0.4485
   37CHL1   H7A 2676   5.142   0.772   7.481  1.2354 -0.3882 -1.5684
   37CHL1   H7B 2677   5.185   0.955   7.457 -1.3007  1.4501 -0.0634
   37CHL1    C8 2678   4.985   0.923   7.504  0.4126 -0.0934  0.5225
   37CHL1    H8 2679   4.908   0.843   7.513 -1.3062  1.6138  1.5055
   37CHL1   C14 2680   5.007   0.965   7.650 -0.0820  0.7945 -0.2145
   37CHL1   H14 2681   5.086   1.042   7.639  1.1505 -0.0611  2.0066
   37CHL1   C15 2682   5.080   0.865   7.742  0.7864  0.5863 -0.5532
   37CHL1  H15A 2683   5.046   0.760   7.745 -2.3481  1.5174  1.1951
   37CHL1  H15B 2684   5.190   0.855   7.729  0.5810  0.1838 -2.3088
   37CHL1   C16 2685   5.048   0.912   7.882  0.0223  0.6179 -0.0697
   37CHL1  H16A 2686   5.000   0.837   7.950  3.3290 -2.0193 -0.3723
   37CHL1  H16B 2687   5.142   0.949   7.929  0.3561  1.2137 -1.1844
   37CHL1   C17 2688   4.947   1.035   7.861 -0.0600  0.1210 -0.0380
   37CHL1   H17 2689   5.011   1.125   7.849 -0.2059  0.0454 -1.5599
   37CHL1   C13 2690   4.886   1.019   7.727  0.2397  0.0991  0.0519
   37CHL1   C18 2691   4.780   0.908   7.742  0.0869 -0.1306 -0.8950
   37CHL1  H18A 2692   4.688   0.947   7.789 -0.5041 -1.3645 -0.9848
   37CHL1  H18B 2693   4.736   0.877   7.644  1.2876 -1.8701 -0.9256
   37CHL1  H18C 2694   4.818   0.818   7.795 -2.0500  0.9017  2.6898
   37CHL1   C12 2695   4.822   1.138   7.652 -0.0982 -0.0827  0.1751
   37CHL1  H12A 2696   4.723   1.155   7.699  0.6532  2.2172  1.0646
   37CHL1  H12B 2697   4.883   1.231   7.651  0.7958 -0.6349 -1.9508
   37CHL1   C11 2698   4.800   1.103   7.506 -0.9051  0.0395  0.0094
   37CHL1  H11A 2699   4.717   1.029   7.499 -0.9386 -0.1649  2.0621
   37CHL1  H11B 2700   4.764   1.189   7.446  0.1737  1.1001  0.8496
   37CHL1    C9 2701   4.925   1.045   7.428 -0.0811 -0.4089 -0.9199
   37CHL1    H9 2702   5.002   1.126   7.431 -1.9948  1.4619  0.7557
   37CHL1   C10 2703   4.903   1.007   7.272  0.0833  0.6917 -0.8767
   37CHL1   C19 2704   4.768   0.936   7.260  0.5011 -0.5493  0.0513
   37CHL1  H19A 2705   4.762   0.860   7.341 -0.0834 -0.1633  0.3791
   37CHL1  H19B 2706   4.686   1.011   7.258  0.0497 -1.0291  0.3309
   37CHL1  H19C 2707   4.766   0.875   7.167 -2.3160  2.1408 -1.8644
   37CHL1    C1 2708   4.915   1.142   7.194 -0.0377  0.4814  0.4428
   37CHL1   H1A 2709   4.831   1.195   7.243  0.7743  0.1767  2.2646
   37CHL1   H1B 2710   5.013   1.188   7.217 -1.8743  4.4358  1.0354
   37CHL1    C2 2711   4.914   1.122   7.046  0.0796 -0.3182  0.2081
   37CHL1   H2A 2712   4.918   1.223   7.001  2.2161 -0.9023 -1.0766
   37CHL1   H2B 2713   4.817   1.073   7.023  0.2780 -1.3962  1.5425
   37CHL1   C20 2714   4.856   1.053   7.996 -0.6605  0.1521 -0.2098
   37CHL1   H20 2715   4.788   0.965   7.998 -1.5745  0.8417  1.8670
   37CHL1   C21 2716   4.793   1.193   7.992  0.5190  0.8351 -0.4207
   37CHL1  H21A 2717   4.859   1.278   7.967 -0.9599  2.9103  2.2292
   37CHL1  H21B 2718   4.758   1.219   8.094  2.2835  0.7187  0.2491
   37CHL1  H21C 2719   4.696   1.204   7.938  0.1668  1.8331  0.3720
   37CHL1   C22 2720   4.932   1.046   8.126  0.2065  0.5010 -0.5564
   37CHL1  H22A 2721   5.037   1.013   8.111  0.3557  0.8198 -0.2243
   37CHL1  H22B 2722   4.925   1.146   8.174  1.6023  0.5845 -0.4948
   37CHL1   C23 2723   4.867   0.954   8.236 -0.2930  0.0826 -0.3435
   37CHL1  H23A 2724   4.762   0.985   8.253 -0.3464  0.7152 -1.6910
   37CHL1  H23B 2725   4.862   0.846   8.209  1.0152 -0.2911  0.8165
   37CHL1   C24 2726   4.934   0.967   8.371 -0.5140 -0.5904 -0.3929
   37CHL1  H24A 2727   4.939   1.073   8.400  1.6109 -0.3763 -1.3172
   37CHL1  H24B 2728   4.879   0.903   8.443 -0.6181 -0.0958 -0.0337
   37CHL1   C25 2729   5.086   0.932   8.380  0.7895  0.3339  0.1827
   37CHL1   H25 2730   5.143   1.001   8.315 -0.1958  1.0152  0.0094
   37CHL1   C26 2731   5.128   0.957   8.526  0.0422 -0.0530 -0.2180
   37CHL1  H26A 2732   5.230   0.912   8.531 -1.1852 -3.1135 -0.0775
   37CHL1  H26B 2733   5.126   1.065   8.550 -0.2499  0.0590 -0.7408
   37CHL1  H26C 2734   5.072   0.892   8.596  3.5247 -3.8339 -0.5525
   37CHL1   C27 2735   5.107   0.786   8.334  0.6559 -0.4665  0.1690
   37CHL1  H27A 2736   5.057   0.769   8.236 -0.3876 -0.1606  0.6270
   37CHL1  H27B 2737   5.213   0.754   8.334  0.6951 -0.5539 -2.2619
   37CHL1  H27C 2738   5.045   0.721   8.399 -0.6923  0.2468 -0.3563
   38CHL1    C3 2739   1.487   0.639   6.895 -0.9414  0.2067  0.4339
   38CHL1    H3 2740   1.409   0.563   6.918 -0.7372 -0.1717 -0.0925
   38CHL1    O3 2741   1.495   0.637   6.751  0.0131  0.3917  0.4116
   38CHL1   H3' 2742   1.554   0.709   6.728  0.3714 -0.5875 -1.9374
   38CHL1    C4 2743   1.442   0.772   6.957  0.1773 -0.0301 -0.5436
   38CHL1   H4A 2744   1.521   0.840   6.919  0.9532 -1.2529 -1.1939
   38CHL1   H4B 2745   1.349   0.798   6.903  0.3793 -0.3686 -1.0703
   38CHL1    C5 2746   1.422   0.764   7.106 -0.4808 -0.1437  0.4109
   38CHL1    C6 2747   1.303   0.787   7.163 -0.1445 -0.1062  0.1116
   38CHL1    H6 2748   1.218   0.824   7.103 -0.4954  1.5734  1.5758
   38CHL1    C7 2749   1.281   0.779   7.311  0.0158 -0.5134 -0.9392
   38CHL1   H7A 2750   1.208   0.858   7.337  2.6893  2.7481 -2.5862
   38CHL1   H7B 2751   1.228   0.685   7.337 -0.4559  0.0236  0.1248
   38CHL1    C8 2752   1.407   0.775   7.398  0.3654 -0.7704 -0.0365
   38CHL1    H8 2753   1.440   0.881   7.402 -2.2375  0.0857  1.7425
   38CHL1   C14 2754   1.373   0.731   7.541 -0.2491  0.5062  0.6913
   38CHL1   H14 2755   1.343   0.624   7.539  2.1223 -0.2004 -1.4878
   38CHL1   C15 2756   1.267   0.799   7.623 -1.7792 -0.6401  0.1089
   38CHL1  H15A 2757   1.281   0.909   7.624  0.7865 -0.8730  2.6350
   38CHL1  H15B 2758   1.163   0.780   7.589 -1.4277 -1.5226 -0.5071
   38CHL1   C16 2759   1.289   0.767   7.772  0.4344 -0.3561 -0.2291
   38CHL1  H16A 2760   1.309   0.861   7.827  0.6679 -0.4400 -0.1691
   38CHL1  H16B 2761   1.198   0.714   7.808 -0.1023  0.3282 -0.5634
   38CHL1   C17 2762   1.423   0.682   7.768  0.4134  0.1847  0.3451
   38CHL1   H17 2763   1.393   0.575   7.758 -2.1205  1.0518 -2.8436
   38CHL1   C13 2764   1.496   0.718   7.635  0.5075  0.5608 -0.7289
   38CHL1   C18 2765   1.569   0.854   7.664 -0.4496  0.1860 -0.5241
   38CHL1  H18A 2766   1.656   0.839   7.731 -0.2239 -0.1794 -0.8968
   38CHL1  H18B 2767   1.604   0.903   7.571  0.2725 -1.5114 -1.1887
   38CHL1  H18C 2768   1.503   0.931   7.710 -0.2919 -1.1903  2.1483
   38CHL1   C12 2769   1.588   0.613   7.567 -0.8776 -0.0123 -0.5662
   38CHL1  H12A 2770   1.680   0.617   7.628 -0.5536 -0.8950 -0.9676
   38CHL1  H12B 2771   1.550   0.508   7.575  0.1839 -0.3795 -0.2149
   38CHL1   C11 2772   1.632   0.663   7.430 -0.3543  0.4889  0.2892
   38CHL1  H11A 2773   1.687   0.759   7.444 -1.5131  1.2663 -0.2740
   38CHL1  H11B 2774   1.707   0.592   7.390  2.6224  2.3927  2.1280
   38CHL1    C9 2775   1.511   0.682   7.337 -0.0129 -0.8722 -0.2777
   38CHL1    H9 2776   1.465   0.581   7.339  0.0385 -0.8926 -0.1036
   38CHL1   C10 2777   1.542   0.711   7.189 -0.4243  0.4177 -0.1975
   38CHL1   C19 2778   1.654   0.821   7.190  0.2703  0.2072  0.2274
   38CHL1  H19A 2779   1.687   0.853   7.089  1.1761 -2.9083 -0.5744
   38CHL1  H19B 2780   1.620   0.912   7.244  0.2098  0.5366 -0.3657
   38CHL1  H19C 2781   1.750   0.776   7.224  0.2750  0.3499  0.4024
   38CHL1    C1 2782   1.594   0.581   7.120  0.6200 -0.0041  0.3712
   38CHL1   H1A 2783   1.684   0.541   7.170  2.3655  0.5429 -2.1213
   38CHL1   H1B 2784   1.521   0.497   7.127 -0.1343  0.3495 -2.1946
   38CHL1    C2 2785   1.621   0.600   6.969  0.1978  0.5285  0.5924
   38CHL1   H2A 2786   1.660   0.511   6.914 -4.3640 -1.8747  0.8099
   38CHL1   H2B 2787   1.700   0.677   6.954  0.7946 -0.4738 -1.9129
   38CHL1   C20 2788   1.501   0.692   7.898 -0.4254 -0.1051 -0.1646
   38CHL1   H20 2789   1.546   0.791   7.923  1.2639 -1.2371  1.5609
   38CHL1   C21 2790   1.623   0.594   7.908 -0.4156 -0.0605  0.0208
   38CHL1  H21A 2791   1.706   0.599   7.835 -0.4779 -1.5906 -0.1730
   38CHL1  H21B 2792   1.583   0.492   7.893 -1.1103  0.1932  0.0930
   38CHL1  H21C 2793   1.672   0.599   8.007  0.5352  0.3491 -0.4604
   38CHL1   C22 2794   1.416   0.664   8.022 -0.3067 -0.2122 -0.0904
   38CHL1  H22A 2795   1.332   0.737   8.031 -1.9496 -2.0592  0.2810
   38CHL1  H22B 2796   1.376   0.560   8.023  2.5317 -1.3972  0.3291
   38CHL1   C23 2797   1.473   0.688   8.159  0.2034 -0.6875 -0.2507
   38CHL1  H23A 2798   1.555   0.617   8.184 -0.5303 -1.4984 -0.0679
   38CHL1  H23B 2799   1.508   0.793   8.167  0.6477 -0.9113  0.9480
   38CHL1   C24 2800   1.374   0.660   8.265  0.4784  0.6300  0.5190
   38CHL1  H24A 2801   1.284   0.723   8.251 -0.3851 -0.8547 -1.0659
   38CHL1  H24B 2802   1.339   0.555   8.250  1.6428  0.5207 -1.9489
   38CHL1   C25 2803   1.435   0.669   8.417  0.1612  0.8408  1.3275
   38CHL1   H25 2804   1.518   0.741   8.408  0.6539  0.0846 -0.8664
   38CHL1   C26 2805   1.320   0.705   8.513 -0.0507 -0.7789 -0.9147
   38CHL1  H26A 2806   1.354   0.717   8.618 -0.1238 -1.9404 -0.7479
   38CHL1  H26B 2807   1.292   0.809   8.488  1.6235  0.5918  2.2991
   38CHL1  H26C 2808   1.236   0.633   8.510 -0.9107  0.0769  1.1798
   38CHL1   C27 2809   1.518   0.546   8.456 -0.2955  0.1057  0.2595
   38CHL1  H27A 2810   1.602   0.559   8.528  1.0225  0.3565 -1.2795
   38CHL1  H27B 2811   1.452   0.463   8.490  0.5969 -1.5323 -1.7819
   38CHL1  H27C 2812   1.561   0.510   8.361  0.6381  0.2359  0.6203
   39CHL1    C3 2813   1.255   0.153   6.900 -0.0492 -0.0190  0.3902
   39CHL1    H3 2814   1.228   0.048   6.925  0.2216  0.2645  1.9697
   39CHL1    O3 2815   1.297   0.162   6.763 -0.0662 -1.0132 -0.1771
   39CHL1   H3' 2816   1.287   0.257   6.753 -0.8831 -0.8116  2.0257
   39CHL1    C4 2817   1.130   0.248   6.929  0.3845 -0.2738 -0.0754
   39CHL1   H4A 2818   1.162   0.350   6.900 -4.0070  1.5526  0.6392
   39CHL1   H4B 2819   1.046   0.216   6.863 -1.0032 -1.4394  2.0996
   39CHL1    C5 2820   1.098   0.233   7.079 -0.5641  0.3162 -0.4522
   39CHL1    C6 2821   0.981   0.187   7.123 -0.1595 -0.7202 -0.2600
   39CHL1    H6 2822   0.906   0.163   7.046 -0.2562  2.4960 -1.3480
   39CHL1    C7 2823   0.936   0.193   7.269  0.4462  0.0792 -0.0738
   39CHL1   H7A 2824   0.838   0.244   7.277 -0.2024 -1.0570 -0.4973
   39CHL1   H7B 2825   0.938   0.098   7.327  0.6482  0.1816  0.0893
   39CHL1    C8 2826   1.029   0.283   7.352 -0.2009  0.3892 -0.0060
   39CHL1    H8 2827   1.005   0.389   7.331 -1.0215  0.1045 -0.5655
   39CHL1   C14 2828   1.004   0.253   7.500 -0.8738  0.2187  0.6279
   39CHL1   H14 2829   1.028   0.146   7.519  1.9102  0.5945 -0.3214
   39CHL1   C15 2830   0.868   0.285   7.556  0.7660  0.1632 -0.2457
   39CHL1  H15A 2831   0.813   0.373   7.514  0.8829 -1.2263 -3.6083
   39CHL1  H15B 2832   0.797   0.201   7.539  1.4338 -0.5181  0.2914
   39CHL1   C16 2833   0.898   0.301   7.710 -0.0813  0.5628  0.1222
   39CHL1  H16A 2834   0.845   0.392   7.748 -0.7623 -0.1953  1.0424
   39CHL1  H16B 2835   0.863   0.207   7.758 -0.7980 -0.3290 -2.0238
   39CHL1   C17 2836   1.046   0.293   7.733 -0.2144  0.0360 -0.4997
   39CHL1   H17 2837   1.072   0.187   7.749  1.9665  0.5936  0.0137
   39CHL1   C13 2838   1.106   0.324   7.592 -0.2624 -0.7418 -0.0838
   39CHL1   C18 2839   1.091   0.474   7.574  0.9217 -0.2486 -0.3860
   39CHL1  H18A 2840   1.150   0.529   7.651  1.1864  0.8419 -1.3237
   39CHL1  H18B 2841   1.122   0.519   7.477 -0.9019  0.4660 -0.6765
   39CHL1  H18C 2842   0.990   0.519   7.587  1.0583 -0.5581  2.4006
   39CHL1   C12 2843   1.250   0.281   7.563  0.4137 -0.1592  0.5243
   39CHL1  H12A 2844   1.330   0.328   7.625  1.6803 -2.4271  0.7073
   39CHL1  H12B 2845   1.248   0.171   7.581 -0.4395  0.1763  2.8527
   39CHL1   C11 2846   1.280   0.299   7.421  0.3484  0.6479  0.5837
   39CHL1  H11A 2847   1.277   0.409   7.406 -1.4498  0.4312 -1.1489
   39CHL1  H11B 2848   1.381   0.262   7.393 -0.2637 -1.0362  0.4320
   39CHL1    C9 2849   1.173   0.249   7.317  0.4247 -0.6518 -0.1750
   39CHL1    H9 2850   1.190   0.141   7.335  1.2885 -0.1249  2.7511
   39CHL1   C10 2851   1.209   0.281   7.170  0.4577  0.0212 -0.3417
   39CHL1   C19 2852   1.215   0.429   7.150 -0.6859 -0.3013  0.6706
   39CHL1  H19A 2853   1.288   0.483   7.214 -0.7229  0.5530  0.0023
   39CHL1  H19B 2854   1.238   0.455   7.045  0.6849 -3.1309  0.1661
   39CHL1  H19C 2855   1.123   0.488   7.168  0.2333  1.4914 -0.2789
   39CHL1    C1 2856   1.342   0.209   7.140 -0.1939  0.4653  0.1881
   39CHL1   H1A 2857   1.419   0.277   7.183 -0.7054  0.3937  1.2485
   39CHL1   H1B 2858   1.346   0.103   7.174 -1.2157 -0.6400 -2.7982
   39CHL1    C2 2859   1.371   0.189   6.991 -0.4275 -0.1682 -0.3012
   39CHL1   H2A 2860   1.454   0.116   6.988  0.3274  0.5879  1.1191
   39CHL1   H2B 2861   1.413   0.288   6.962 -0.9085  0.2495  0.4006
   39CHL1   C20 2862   1.090   0.362   7.867  1.0183  0.0845 -0.5812
   39CHL1   H20 2863   1.090   0.473   7.852  1.0952  0.4056  1.5638
   39CHL1   C21 2864   1.233   0.313   7.902  0.2777  0.1077 -0.9544
   39CHL1  H21A 2865   1.298   0.309   7.811  0.5175 -0.9732 -0.7474
   39CHL1  H21B 2866   1.228   0.212   7.948  1.1686  0.0673 -0.9233
   39CHL1  H21C 2867   1.271   0.385   7.978  0.3452 -0.4920 -0.4167
   39CHL1   C22 2868   1.000   0.326   7.986 -0.3771  0.1336  0.1951
   39CHL1  H22A 2869   0.898   0.362   7.961 -0.8079 -0.6202  0.8198
   39CHL1  H22B 2870   0.996   0.217   8.007  0.3162  0.3836  1.6773
   39CHL1   C23 2871   1.032   0.398   8.117 -0.0832  0.0958 -1.2953
   39CHL1  H23A 2872   1.127   0.358   8.158 -0.0388  0.0681 -1.4237
   39CHL1  H23B 2873   1.037   0.509   8.114  1.4152  0.1006  0.0590
   39CHL1   C24 2874   0.920   0.365   8.217 -0.0542  0.1260 -0.2346
   39CHL1  H24A 2875   0.822   0.381   8.166 -0.6138 -1.3729  0.3134
   39CHL1  H24B 2876   0.921   0.257   8.241  0.0386  0.2872  0.5075
   39CHL1   C25 2877   0.949   0.437   8.349  0.1961  0.6149  0.0248
   39CHL1   H25 2878   0.984   0.536   8.313  0.6168 -0.3331 -2.3851
   39CHL1   C26 2879   0.830   0.456   8.446 -0.2202 -0.3273  0.2960
   39CHL1  H26A 2880   0.761   0.529   8.399  1.3704  1.5409  0.7149
   39CHL1  H26B 2881   0.781   0.361   8.477  1.2978 -0.9586  0.9040
   39CHL1  H26C 2882   0.874   0.508   8.534  0.5899  0.6278 -0.6550
   39CHL1   C27 2883   1.071   0.371   8.423 -0.7737  0.3778 -0.3299
   39CHL1  H27A 2884   1.161   0.356   8.360 -0.4361  1.3228 -0.0839
   39CHL1  H27B 2885   1.095   0.422   8.518  2.6555  0.6740 -1.2290
   39CHL1  H27C 2886   1.039   0.266   8.441 -1.6329  0.4539 -1.3172
   40CHL1    C3 2887   4.808   4.478   7.115  0.0294  0.0471  0.3265
   40CHL1    H3 2888   4.775   4.374   7.139 -1.5958  0.3983 -0.2508
   40CHL1    O3 2889   4.779   4.509   6.974  0.2039  0.5144 -0.2106
   40CHL1   H3' 2890   4.859   4.555   6.946  0.7414 -0.5073 -0.4382
   40CHL1    C4 2891   4.720   4.565   7.204 -0.5176  0.0946 -0.3863
   40CHL1   H4A 2892   4.739   4.668   7.168  1.0480  0.6482  1.7945
   40CHL1   H4B 2893   4.615   4.538   7.181 -0.8802  1.1392 -0.0029
   40CHL1    C5 2894   4.751   4.568   7.349  0.7998 -0.7269 -0.3371
   40CHL1    C6 2895   4.658   4.545   7.444  0.1583 -0.2702  0.2518
   40CHL1    H6 2896   4.558   4.539   7.397  0.7582  1.1476 -1.3059
   40CHL1    C7 2897   4.680   4.524   7.584 -1.2597  0.1856  0.2492
   40CHL1   H7A 2898   4.608   4.581   7.647 -0.6869  0.4798  0.6442
   40CHL1   H7B 2899   4.664   4.417   7.609  1.5501  0.0912  2.0475
   40CHL1    C8 2900   4.817   4.565   7.632  0.0401  0.6746  0.7580
   40CHL1    H8 2901   4.815   4.676   7.629 -0.3023  0.6525 -1.4649
   40CHL1   C14 2902   4.855   4.517   7.778 -0.4260  0.4344  1.0751
   40CHL1   H14 2903   4.848   4.406   7.777  1.5173  0.2572 -1.1052
   40CHL1   C15 2904   4.760   4.553   7.895 -0.2607 -0.4287 -1.2475
   40CHL1  H15A 2905   4.733   4.660   7.888  0.2001  0.0285  2.1435
   40CHL1  H15B 2906   4.673   4.484   7.894  0.3356 -1.2376 -0.0880
   40CHL1   C16 2907   4.850   4.527   8.018 -0.9468  0.6188 -0.2262
   40CHL1  H16A 2908   4.854   4.614   8.087  1.2979  0.2076  0.2327
   40CHL1  H16B 2909   4.806   4.438   8.068  0.8562 -0.6404 -0.7831
   40CHL1   C17 2910   4.990   4.490   7.970  0.4508  0.6661  0.6569
   40CHL1   H17 2911   5.006   4.382   7.950 -0.0837  0.7506 -0.2532
   40CHL1   C13 2912   4.993   4.558   7.830 -0.0358 -0.1919  0.2519
   40CHL1   C18 2913   4.995   4.712   7.851  0.1862  0.4692 -0.7173
   40CHL1  H18A 2914   4.941   4.751   7.939  1.3831  1.7479 -0.5136
   40CHL1  H18B 2915   5.100   4.742   7.876 -0.5209  3.3552 -0.8752
   40CHL1  H18C 2916   4.971   4.760   7.754 -1.5316  1.1191 -0.0082
   40CHL1   C12 2917   5.093   4.509   7.727  0.1415 -0.0509  0.2099
   40CHL1  H12A 2918   5.198   4.536   7.752 -0.3926  1.9252  0.5315
   40CHL1  H12B 2919   5.093   4.398   7.730  3.3128 -0.2334 -1.8271
   40CHL1   C11 2920   5.065   4.564   7.583 -0.0575 -0.0824 -0.1964
   40CHL1  H11A 2921   5.077   4.675   7.588  0.7390 -0.0227 -2.4415
   40CHL1  H11B 2922   5.150   4.529   7.521 -0.4608 -0.2074 -0.6819
   40CHL1    C9 2923   4.924   4.520   7.534 -0.0771 -0.2641 -0.6175
   40CHL1    H9 2924   4.928   4.409   7.539  0.1677 -0.2117  1.8051
   40CHL1   C10 2925   4.896   4.564   7.391  0.2861 -0.0843 -0.3195
   40CHL1   C19 2926   4.938   4.711   7.365 -0.3187 -1.2117  0.2177
   40CHL1  H19A 2927   4.902   4.747   7.266  1.1964 -3.7249 -1.3417
   40CHL1  H19B 2928   4.913   4.775   7.453 -0.3020 -1.5677  0.4820
   40CHL1  H19C 2929   5.049   4.714   7.357 -0.0323 -1.3832  2.9522
   40CHL1    C1 2930   4.977   4.466   7.296  1.1304 -0.7290 -0.3387
   40CHL1   H1A 2931   5.087   4.476   7.304  1.0573  2.6132 -2.0734
   40CHL1   H1B 2932   4.946   4.362   7.319  0.0220 -0.2780  0.2659
   40CHL1    C2 2933   4.954   4.488   7.144 -0.0600  0.6432 -0.5570
   40CHL1   H2A 2934   5.016   4.415   7.086 -0.1640 -1.5864  1.9427
   40CHL1   H2B 2935   4.989   4.589   7.116 -1.5460  1.5007  0.5250
   40CHL1   C20 2936   5.093   4.528   8.079 -0.3651 -0.0916  0.7475
   40CHL1   H20 2937   5.116   4.637   8.086  2.6824 -0.6846  1.5871
   40CHL1   C21 2938   5.229   4.453   8.045  0.3465 -0.1215  0.4173
   40CHL1  H21A 2939   5.311   4.487   8.113  0.9218  0.5992 -0.6019
   40CHL1  H21B 2940   5.277   4.487   7.950  1.3747 -0.8076  0.6700
   40CHL1  H21C 2941   5.219   4.343   8.055  2.9205 -0.4018  0.8386
   40CHL1   C22 2942   5.054   4.472   8.220 -0.7668  0.2845  0.2671
   40CHL1  H22A 2943   4.948   4.501   8.241 -1.8342  0.0282 -3.9652
   40CHL1  H22B 2944   5.068   4.362   8.221 -2.8411 -0.0362  0.7042
   40CHL1   C23 2945   5.129   4.535   8.337  0.4936 -0.6007 -0.2929
   40CHL1  H23A 2946   5.239   4.524   8.328  0.4123 -1.4751 -0.3243
   40CHL1  H23B 2947   5.092   4.639   8.347 -0.2106 -1.0418  2.7589
   40CHL1   C24 2948   5.096   4.467   8.477  0.0764  0.3358  0.2894
   40CHL1  H24A 2949   4.988   4.439   8.483  0.4940 -0.9897  2.3792
   40CHL1  H24B 2950   5.154   4.374   8.494 -0.3544  0.1453  0.7375
   40CHL1   C25 2951   5.128   4.546   8.602 -0.0771  0.1585 -0.2369
   40CHL1   H25 2952   5.238   4.549   8.609  0.2846 -4.7931 -0.1329
   40CHL1   C26 2953   5.080   4.693   8.599  0.5761 -0.6492  0.2132
   40CHL1  H26A 2954   4.970   4.690   8.583  0.8551 -0.9602 -1.8920
   40CHL1  H26B 2955   5.104   4.747   8.694 -2.9664 -2.0619  2.1207
   40CHL1  H26C 2956   5.117   4.744   8.508 -1.0721 -2.6292 -1.6708
   40CHL1   C27 2957   5.072   4.468   8.730 -0.5546  0.5610  0.2221
   40CHL1  H27A 2958   5.122   4.369   8.737  0.1973  1.0113  1.5178
   40CHL1  H27B 2959   5.085   4.518   8.828 -3.3309  0.4132  0.7576
   40CHL1  H27C 2960   4.970   4.432   8.703 -0.0170 -0.3821 -0.6319
   41CHL1    C3 2961   5.003   6.136   7.160  0.3048 -0.3578  0.3205
   41CHL1    H3 2962   5.092   6.071   7.159  1.9006  1.6876 -1.3343
   41CHL1    O3 2963   4.965   6.158   7.029 -0.7832 -0.4944  0.1333
   41CHL1   H3' 2964   5.016   6.231   6.992 -1.3576  0.4151  1.1130
   41CHL1    C4 2965   4.887   6.073   7.231  0.2166  0.5706  0.5081
   41CHL1   H4A 2966   4.797   6.135   7.210  2.3118  2.5672 -3.9487
   41CHL1   H4B 2967   4.870   5.977   7.178  3.0191  1.8643 -3.1840
   41CHL1    C5 2968   4.906   6.063   7.380 -0.7432 -0.3779  0.4101
   41CHL1    C6 2969   4.901   5.948   7.447  0.2170 -0.1778  0.5459
   41CHL1    H6 2970   4.881   5.851   7.399  1.4871  0.0145 -0.4071
   41CHL1    C7 2971   4.924   5.949   7.598 -0.0593  0.4151  0.1368
   41CHL1   H7A 2972   4.877   5.861   7.647  1.1372 -0.9181 -1.0420
   41CHL1   H7B 2973   5.033   5.937   7.618  0.3667  2.2816 -0.8221
   41CHL1    C8 2974   4.899   6.084   7.672 -0.4840 -0.0382  0.0538
   41CHL1    H8 2975   4.788   6.096   7.668 -0.3892  0.9579  0.1443
   41CHL1   C14 2976   4.958   6.080   7.809  0.0016  0.1629  0.1338
   41CHL1   H14 2977   5.066   6.055   7.804 -0.3925 -2.1283  1.8982
   41CHL1   C15 2978   4.902   5.971   7.891  0.0737 -0.7631 -0.3718
   41CHL1  H15A 2979   4.794   5.957   7.872 -0.9135 -0.2161  3.8048
   41CHL1  H15B 2980   4.939   5.866   7.882 -3.9172 -2.3604  0.0037
   41CHL1   C16 2981   4.914   6.020   8.037  0.4161  0.3655 -0.2027
   41CHL1  H16A 2982   4.820   6.021   8.096 -0.2333 -2.1435 -1.0501
   41CHL1  H16B 2983   4.981   5.954   8.097  0.0795  0.8208  0.6983
   41CHL1   C17 2984   4.973   6.159   8.032 -0.0050 -0.3327 -0.3525
   41CHL1   H17 2985   5.083   6.149   8.024  0.5014  3.6350 -0.4150
   41CHL1   C13 2986   4.931   6.211   7.891  0.4282 -0.0072 -0.1892
   41CHL1   C18 2987   4.782   6.242   7.891  0.3541 -0.2192  0.4051
   41CHL1  H18A 2988   4.734   6.264   7.794  0.1609 -0.4342  0.4500
   41CHL1  H18B 2989   4.723   6.155   7.928 -0.7027 -0.0792 -0.9055
   41CHL1  H18C 2990   4.764   6.317   7.971 -2.2728 -2.0683  1.7113
   41CHL1   C12 2991   5.014   6.317   7.818  0.2962  0.0796  0.3976
   41CHL1  H12A 2992   5.017   6.419   7.861  0.2918  0.5100 -0.5919
   41CHL1  H12B 2993   5.121   6.290   7.812  0.4805  0.9016 -0.2938
   41CHL1   C11 2994   4.957   6.329   7.676 -0.3045 -0.6431  0.2850
   41CHL1  H11A 2995   4.854   6.369   7.670  0.0355  0.5276  1.7226
   41CHL1  H11B 2996   5.027   6.396   7.621 -1.4841 -1.0464 -1.8452
   41CHL1    C9 2997   4.968   6.196   7.600  0.6562  0.3210  0.3116
   41CHL1    H9 2998   5.076   6.168   7.599  0.4333 -0.5794 -0.0346
   41CHL1   C10 2999   4.936   6.206   7.455 -0.1366 -0.5737  0.1855
   41CHL1   C19 3000   4.801   6.286   7.443  0.1992  0.2104 -0.1357
   41CHL1  H19A 3001   4.803   6.389   7.485  2.4188 -0.8968  2.7957
   41CHL1  H19B 3002   4.782   6.290   7.334 -1.8650  1.1702  0.2113
   41CHL1  H19C 3003   4.713   6.239   7.493 -0.5299  0.9786 -0.6688
   41CHL1    C1 3004   5.052   6.282   7.375  0.4072 -0.4900  0.6497
   41CHL1   H1A 3005   5.039   6.386   7.412 -1.4805 -0.4469 -0.0200
   41CHL1   H1B 3006   5.153   6.241   7.396  0.9989  0.7403  0.2802
   41CHL1    C2 3007   5.028   6.277   7.219  0.2829  0.5929 -0.0549
   41CHL1   H2A 3008   5.113   6.321   7.165 -0.9221 -0.9653 -3.4932
   41CHL1   H2B 3009   4.941   6.340   7.191 -2.0055 -1.6704  1.4629
   41CHL1   C20 3010   4.952   6.239   8.162  0.1289  0.0105  0.3566
   41CHL1   H20 3011   4.843   6.239   8.184  0.3642  0.9807  1.6720
   41CHL1   C21 3012   4.997   6.379   8.145  0.1024  0.3876 -0.1527
   41CHL1  H21A 3013   4.949   6.439   8.065 -0.9748  0.9065  0.8625
   41CHL1  H21B 3014   5.108   6.379   8.133  0.1831 -0.0522  0.5501
   41CHL1  H21C 3015   4.979   6.426   8.244 -2.3408  0.0059 -0.3538
   41CHL1   C22 3016   5.020   6.177   8.280 -0.5128  0.8684  0.1194
   41CHL1  H22A 3017   5.069   6.079   8.259 -1.1177 -0.2491  3.2662
   41CHL1  H22B 3018   5.100   6.245   8.316 -0.2058  0.8663 -0.5424
   41CHL1   C23 3019   4.932   6.130   8.400 -0.1124  0.2678 -0.0137
   41CHL1  H23A 3020   4.988   6.102   8.492  0.6661  2.9045  0.4084
   41CHL1  H23B 3021   4.870   6.213   8.441  0.4159 -0.2076  1.8555
   41CHL1   C24 3022   4.846   6.007   8.373  0.0068 -0.7444 -0.5047
   41CHL1  H24A 3023   4.760   6.015   8.303  0.6415  0.0843 -1.2099
   41CHL1  H24B 3024   4.924   5.946   8.323 -1.0021 -0.8787 -1.9791
   41CHL1   C25 3025   4.800   5.934   8.498 -0.5925 -0.1356 -0.9891
   41CHL1   H25 3026   4.889   5.914   8.562 -0.7456  1.5158 -0.2058
   41CHL1   C26 3027   4.715   6.027   8.580  0.2176  0.0448 -0.1188
   41CHL1  H26A 3028   4.627   6.067   8.525 -0.4229 -1.1367  0.0026
   41CHL1  H26B 3029   4.680   5.981   8.674  0.3260  0.2380  0.0172
   41CHL1  H26C 3030   4.784   6.109   8.608  0.8382 -0.8850  1.1380
   41CHL1   C27 3031   4.734   5.796   8.469  0.3097 -0.9376  0.1657
   41CHL1  H27A 3032   4.641   5.821   8.412  0.2715  1.1559  1.0634
   41CHL1  H27B 3033   4.796   5.733   8.402 -0.3663  0.3358 -1.7544
   41CHL1  H27C 3034   4.703   5.753   8.567  0.4674  0.9758  1.0895
   42CHL1    C3 3035   0.352   4.081   7.178  0.0978  0.0295  0.5049
   42CHL1    H3 3036   0.460   4.062   7.198  0.2984  1.3534  0.7549
   42CHL1    O3 3037   0.334   4.096   7.036  0.3725 -0.1836 -0.0118
   42CHL1   H3' 3038   0.362   4.015   6.994 -1.5367 -1.8439  1.6673
   42CHL1    C4 3039   0.268   3.966   7.236 -0.0696 -0.1588  0.3202
   42CHL1   H4A 3040   0.166   3.975   7.195 -0.3563  0.6116  1.1548
   42CHL1   H4B 3041   0.314   3.874   7.195  1.2954  0.9074 -0.6197
   42CHL1    C5 3042   0.267   3.969   7.388  0.9787 -0.2562 -0.6129
   42CHL1    C6 3043   0.293   3.851   7.455 -0.1510  0.6668 -0.0812
   42CHL1    H6 3044   0.307   3.756   7.402 -1.6247 -0.2176  1.0209
   42CHL1    C7 3045   0.293   3.831   7.600  0.2243 -0.4751 -0.0373
   42CHL1   H7A 3046   0.223   3.747   7.618 -2.5167  1.1963 -2.1020
   42CHL1   H7B 3047   0.389   3.794   7.641 -0.6204 -1.0000  1.5542
   42CHL1    C8 3048   0.223   3.956   7.668  0.0088 -0.2979  0.3570
   42CHL1    H8 3049   0.113   3.943   7.656  0.1206 -0.7014 -0.2777
   42CHL1   C14 3050   0.255   3.950   7.814 -0.4194  0.5938 -0.0490
   42CHL1   H14 3051   0.365   3.960   7.819 -0.3071 -0.7663  0.7606
   42CHL1   C15 3052   0.233   3.817   7.890 -0.4966  0.4756 -0.4799
   42CHL1  H15A 3053   0.127   3.789   7.877 -0.7892  1.0787  0.5129
   42CHL1  H15B 3054   0.305   3.736   7.867  1.2365  0.7111  3.3163
   42CHL1   C16 3055   0.243   3.858   8.040  0.0657 -0.1297  0.2869
   42CHL1  H16A 3056   0.149   3.829   8.093 -0.2807 -1.2760 -0.9153
   42CHL1  H16B 3057   0.339   3.819   8.079  1.9864  1.5272 -2.4207
   42CHL1   C17 3058   0.258   4.013   8.041 -0.0974 -0.4829  0.4489
   42CHL1   H17 3059   0.369   4.019   8.036 -0.1213 -0.8657 -1.0695
   42CHL1   C13 3060   0.204   4.063   7.903  0.3452  0.1846 -0.4733
   42CHL1   C18 3061   0.047   4.067   7.908 -0.2997 -0.0340  0.2705
   42CHL1  H18A 3062   0.012   4.079   7.804  0.2553  0.8035  0.1690
   42CHL1  H18B 3063  -0.002   3.979   7.954 -1.0910 -0.8794 -2.0666
   42CHL1  H18C 3064   0.019   4.159   7.964  1.5343  0.9398 -0.3077
   42CHL1   C12 3065   0.272   4.197   7.851  0.2641 -0.2154  0.2306
   42CHL1  H12A 3066   0.265   4.286   7.918 -1.8748 -1.4902  1.8497
   42CHL1  H12B 3067   0.378   4.164   7.864 -0.4855 -3.0662 -0.2323
   42CHL1   C11 3068   0.238   4.214   7.707 -0.2143  0.0309 -0.2059
   42CHL1  H11A 3069   0.129   4.240   7.703 -0.4358 -0.9991 -2.4546
   42CHL1  H11B 3070   0.302   4.301   7.682  0.7654 -0.8416 -0.7730
   42CHL1    C9 3071   0.270   4.090   7.616  0.7136 -0.6700  0.4144
   42CHL1    H9 3072   0.379   4.067   7.617  0.5773 -1.3646  0.1040
   42CHL1   C10 3073   0.231   4.094   7.468  0.3108 -0.6858  0.3023
   42CHL1   C19 3074   0.082   4.126   7.445 -0.8680  0.1346 -0.1021
   42CHL1  H19A 3075   0.024   4.036   7.473  0.0175 -0.5508 -0.4266
   42CHL1  H19B 3076   0.062   4.216   7.507  0.9271 -0.1522  0.9618
   42CHL1  H19C 3077   0.058   4.147   7.339 -2.6762 -2.3043 -0.2623
   42CHL1    C1 3078   0.322   4.206   7.398  0.1639  0.0274  0.4199
   42CHL1   H1A 3079   0.322   4.314   7.426  2.5738  0.5153 -1.1717
   42CHL1   H1B 3080   0.426   4.169   7.412 -0.9033 -3.3897  0.0773
   42CHL1    C2 3081   0.317   4.215   7.240  0.2395  0.4688 -0.7023
   42CHL1   H2A 3082   0.382   4.297   7.200  2.1680 -1.1057 -0.9904
   42CHL1   H2B 3083   0.211   4.239   7.217 -0.5241  0.1541  2.1604
   42CHL1   C20 3084   0.209   4.078   8.174  0.3371  0.4392  0.3385
   42CHL1   H20 3085   0.100   4.070   8.194  0.8548 -0.0343  3.4980
   42CHL1   C21 3086   0.236   4.227   8.180  0.1901  0.1793  0.0088
   42CHL1  H21A 3087   0.345   4.229   8.160 -0.1035 -0.3990 -1.9227
   42CHL1  H21B 3088   0.207   4.271   8.277  1.4990  2.2193 -0.4739
   42CHL1  H21C 3089   0.190   4.280   8.094  2.7921 -0.1614 -1.6975
   42CHL1   C22 3090   0.271   4.004   8.296  0.0392  0.4956  0.0274
   42CHL1  H22A 3091   0.240   3.898   8.290 -0.5119  0.6817 -0.6070
   42CHL1  H22B 3092   0.382   4.007   8.290 -0.0125  0.4834 -1.4333
   42CHL1   C23 3093   0.219   4.060   8.431  0.7099 -0.1632 -0.2052
   42CHL1  H23A 3094   0.259   4.162   8.452 -0.6233  0.2642  0.4186
   42CHL1  H23B 3095   0.108   4.070   8.429  0.4154 -2.3930  1.2003
   42CHL1   C24 3096   0.249   3.969   8.547  0.2062  0.1415  0.0151
   42CHL1  H24A 3097   0.217   3.865   8.526 -0.6244  0.3915  0.0005
   42CHL1  H24B 3098   0.359   3.954   8.554 -0.0279 -1.2035  1.4069
   42CHL1   C25 3099   0.189   4.023   8.681  0.1381 -0.1689  0.7707
   42CHL1   H25 3100   0.213   4.131   8.678  0.7088 -0.3120 -2.2999
   42CHL1   C26 3101   0.044   4.000   8.697 -0.2408 -0.1722 -0.5052
   42CHL1  H26A 3102   0.014   4.046   8.793  1.4495  2.0492 -0.9429
   42CHL1  H26B 3103  -0.024   4.035   8.616  0.9625  1.8845 -0.6902
   42CHL1  H26C 3104   0.019   3.892   8.706  0.3801 -0.2797 -0.0299
   42CHL1   C27 3105   0.257   3.957   8.807  0.5080  0.6826 -0.3608
   42CHL1  H27A 3106   0.210   3.856   8.812 -2.2338  1.9354  2.7432
   42CHL1  H27B 3107   0.225   4.010   8.899 -1.0338 -0.6261 -0.0961
   42CHL1  H27C 3108   0.366   3.953   8.789  0.3357  4.2737 -3.5902
   43CHL1    C3 3109   6.144   0.343   7.161  0.4377 -0.3472  0.5501
   43CHL1    H3 3110   6.198   0.429   7.204 -0.5559  1.7936 -2.1816
   43CHL1    O3 3111   6.198   0.354   7.028 -0.5914  0.2736  0.5465
   43CHL1   H3' 3112   6.291   0.328   7.034 -0.7344 -0.3703  0.0919
   43CHL1    C4 3113   6.196   0.212   7.230  0.2740 -1.0134 -0.0490
   43CHL1   H4A 3114   6.141   0.123   7.191 -1.1340 -0.5350  0.7668
   43CHL1   H4B 3115   6.306   0.202   7.218  0.8823  1.4383  2.4659
   43CHL1    C5 3116   6.153   0.223   7.377 -0.1810 -0.7720  1.2419
   43CHL1    C6 3117   6.238   0.215   7.480 -0.3560 -0.1131  0.3745
   43CHL1    H6 3118   6.343   0.198   7.451 -0.2021 -0.1727  0.9636
   43CHL1    C7 3119   6.204   0.207   7.625  0.9091  0.3906  0.4318
   43CHL1   H7A 3120   6.261   0.120   7.664  1.6612 -0.2469 -1.9208
   43CHL1   H7B 3121   6.246   0.297   7.676  0.9342  0.9183 -0.5052
   43CHL1    C8 3122   6.048   0.173   7.643  0.5241  0.1328  0.4036
   43CHL1    H8 3123   6.031   0.070   7.606  2.6242 -0.1002 -0.0415
   43CHL1   C14 3124   6.003   0.193   7.786 -0.4623  0.2629  0.3211
   43CHL1   H14 3125   6.033   0.299   7.801  0.2267  0.4956 -2.1333
   43CHL1   C15 3126   6.069   0.107   7.894  0.7978  0.2360  0.2226
   43CHL1  H15A 3127   6.080   0.003   7.855 -0.9037 -0.8554  2.4685
   43CHL1  H15B 3128   6.170   0.142   7.924  1.6067 -2.7829  1.4134
   43CHL1   C16 3129   5.978   0.119   8.013  1.1489 -0.2397 -0.5647
   43CHL1  H16A 3130   5.936   0.026   8.058 -1.1836  1.5907  1.3563
   43CHL1  H16B 3131   6.027   0.181   8.091 -0.5582  0.9863 -0.3825
   43CHL1   C17 3132   5.858   0.206   7.972  0.9956  0.6528 -0.0710
   43CHL1   H17 3133   5.886   0.310   7.999  0.4434  0.3869  1.6322
   43CHL1   C13 3134   5.855   0.192   7.815  0.6132 -0.4465 -0.4502
   43CHL1   C18 3135   5.795   0.051   7.783 -0.1205 -0.5089  0.4452
   43CHL1  H18A 3136   5.686   0.035   7.802 -0.1311 -3.1683 -1.3608
   43CHL1  H18B 3137   5.803   0.042   7.673 -0.3324  0.6808  0.3185
   43CHL1  H18C 3138   5.847  -0.030   7.839 -0.2827  0.5796  2.2684
   43CHL1   C12 3139   5.794   0.305   7.730 -0.4745 -0.4615 -0.1265
   43CHL1  H12A 3140   5.683   0.308   7.737 -0.6578 -1.2161 -2.0669
   43CHL1  H12B 3141   5.842   0.400   7.761 -2.1396  0.9591 -1.6294
   43CHL1   C11 3142   5.818   0.279   7.579 -0.2774  0.0457  0.0622
   43CHL1  H11A 3143   5.759   0.190   7.545  0.2219  0.2724 -1.4552
   43CHL1  H11B 3144   5.776   0.359   7.515 -1.6951 -1.0509 -0.4586
   43CHL1    C9 3145   5.969   0.265   7.546 -0.1826  0.4012 -0.1650
   43CHL1    H9 3146   6.010   0.366   7.566 -0.5182  0.3580  0.7874
   43CHL1   C10 3147   6.000   0.243   7.395 -0.4374 -0.2138 -0.8570
   43CHL1   C19 3148   5.918   0.119   7.354  0.0677 -0.3205 -0.3449
   43CHL1  H19A 3149   5.814   0.154   7.340  0.5730  1.9728  1.0926
   43CHL1  H19B 3150   5.950   0.074   7.257 -1.5943 -1.9432 -0.1943
   43CHL1  H19C 3151   5.924   0.039   7.431 -0.5721  0.7367  0.8493
   43CHL1    C1 3152   5.955   0.368   7.307 -0.0448 -0.1988  0.1626
   43CHL1   H1A 3153   5.844   0.369   7.312 -0.0170 -1.4850  1.6501
   43CHL1   H1B 3154   6.004   0.457   7.352  0.6645 -0.5853  0.1744
   43CHL1    C2 3155   5.998   0.361   7.164 -0.5379 -0.0940  0.0151
   43CHL1   H2A 3156   5.976   0.460   7.118 -2.4058  1.2812  3.5017
   43CHL1   H2B 3157   5.958   0.279   7.100 -2.3388  1.6845 -1.2546
   43CHL1   C20 3158   5.720   0.180   8.051 -0.0618  0.6266 -0.8363
   43CHL1   H20 3159   5.679   0.078   8.042 -0.1398  0.3309  1.8735
   43CHL1   C21 3160   5.608   0.275   7.996  0.3520  0.9263 -0.1843
   43CHL1  H21A 3161   5.662   0.368   7.966  0.3141  0.5747 -1.3889
   43CHL1  H21B 3162   5.534   0.300   8.075 -0.4828 -0.1169 -0.6153
   43CHL1  H21C 3163   5.556   0.230   7.908  2.1460 -0.3753 -0.6403
   43CHL1   C22 3164   5.723   0.197   8.212 -0.5849 -0.3750  0.1805
   43CHL1  H22A 3165   5.620   0.195   8.252 -0.1221 -1.5792  1.4133
   43CHL1  H22B 3166   5.770   0.108   8.259  1.9477  0.3731 -0.7562
   43CHL1   C23 3167   5.793   0.323   8.248 -0.1309  0.0077 -0.0765
   43CHL1  H23A 3168   5.898   0.296   8.223 -0.7319 -0.3504 -2.4980
   43CHL1  H23B 3169   5.766   0.409   8.183  1.3958 -0.1605 -0.9643
   43CHL1   C24 3170   5.771   0.349   8.398  0.0197 -0.6148 -0.2143
   43CHL1  H24A 3171   5.668   0.377   8.429  0.3234  0.3129 -0.0233
   43CHL1  H24B 3172   5.809   0.267   8.463  0.8932  2.1117  3.0279
   43CHL1   C25 3173   5.868   0.458   8.447 -0.2949  0.1776  0.2981
   43CHL1   H25 3174   5.969   0.428   8.412  0.1948 -1.7551  2.9757
   43CHL1   C26 3175   5.838   0.597   8.381 -0.3265  0.0858  0.5359
   43CHL1  H26A 3176   5.733   0.603   8.345 -0.3384 -0.7397  0.4181
   43CHL1  H26B 3177   5.858   0.672   8.461 -1.1110  0.3507  0.4915
   43CHL1  H26C 3178   5.913   0.621   8.303  1.8005 -1.4275  2.0122
   43CHL1   C27 3179   5.875   0.469   8.601  0.0957 -0.2910 -0.4074
   43CHL1  H27A 3180   5.779   0.509   8.638  0.7593  1.7146 -0.7179
   43CHL1  H27B 3181   5.899   0.370   8.646  4.0781  0.4635 -0.4918
   43CHL1  H27C 3182   5.954   0.538   8.638 -0.1515  0.5501 -1.3985
   44CHL1    C3 3183   6.228   5.940   6.945 -0.2524  0.0816  0.2833
   44CHL1    H3 3184   6.144   6.002   6.983  0.3329  1.1778 -0.1700
   44CHL1    O3 3185   6.234   5.933   6.802 -0.3409 -0.0227 -0.3960
   44CHL1   H3' 3186   6.321   5.897   6.788 -0.1151 -0.0783  0.9919
   44CHL1    C4 3187   6.347   6.021   6.998  0.8832 -0.5099  0.1717
   44CHL1   H4A 3188   6.447   5.983   6.971  0.2497 -2.2575  0.1490
   44CHL1   H4B 3189   6.348   6.120   6.948  2.1870  0.5223  2.1018
   44CHL1    C5 3190   6.332   6.030   7.150  0.0493 -0.6571 -0.5121
   44CHL1    C6 3191   6.337   6.146   7.212 -0.3328 -0.4214 -0.9876
   44CHL1    H6 3192   6.336   6.244   7.161 -0.3940  1.2145  1.9098
   44CHL1    C7 3193   6.331   6.169   7.357  0.0546  0.3744 -0.2478
   44CHL1   H7A 3194   6.410   6.243   7.383  1.7389 -0.2180 -3.2295
   44CHL1   H7B 3195   6.233   6.215   7.384 -0.3801 -0.2981 -0.6462
   44CHL1    C8 3196   6.366   6.040   7.438 -0.1637  0.3840 -0.3573
   44CHL1    H8 3197   6.477   6.037   7.444 -0.0828  1.5879 -0.9541
   44CHL1   C14 3198   6.314   6.057   7.578  0.9064 -0.2090 -1.0112
   44CHL1   H14 3199   6.204   6.065   7.566  0.7183  0.3210  0.8090
   44CHL1   C15 3200   6.351   6.180   7.660 -0.2050  0.2396  0.4288
   44CHL1  H15A 3201   6.457   6.206   7.639  0.1902 -2.4118 -1.3369
   44CHL1  H15B 3202   6.281   6.259   7.626  0.8209  0.4140 -1.4427
   44CHL1   C16 3203   6.339   6.133   7.807 -1.1786 -0.0047 -0.0226
   44CHL1  H16A 3204   6.437   6.153   7.855 -1.2734  0.9592 -0.2143
   44CHL1  H16B 3205   6.268   6.193   7.866 -1.6891 -1.0613  0.4646
   44CHL1   C17 3206   6.282   5.994   7.805 -0.5630 -0.6435 -1.0002
   44CHL1   H17 3207   6.172   6.011   7.799 -0.4730 -0.1886 -1.4654
   44CHL1   C13 3208   6.336   5.940   7.677 -0.2415 -0.3285 -0.2128
   44CHL1   C18 3209   6.486   5.905   7.684 -0.6018  0.0521 -0.4579
   44CHL1  H18A 3210   6.545   5.994   7.715 -0.1826 -0.1392 -0.6969
   44CHL1  H18B 3211   6.502   5.822   7.756 -1.0908  0.6293  0.3299
   44CHL1  H18C 3212   6.526   5.861   7.590  3.2525  1.0187  0.5774
   44CHL1   C12 3213   6.262   5.820   7.608 -0.2686  0.0734 -0.6611
   44CHL1  H12A 3214   6.273   5.732   7.674  0.9394  0.3345 -0.4771
   44CHL1  H12B 3215   6.154   5.837   7.587 -0.0124  1.4125 -1.0528
   44CHL1   C11 3216   6.313   5.793   7.464 -0.2791 -0.1189  0.5720
   44CHL1  H11A 3217   6.412   5.744   7.469 -1.4879 -2.6982  0.7019
   44CHL1  H11B 3218   6.259   5.710   7.413 -0.0956  0.1050  0.0056
   44CHL1    C9 3219   6.296   5.919   7.371 -0.4177 -0.6457 -0.6612
   44CHL1    H9 3220   6.189   5.947   7.373  0.3544  2.6350  0.6554
   44CHL1   C10 3221   6.334   5.900   7.225 -0.3891 -0.6616  0.3694
   44CHL1   C19 3222   6.479   5.847   7.212 -0.8298 -0.9678 -0.6139
   44CHL1  H19A 3223   6.557   5.915   7.253 -1.6624 -0.9721  1.0560
   44CHL1  H19B 3224   6.478   5.750   7.266 -1.9981 -0.9275 -0.5281
   44CHL1  H19C 3225   6.500   5.823   7.106 -1.7785 -0.3919 -0.9402
   44CHL1    C1 3226   6.242   5.799   7.148  0.7407  0.7555 -0.6309
   44CHL1   H1A 3227   6.256   5.696   7.187 -2.9644  0.5725  0.6348
   44CHL1   H1B 3228   6.139   5.824   7.183  0.4224  3.7574 -3.2593
   44CHL1    C2 3229   6.238   5.797   6.994 -0.5242  0.2280 -0.3323
   44CHL1   H2A 3230   6.150   5.741   6.957 -0.5243 -1.6179  2.2124
   44CHL1   H2B 3231   6.332   5.755   6.952 -1.2033 -0.5676 -1.0778
   44CHL1   C20 3232   6.314   5.911   7.933 -0.1670  0.2830 -0.7179
   44CHL1   H20 3233   6.418   5.871   7.928  0.8127  2.1021  2.2856
   44CHL1   C21 3234   6.217   5.792   7.959 -0.4132  0.4748 -0.0603
   44CHL1  H21A 3235   6.245   5.738   8.052  0.4398  1.1505  0.0862
   44CHL1  H21B 3236   6.224   5.719   7.876 -0.9120  2.2441 -1.7408
   44CHL1  H21C 3237   6.113   5.819   7.987 -0.3598 -0.7145  1.4404
   44CHL1   C22 3238   6.314   6.001   8.063 -0.3848 -0.3005 -0.1459
   44CHL1  H22A 3239   6.398   6.074   8.058 -0.3971 -0.2389  0.4728
   44CHL1  H22B 3240   6.222   6.062   8.068  0.6245  1.2911 -0.0327
   44CHL1   C23 3241   6.330   5.937   8.205  0.3495 -0.4537  0.2801
   44CHL1  H23A 3242   6.233   5.888   8.231 -0.2412  1.0500  1.0377
   44CHL1  H23B 3243   6.419   5.871   8.197  1.0545  0.3633  1.1416
   44CHL1   C24 3244   6.342   6.040   8.326 -0.0386  0.4866 -0.3193
   44CHL1  H24A 3245   6.432   6.101   8.301  0.5719 -0.2284  0.0787
   44CHL1  H24B 3246   6.253   6.105   8.317  2.6847  5.2417  2.8413
   44CHL1   C25 3247   6.359   5.979   8.466  0.3395  0.2211  0.3240
   44CHL1   H25 3248   6.465   5.950   8.481  0.6587  1.4770  0.5995
   44CHL1   C26 3249   6.317   6.097   8.557 -0.2763  0.4683  0.0650
   44CHL1  H26A 3250   6.385   6.183   8.542  0.0752  0.1397 -0.2394
   44CHL1  H26B 3251   6.209   6.121   8.547 -0.2685  1.2997  1.6599
   44CHL1  H26C 3252   6.325   6.067   8.664  0.9679 -0.3045 -0.2323
   44CHL1   C27 3253   6.265   5.855   8.489  0.0096  0.0712  0.0094
   44CHL1  H27A 3254   6.272   5.817   8.594  1.3102 -1.4722 -0.5961
   44CHL1  H27B 3255   6.157   5.870   8.467 -0.4170 -1.5285  0.8045
   44CHL1  H27C 3256   6.291   5.764   8.431 -0.4354 -0.5970  0.8417
   45CHL1    C3 3257   1.064   4.499   6.944  0.2321 -0.1789  0.5703
   45CHL1    H3 3258   1.175   4.499   6.935  0.0716 -1.5718 -2.4595
   45CHL1    O3 3259   0.992   4.482   6.817 -0.0080 -0.2917 -0.0988
   45CHL1   H3' 3260   0.903   4.485   6.851  0.7435  0.5563  2.0221
   45CHL1    C4 3261   1.024   4.374   7.027 -0.1165  0.2639 -0.1713
   45CHL1   H4A 3262   0.914   4.362   7.026 -0.0068 -0.9052 -0.2199
   45CHL1   H4B 3263   1.071   4.286   6.978  1.1619 -0.0501  1.5037
   45CHL1    C5 3264   1.086   4.386   7.167  0.6446  0.4978 -0.3155
   45CHL1    C6 3265   1.163   4.290   7.222  0.4411  0.9926  0.0669
   45CHL1    H6 3266   1.186   4.208   7.153  0.4076  1.9799 -1.1484
   45CHL1    C7 3267   1.214   4.287   7.365  0.2102  0.4124  0.1856
   45CHL1   H7A 3268   1.194   4.191   7.418  0.4129  1.1634  1.6698
   45CHL1   H7B 3269   1.324   4.306   7.372  0.4140 -0.7293  0.2662
   45CHL1    C8 3270   1.142   4.400   7.449 -1.1007  0.7774  0.0157
   45CHL1    H8 3271   1.044   4.353   7.475 -0.6194 -0.0015  0.4426
   45CHL1   C14 3272   1.211   4.422   7.578 -0.0361 -0.5769  0.2217
   45CHL1   H14 3273   1.309   4.469   7.551 -1.7640  1.8789 -2.3082
   45CHL1   C15 3274   1.244   4.295   7.651 -0.7580  0.2782  0.0916
   45CHL1  H15A 3275   1.144   4.247   7.642 -1.4384  0.8086  3.2683
   45CHL1  H15B 3276   1.331   4.236   7.617  0.0063  1.2037  0.4021
   45CHL1   C16 3277   1.255   4.331   7.795 -0.2650 -0.3014 -0.0077
   45CHL1  H16A 3278   1.185   4.267   7.853 -1.6972  0.2754 -1.0290
   45CHL1  H16B 3279   1.358   4.322   7.835  0.7358  1.3104 -2.0219
   45CHL1   C17 3280   1.230   4.490   7.797  0.4955  0.6321 -0.1864
   45CHL1   H17 3281   1.326   4.543   7.778  0.9508  0.6960  2.0805
   45CHL1   C13 3282   1.144   4.522   7.677  0.5065  0.6370  0.9804
   45CHL1   C18 3283   0.996   4.480   7.704  0.1479  0.9115  0.1188
   45CHL1  H18A 3284   0.996   4.374   7.738 -1.5232  1.2437  1.2924
   45CHL1  H18B 3285   0.944   4.541   7.782  0.0346 -0.4031  1.1161
   45CHL1  H18C 3286   0.933   4.487   7.613  2.3130 -1.6109 -1.7119
   45CHL1   C12 3287   1.145   4.661   7.608 -1.1182 -0.1146  1.1986
   45CHL1  H12A 3288   1.095   4.737   7.672 -0.1014  0.7875  0.9536
   45CHL1  H12B 3289   1.249   4.699   7.595 -1.0083 -0.3175  1.4864
   45CHL1   C11 3290   1.083   4.656   7.464  0.2560 -0.5867  0.2763
   45CHL1  H11A 3291   0.973   4.656   7.481  0.2908 -1.8794  0.5884
   45CHL1  H11B 3292   1.115   4.746   7.408 -4.3790  2.6912  2.2137
   45CHL1    C9 3293   1.130   4.535   7.376 -0.3431  0.3238  0.1128
   45CHL1    H9 3294   1.233   4.563   7.345  0.0900  0.8499  1.8895
   45CHL1   C10 3295   1.048   4.519   7.239  0.8444 -0.1339 -0.1429
   45CHL1   C19 3296   0.896   4.509   7.277 -0.4947 -0.5236  0.7994
   45CHL1  H19A 3297   0.862   4.609   7.312  1.0479  0.6601 -0.8853
   45CHL1  H19B 3298   0.824   4.498   7.193  1.6689  2.7026 -1.7710
   45CHL1  H19C 3299   0.885   4.428   7.352 -0.7704 -1.3216 -0.0911
   45CHL1    C1 3300   1.073   4.643   7.152 -0.7624  0.0614  0.0135
   45CHL1   H1A 3301   1.027   4.735   7.195  0.2463  1.0796 -1.0217
   45CHL1   H1B 3302   1.182   4.659   7.148 -0.6217 -0.6599  0.7101
   45CHL1    C2 3303   1.026   4.633   7.005 -0.2863 -0.0895  0.2792
   45CHL1   H2A 3304   1.092   4.706   6.952  1.6179 -2.1910 -0.3878
   45CHL1   H2B 3305   0.918   4.651   6.984 -0.0677 -1.3224 -2.2384
   45CHL1   C20 3306   1.189   4.532   7.940  0.2241  0.1875  0.0965
   45CHL1   H20 3307   1.083   4.504   7.954  0.7176 -1.9553 -0.0510
   45CHL1   C21 3308   1.211   4.686   7.943  0.5945 -0.5732  0.8174
   45CHL1  H21A 3309   1.312   4.714   7.907  0.6013  0.5793  1.6668
   45CHL1  H21B 3310   1.187   4.736   8.039  0.3227 -0.2652  0.5916
   45CHL1  H21C 3311   1.135   4.729   7.875  1.0697 -0.8642  0.0916
   45CHL1   C22 3312   1.268   4.460   8.054 -0.0447 -0.7372 -0.2783
   45CHL1  H22A 3313   1.263   4.349   8.048 -0.2672 -0.6779 -1.5641
   45CHL1  H22B 3314   1.372   4.498   8.045 -0.4296  0.2321 -0.8270
   45CHL1   C23 3315   1.213   4.485   8.195  0.0324 -0.0840 -0.0497
   45CHL1  H23A 3316   1.293   4.436   8.256  1.5097 -1.8726 -3.1657
   45CHL1  H23B 3317   1.228   4.593   8.215  2.0768 -0.1568 -0.8699
   45CHL1   C24 3318   1.075   4.427   8.238  0.3424 -0.4555 -0.2217
   45CHL1  H24A 3319   0.999   4.489   8.185 -0.6178  0.2392  1.8251
   45CHL1  H24B 3320   1.072   4.319   8.213 -0.8330 -1.3976  3.3772
   45CHL1   C25 3321   1.023   4.449   8.382 -0.0132  0.2647 -0.0591
   45CHL1   H25 3322   0.915   4.421   8.389 -0.1684  1.0800  1.0719
   45CHL1   C26 3323   1.097   4.363   8.484  0.2735  0.5866 -0.0125
   45CHL1  H26A 3324   1.179   4.414   8.538  2.9007  0.4398 -3.5281
   45CHL1  H26B 3325   1.033   4.317   8.562 -0.3641  3.8958  1.6055
   45CHL1  H26C 3326   1.146   4.274   8.440  0.8802  0.1378  1.5145
   45CHL1   C27 3327   1.019   4.593   8.412  0.0989 -0.2419 -0.8934
   45CHL1  H27A 3328   1.123   4.629   8.427  0.1215 -0.3571 -0.7706
   45CHL1  H27B 3329   0.961   4.646   8.334  0.0139 -1.1933 -1.4895
   45CHL1  H27C 3330   0.974   4.620   8.510 -0.4933 -0.9219 -0.9679
   46CHL1    C3 3331   0.256   5.149   7.154 -0.5287 -0.1332 -0.6587
   46CHL1    H3 3332   0.218   5.254   7.149  1.2320  0.5108 -1.3950
   46CHL1    O3 3333   0.272   5.100   7.026 -0.2241 -0.5462  0.3175
   46CHL1   H3' 3334   0.360   5.063   7.026 -0.1720 -0.4840 -1.2783
   46CHL1    C4 3335   0.389   5.154   7.228  0.9061 -0.5226 -0.9697
   46CHL1   H4A 3336   0.447   5.059   7.227  1.3035 -0.2959 -2.8754
   46CHL1   H4B 3337   0.454   5.222   7.168  1.7426 -2.0804 -1.9141
   46CHL1    C5 3338   0.374   5.203   7.369  0.4682  0.6318 -0.2106
   46CHL1    C6 3339   0.442   5.305   7.418  0.4317  0.7194 -0.8145
   46CHL1    H6 3340   0.507   5.358   7.347 -0.7100  0.9744 -1.6942
   46CHL1    C7 3341   0.449   5.358   7.561  0.2759  0.1418 -0.0939
   46CHL1   H7A 3342   0.553   5.380   7.593  0.5996 -1.0807 -0.2620
   46CHL1   H7B 3343   0.390   5.452   7.551 -1.1520 -0.7957 -0.8103
   46CHL1    C8 3344   0.382   5.253   7.656  0.0689 -0.3338 -0.3183
   46CHL1    H8 3345   0.451   5.166   7.670 -0.2751 -0.7045 -0.8621
   46CHL1   C14 3346   0.361   5.314   7.788 -0.0886  1.2401  0.1445
   46CHL1   H14 3347   0.291   5.397   7.767 -0.1463  0.6405 -2.3523
   46CHL1   C15 3348   0.477   5.383   7.856 -1.1224 -0.1968  0.3268
   46CHL1  H15A 3349   0.572   5.326   7.853 -0.6627  0.4646  1.6077
   46CHL1  H15B 3350   0.503   5.485   7.819  2.7717 -1.0957  0.1991
   46CHL1   C16 3351   0.433   5.386   8.002 -0.0204  0.1006  0.2750
   46CHL1  H16A 3352   0.515   5.357   8.072  0.6182 -0.0657 -0.5276
   46CHL1  H16B 3353   0.414   5.493   8.028 -1.0437 -0.6459  2.8637
   46CHL1   C17 3354   0.295   5.305   8.021 -0.1468 -0.0551  1.1284
   46CHL1   H17 3355   0.216   5.383   8.012  0.2869  0.5169  2.0572
   46CHL1   C13 3356   0.284   5.218   7.888 -0.3720  0.0592 -0.6511
   46CHL1   C18 3357   0.380   5.096   7.920  0.5728 -0.1305  0.5900
   46CHL1  H18A 3358   0.325   5.037   7.997  0.3181  1.5334  1.7325
   46CHL1  H18B 3359   0.378   5.031   7.829  1.3249  0.7247 -0.0530
   46CHL1  H18C 3360   0.487   5.106   7.947  0.7740 -0.7954  0.0894
   46CHL1   C12 3361   0.141   5.197   7.825  0.6357  1.1227 -0.3199
   46CHL1  H12A 3362   0.088   5.125   7.892  2.4916 -1.9543 -1.9268
   46CHL1  H12B 3363   0.097   5.299   7.814 -1.4330  0.3050 -0.1455
   46CHL1   C11 3364   0.150   5.129   7.684  0.0922  0.3573 -0.0573
   46CHL1  H11A 3365   0.190   5.025   7.694  0.2572  0.3922 -0.3324
   46CHL1  H11B 3366   0.044   5.131   7.650 -0.6112  2.7752  2.0069
   46CHL1    C9 3367   0.245   5.203   7.585 -0.1494  0.3291 -0.4562
   46CHL1    H9 3368   0.197   5.302   7.569 -0.3175  0.1817 -0.8771
   46CHL1   C10 3369   0.267   5.130   7.448 -0.9673 -0.4003 -1.3188
   46CHL1   C19 3370   0.324   4.986   7.484 -0.1108 -0.3271 -0.3378
   46CHL1  H19A 3371   0.412   5.007   7.549 -0.2133  2.1947 -0.9209
   46CHL1  H19B 3372   0.257   4.928   7.551  0.1373  0.1601  0.3405
   46CHL1  H19C 3373   0.347   4.929   7.391 -1.5238  1.5971 -1.9514
   46CHL1    C1 3374   0.133   5.115   7.379  0.2019 -0.2332 -0.1130
   46CHL1   H1A 3375   0.060   5.050   7.431 -1.0302  1.7925  0.8000
   46CHL1   H1B 3376   0.084   5.214   7.375  1.2951  0.3001 -1.3632
   46CHL1    C2 3377   0.153   5.065   7.228 -0.3825  0.1596 -0.1628
   46CHL1   H2A 3378   0.058   5.062   7.170 -0.9425 -2.6806  0.7283
   46CHL1   H2B 3379   0.194   4.963   7.247 -1.9509 -0.0475  2.7326
   46CHL1   C20 3380   0.282   5.253   8.164  0.7012  0.4977 -0.8038
   46CHL1   H20 3381   0.365   5.181   8.178 -1.1078 -1.5406  0.0942
   46CHL1   C21 3382   0.143   5.194   8.177 -0.2270 -0.4803  0.4400
   46CHL1  H21A 3383   0.133   5.144   8.276  0.9653 -0.1800  0.7281
   46CHL1  H21B 3384   0.126   5.116   8.100  0.3531 -1.6770  1.4780
   46CHL1  H21C 3385   0.065   5.273   8.168 -1.9809 -2.1344  0.2661
   46CHL1   C22 3386   0.315   5.358   8.273 -0.2282  0.3677  0.2898
   46CHL1  H22A 3387   0.411   5.408   8.250  1.3438 -2.5381  0.0160
   46CHL1  H22B 3388   0.232   5.431   8.280 -1.7489 -1.0124 -1.8230
   46CHL1   C23 3389   0.333   5.301   8.407  0.1162 -0.2616  0.1435
   46CHL1  H23A 3390   0.237   5.261   8.446  1.2306 -0.8358  2.4546
   46CHL1  H23B 3391   0.399   5.214   8.391 -1.1074 -1.4660  1.4166
   46CHL1   C24 3392   0.401   5.380   8.522 -0.5344 -0.0295  1.2332
   46CHL1  H24A 3393   0.499   5.410   8.481 -0.2103 -3.5054 -1.0274
   46CHL1  H24B 3394   0.340   5.467   8.555  0.1693  0.4679  1.2274
   46CHL1   C25 3395   0.445   5.306   8.653 -0.7328 -0.3176 -0.0442
   46CHL1   H25 3396   0.493   5.208   8.631 -2.0616 -1.4302  1.7259
   46CHL1   C26 3397   0.554   5.394   8.727  0.3406  1.2139 -0.5140
   46CHL1  H26A 3398   0.634   5.425   8.656 -0.8391 -0.2396 -2.6003
   46CHL1  H26B 3399   0.503   5.470   8.790 -3.2932 -1.5558  0.2625
   46CHL1  H26C 3400   0.604   5.321   8.794 -2.1882  0.4238  0.6566
   46CHL1   C27 3401   0.323   5.280   8.743  0.2954 -0.1277 -0.2757
   46CHL1  H27A 3402   0.284   5.368   8.798 -0.9458 -0.6222 -0.3411
   46CHL1  H27B 3403   0.233   5.245   8.688  0.6478 -0.2731 -0.7682
   46CHL1  H27C 3404   0.352   5.195   8.809  0.9734  0.5386  0.3095
   47CHL1    C3 3405   5.721   5.762   6.973 -1.0671 -0.0040  0.9655
   47CHL1    H3 3406   5.638   5.830   7.002 -2.2206 -1.0564  0.2418
   47CHL1    O3 3407   5.755   5.745   6.841  0.2875  0.7377 -0.2335
   47CHL1   H3' 3408   5.822   5.676   6.839 -0.2022  0.2293  0.4900
   47CHL1    C4 3409   5.851   5.806   7.037  0.3115 -0.0905  0.2119
   47CHL1   H4A 3410   5.928   5.728   7.016  0.5632 -0.0556  0.9782
   47CHL1   H4B 3411   5.890   5.904   7.001  0.3952  0.0734  0.7430
   47CHL1    C5 3412   5.831   5.807   7.190  0.5876 -0.8362  0.3253
   47CHL1    C6 3413   5.842   5.921   7.261 -0.1986  0.1852  0.3129
   47CHL1    H6 3414   5.874   6.011   7.206  2.3669 -2.0658 -2.1428
   47CHL1    C7 3415   5.839   5.932   7.411  0.3079 -0.2371 -0.4509
   47CHL1   H7A 3416   5.926   5.989   7.450  0.9248 -0.7315 -1.0842
   47CHL1   H7B 3417   5.754   5.992   7.449 -0.2687 -0.6834 -1.0297
   47CHL1    C8 3418   5.847   5.792   7.486  0.2708 -0.0091  0.4435
   47CHL1    H8 3419   5.951   5.757   7.469  0.4987  1.7262 -2.4880
   47CHL1   C14 3420   5.805   5.810   7.627 -0.0986  0.0496 -1.3308
   47CHL1   H14 3421   5.701   5.849   7.624 -1.1282 -2.1087  1.5687
   47CHL1   C15 3422   5.884   5.911   7.716  0.2575 -0.6894  0.5455
   47CHL1  H15A 3423   5.995   5.908   7.708  0.2052 -1.1025 -0.1877
   47CHL1  H15B 3424   5.855   6.015   7.690 -0.3187 -0.3075  2.5389
   47CHL1   C16 3425   5.832   5.875   7.859  0.2436 -0.4196  0.2933
   47CHL1  H16A 3426   5.917   5.895   7.928  1.6562  0.8492 -1.7177
   47CHL1  H16B 3427   5.753   5.949   7.885 -0.4650 -0.7447 -0.8708
   47CHL1   C17 3428   5.767   5.732   7.852 -0.2385  0.0616  0.2036
   47CHL1   H17 3429   5.657   5.748   7.857 -0.3488 -0.3741 -0.6667
   47CHL1   C13 3430   5.802   5.684   7.712 -0.2315 -0.4207  0.3657
   47CHL1   C18 3431   5.946   5.635   7.720 -0.0213  0.2268 -0.5075
   47CHL1  H18A 3432   6.008   5.709   7.775  0.1018  0.2469 -0.6700
   47CHL1  H18B 3433   5.959   5.537   7.771  0.7114  0.6965  0.2367
   47CHL1  H18C 3434   6.001   5.623   7.624 -2.9981 -3.0001 -2.0396
   47CHL1   C12 3435   5.709   5.584   7.640  0.2591 -0.0076  0.3084
   47CHL1  H12A 3436   5.713   5.482   7.684 -0.2055 -0.0822  0.1832
   47CHL1  H12B 3437   5.606   5.625   7.649  0.8113  1.1089  2.0541
   47CHL1   C11 3438   5.745   5.558   7.490 -0.3605 -0.6129 -0.4722
   47CHL1  H11A 3439   5.848   5.518   7.501  0.1701  1.2028  2.4807
   47CHL1  H11B 3440   5.677   5.479   7.453  1.9425 -2.4573 -0.9937
   47CHL1    C9 3441   5.753   5.696   7.415 -0.0317  0.3326  0.3541
   47CHL1    H9 3442   5.651   5.738   7.424 -0.1200  0.7001 -1.8408
   47CHL1   C10 3443   5.790   5.680   7.263  0.4566  0.1603  0.2342
   47CHL1   C19 3444   5.903   5.578   7.245  0.0533 -0.3323  0.8593
   47CHL1  H19A 3445   5.940   5.577   7.140 -1.3770  0.9649  0.3005
   47CHL1  H19B 3446   5.980   5.601   7.322 -0.5750  0.7115  1.1929
   47CHL1  H19C 3447   5.856   5.484   7.281 -2.3732  0.4420 -0.0974
   47CHL1    C1 3448   5.663   5.635   7.193  0.5702  0.1327  0.3204
   47CHL1   H1A 3449   5.624   5.540   7.236  1.1237 -0.0819  0.3513
   47CHL1   H1B 3450   5.578   5.704   7.213  0.2950 -0.6912  2.1607
   47CHL1    C2 3451   5.671   5.628   7.034  0.3404 -0.0054 -0.1040
   47CHL1   H2A 3452   5.575   5.603   6.984  0.3366  0.6546 -0.4470
   47CHL1   H2B 3453   5.747   5.553   7.002 -1.6097 -2.3059  0.3973
   47CHL1   C20 3454   5.800   5.644   7.971  0.3211  0.5308 -0.0021
   47CHL1   H20 3455   5.910   5.629   7.978  0.3785  1.6174  4.0250
   47CHL1   C21 3456   5.728   5.511   7.949  0.3315 -1.0080  0.1043
   47CHL1  H21A 3457   5.757   5.443   7.866 -2.6530 -0.8102 -1.2246
   47CHL1  H21B 3458   5.621   5.539   7.944  0.2332 -1.6667 -2.2626
   47CHL1  H21C 3459   5.721   5.446   8.039 -3.2041 -1.2179 -0.1733
   47CHL1   C22 3460   5.749   5.706   8.103 -0.2672 -0.2446 -0.3095
   47CHL1  H22A 3461   5.762   5.817   8.100 -1.8935  0.1112  2.5509
   47CHL1  H22B 3462   5.640   5.687   8.107 -0.2870 -0.7582 -2.2773
   47CHL1   C23 3463   5.810   5.647   8.235 -0.3445 -0.1151  0.0773
   47CHL1  H23A 3464   5.815   5.536   8.226  1.9817 -0.0894  0.5259
   47CHL1  H23B 3465   5.913   5.688   8.241 -0.2358 -0.3795  0.0342
   47CHL1   C24 3466   5.741   5.690   8.358  0.2685 -0.2978 -0.6565
   47CHL1  H24A 3467   5.731   5.799   8.344 -2.5847 -0.1877  1.4559
   47CHL1  H24B 3468   5.634   5.658   8.350 -0.6941  2.1587  1.3195
   47CHL1   C25 3469   5.791   5.638   8.495  0.0750  0.5114  0.7052
   47CHL1   H25 3470   5.777   5.528   8.489 -1.5524  0.7550 -0.6536
   47CHL1   C26 3471   5.940   5.670   8.531 -0.4544  0.1332 -0.7697
   47CHL1  H26A 3472   6.008   5.656   8.445  1.6487  2.5822  0.3778
   47CHL1  H26B 3473   5.959   5.773   8.566 -1.1317  0.3609 -1.0570
   47CHL1  H26C 3474   5.984   5.597   8.603 -0.2555 -0.0575 -1.0814
   47CHL1   C27 3475   5.699   5.685   8.608  0.6444  0.1251 -0.1900
   47CHL1  H27A 3476   5.733   5.655   8.709  0.8193  0.0830 -0.2598
   47CHL1  H27B 3477   5.692   5.795   8.597  2.0786  0.3885  1.0886
   47CHL1  H27C 3478   5.604   5.631   8.587  1.2378 -1.1913  0.3636
   48CHL1    C3 3479   3.000   1.507   6.725 -0.7137 -1.2153 -1.1142
   48CHL1    H3 3480   3.063   1.416   6.739  0.3010 -0.7982 -2.6471
   48CHL1    O3 3481   2.993   1.512   6.588 -0.2022 -0.0503  0.2293
   48CHL1   H3' 3482   2.952   1.596   6.567  0.4773 -0.3048 -2.3446
   48CHL1    C4 3483   2.866   1.502   6.797 -0.2519  0.2425 -0.5253
   48CHL1   H4A 3484   2.815   1.598   6.772 -0.4824  0.7062  1.5379
   48CHL1   H4B 3485   2.815   1.414   6.752 -2.5605  1.5361 -0.6546
   48CHL1    C5 3486   2.871   1.491   6.941  0.0326  0.2647 -0.1018
   48CHL1    C6 3487   2.808   1.393   7.012  0.1049  0.5579  0.2967
   48CHL1    H6 3488   2.753   1.310   6.964 -0.3217  0.3062  1.1941
   48CHL1    C7 3489   2.806   1.385   7.161 -0.5391  0.1520 -0.2083
   48CHL1   H7A 3490   2.706   1.347   7.190  0.2034 -3.3947 -1.7619
   48CHL1   H7B 3491   2.885   1.319   7.202 -2.0419 -0.4080  1.9439
   48CHL1    C8 3492   2.850   1.513   7.238  0.4069  0.0584  0.8202
   48CHL1    H8 3493   2.760   1.576   7.221 -1.7173 -2.7537  0.9047
   48CHL1   C14 3494   2.878   1.492   7.389  0.1229 -0.4190  0.2259
   48CHL1   H14 3495   2.958   1.415   7.387  0.3331 -0.1905 -0.1256
   48CHL1   C15 3496   2.770   1.429   7.471 -0.1061 -0.2284  0.6243
   48CHL1  H15A 3497   2.674   1.478   7.444 -0.4110 -0.4785  1.2122
   48CHL1  H15B 3498   2.751   1.322   7.450  4.2727 -1.0337 -0.1343
   48CHL1   C16 3499   2.813   1.458   7.613  0.9821 -0.0191 -0.3221
   48CHL1  H16A 3500   2.724   1.504   7.662  0.9400 -1.6505  1.2309
   48CHL1  H16B 3501   2.849   1.374   7.676  0.9719  0.2380  0.0367
   48CHL1   C17 3502   2.934   1.557   7.593  0.8764  0.3307 -0.0149
   48CHL1   H17 3503   3.028   1.499   7.584 -0.3001 -2.3400  3.0806
   48CHL1   C13 3504   2.917   1.625   7.458  0.1368  0.5620 -0.7016
   48CHL1   C18 3505   2.800   1.726   7.464  0.1671  0.1942  0.0829
   48CHL1  H18A 3506   2.831   1.814   7.525 -1.9290  0.3831  0.9800
   48CHL1  H18B 3507   2.767   1.760   7.363 -1.2600 -2.1635 -0.3299
   48CHL1  H18C 3508   2.707   1.693   7.516 -0.4381  0.4904 -0.7773
   48CHL1   C12 3509   3.053   1.674   7.393 -0.4907 -0.3607  0.4308
   48CHL1  H12A 3510   3.098   1.762   7.443  0.7262 -1.1515  0.7668
   48CHL1  H12B 3511   3.126   1.592   7.409  0.7111  0.6101  0.0308
   48CHL1   C11 3512   3.037   1.702   7.239 -0.5483  1.2336 -0.2419
   48CHL1  H11A 3513   2.971   1.791   7.230  0.5171  2.2327  1.1852
   48CHL1  H11B 3514   3.136   1.720   7.192  0.9998 -0.7149  2.0689
   48CHL1    C9 3515   2.973   1.577   7.165  0.6050 -0.5297  0.4353
   48CHL1    H9 3516   3.049   1.496   7.163  1.3350  0.1170  1.2440
   48CHL1   C10 3517   2.946   1.601   7.015 -0.2151  0.8459  0.2578
   48CHL1   C19 3518   2.872   1.737   6.994 -0.5439 -0.0287 -0.4455
   48CHL1  H19A 3519   2.781   1.733   7.058 -1.0656 -3.0104 -1.1820
   48CHL1  H19B 3520   2.935   1.821   7.028 -1.4554 -0.6116  3.0417
   48CHL1  H19C 3521   2.848   1.744   6.885 -2.4122 -0.4635 -0.0956
   48CHL1    C1 3522   3.082   1.623   6.940  0.3250 -0.1496  0.2839
   48CHL1   H1A 3523   3.128   1.716   6.979  0.0962  0.2019 -0.2846
   48CHL1   H1B 3524   3.142   1.532   6.962 -1.7513 -2.3178 -2.2243
   48CHL1    C2 3525   3.076   1.630   6.780  0.6360 -0.1859 -0.5339
   48CHL1   H2A 3526   3.183   1.633   6.748  0.8059 -1.8293 -0.2303
   48CHL1   H2B 3527   3.026   1.722   6.745 -0.1081 -0.7878 -1.0637
   48CHL1   C20 3528   2.966   1.641   7.715  0.1850  0.5571  0.0615
   48CHL1   H20 3529   3.031   1.722   7.675 -0.2978  1.3548  0.8587
   48CHL1   C21 3530   3.035   1.540   7.814  0.1753  0.5926  0.2186
   48CHL1  H21A 3531   2.957   1.465   7.835 -1.3675  2.1442  0.2547
   48CHL1  H21B 3532   3.062   1.584   7.912 -0.1069 -0.3982  0.7499
   48CHL1  H21C 3533   3.128   1.496   7.772  0.6869  1.8525 -0.0291
   48CHL1   C22 3534   2.852   1.713   7.786  0.0329 -0.0105 -0.0912
   48CHL1  H22A 3535   2.781   1.758   7.713 -1.1988 -2.0824 -0.2496
   48CHL1  H22B 3536   2.797   1.638   7.846 -1.1146  1.4279  0.7362
   48CHL1   C23 3537   2.907   1.824   7.881 -0.8227 -0.3365  0.1015
   48CHL1  H23A 3538   2.985   1.780   7.948 -1.7367  0.0845  1.4863
   48CHL1  H23B 3539   2.952   1.900   7.813  0.5023 -1.2976 -0.1436
   48CHL1   C24 3540   2.801   1.875   7.982  0.6722 -0.1290  0.0927
   48CHL1  H24A 3541   2.712   1.909   7.926  0.0731  2.6282  2.4830
   48CHL1  H24B 3542   2.771   1.780   8.031 -2.9310  1.9858  2.4872
   48CHL1   C25 3543   2.858   1.985   8.069 -0.3481 -0.7558 -0.4508
   48CHL1   H25 3544   2.894   2.057   7.993 -0.9100 -0.9737 -0.9338
   48CHL1   C26 3545   2.753   2.042   8.157 -0.5367  0.2797 -0.6363
   48CHL1  H26A 3546   2.701   1.966   8.218 -0.6911  1.1426  0.3380
   48CHL1  H26B 3547   2.803   2.114   8.225  0.1565 -1.1810  0.4597
   48CHL1  H26C 3548   2.676   2.096   8.099 -0.3277  0.8877 -0.3580
   48CHL1   C27 3549   2.990   1.954   8.154  0.0690  0.4770 -0.0458
   48CHL1  H27A 3550   3.025   2.040   8.216  0.8637 -1.5059  2.4343
   48CHL1  H27B 3551   2.964   1.872   8.224  0.6826 -1.3592 -1.8798
   48CHL1  H27C 3552   3.069   1.931   8.080 -0.4823  0.1038 -0.5239
   49CHL1    C3 3553   1.748   2.321   6.874  0.1983  0.4054  0.3710
   49CHL1    H3 3554   1.692   2.409   6.838 -0.1035  0.3161  0.6208
   49CHL1    O3 3555   1.759   2.220   6.765 -0.4620 -0.7625  0.0070
   49CHL1   H3' 3556   1.788   2.266   6.686 -1.9324 -0.0949 -0.1685
   49CHL1    C4 3557   1.892   2.366   6.908 -0.8658  0.0245  0.5718
   49CHL1   H4A 3558   1.957   2.281   6.937 -1.0582 -0.3152  0.0208
   49CHL1   H4B 3559   1.938   2.409   6.818 -0.1462  1.1539  1.4576
   49CHL1    C5 3560   1.874   2.471   7.018  0.3606 -0.7925  0.0890
   49CHL1    C6 3561   1.915   2.596   6.992 -0.3790  0.9238 -0.9139
   49CHL1    H6 3562   1.975   2.618   6.902  0.1023  2.2955 -0.2839
   49CHL1    C7 3563   1.915   2.704   7.095 -0.0334 -0.7414 -0.0291
   49CHL1   H7A 3564   2.007   2.764   7.078 -0.1228 -0.5517  0.1557
   49CHL1   H7B 3565   1.836   2.779   7.076  0.7675  0.2364  0.4150
   49CHL1    C8 3566   1.893   2.657   7.243  1.2775  1.0718 -0.3497
   49CHL1    H8 3567   1.987   2.611   7.280  2.1653  2.0911 -1.2498
   49CHL1   C14 3568   1.856   2.764   7.335  0.0000 -0.5066  0.0568
   49CHL1   H14 3569   1.755   2.795   7.300  0.4359  2.6591  1.2224
   49CHL1   C15 3570   1.943   2.892   7.339 -0.3357 -0.5745 -1.1308
   49CHL1  H15A 3571   2.050   2.862   7.345 -0.2019  0.0447 -0.2369
   49CHL1  H15B 3572   1.927   2.960   7.252 -0.4671  0.3430 -0.3991
   49CHL1   C16 3573   1.906   2.960   7.472 -0.6792 -0.2606  0.1724
   49CHL1  H16A 3574   2.000   2.966   7.530  0.1798 -0.1370 -1.1904
   49CHL1  H16B 3575   1.863   3.060   7.448 -2.3403 -0.6975  1.1855
   49CHL1   C17 3576   1.799   2.868   7.536 -0.0298 -0.2362  0.1570
   49CHL1   H17 3577   1.700   2.893   7.491  0.8711  0.5525 -1.5097
   49CHL1   C13 3578   1.826   2.728   7.477  0.1639  0.3549 -0.7808
   49CHL1   C18 3579   1.948   2.670   7.561  0.4007 -0.2266 -0.1337
   49CHL1  H18A 3580   2.021   2.749   7.589 -0.8570  0.4305  1.3787
   49CHL1  H18B 3581   1.919   2.615   7.653 -2.1532 -0.9748 -1.3202
   49CHL1  H18C 3582   2.010   2.610   7.489  1.3658  1.4707 -0.7752
   49CHL1   C12 3583   1.710   2.626   7.481 -0.1939 -0.3910  0.2211
   49CHL1  H12A 3584   1.682   2.583   7.580 -0.2660  0.2354  0.4791
   49CHL1  H12B 3585   1.620   2.668   7.430 -0.1728 -1.4284 -0.6994
   49CHL1   C11 3586   1.748   2.503   7.396  0.2341 -0.2460  0.4403
   49CHL1  H11A 3587   1.831   2.463   7.459  0.3583  1.4869  1.4214
   49CHL1  H11B 3588   1.667   2.427   7.392  0.3325 -0.3062 -2.3103
   49CHL1    C9 3589   1.784   2.551   7.245  1.0308  0.8088 -0.9840
   49CHL1    H9 3590   1.694   2.601   7.203  0.7918  0.8999 -0.3634
   49CHL1   C10 3591   1.810   2.427   7.147  0.1239 -0.5582 -0.4713
   49CHL1   C19 3592   1.906   2.333   7.218 -0.6995  0.1606  0.1954
   49CHL1  H19A 3593   1.847   2.281   7.296 -1.9375 -0.0794 -0.8719
   49CHL1  H19B 3594   1.960   2.263   7.150 -1.3281  0.5913 -0.7681
   49CHL1  H19C 3595   1.988   2.389   7.269  1.3299 -0.2761 -2.3297
   49CHL1    C1 3596   1.680   2.351   7.119  0.3909 -0.5785 -0.3078
   49CHL1   H1A 3597   1.645   2.297   7.209 -1.4624  0.4097 -0.3842
   49CHL1   H1B 3598   1.610   2.435   7.097 -0.1895 -1.0849 -0.4359
   49CHL1    C2 3599   1.684   2.262   6.999  0.4768 -0.2724 -0.4700
   49CHL1   H2A 3600   1.584   2.236   6.958  0.2593 -1.8636  0.9441
   49CHL1   H2B 3601   1.736   2.172   7.037 -0.0716 -0.0149  0.9741
   49CHL1   C20 3602   1.790   2.877   7.690 -0.3173  0.3259 -0.1699
   49CHL1   H20 3603   1.871   2.818   7.736  0.9773  1.4102 -0.9955
   49CHL1   C21 3604   1.639   2.839   7.722  0.2076  0.4319  0.1835
   49CHL1  H21A 3605   1.566   2.919   7.696 -1.0311 -0.5717  0.5076
   49CHL1  H21B 3606   1.633   2.812   7.830  1.2839 -1.3764 -0.1714
   49CHL1  H21C 3607   1.614   2.743   7.671  1.5153  0.5231 -0.6943
   49CHL1   C22 3608   1.822   3.016   7.741 -0.3451  0.7187  0.1124
   49CHL1  H22A 3609   1.931   3.031   7.728 -0.1462  0.1318  0.9978
   49CHL1  H22B 3610   1.760   3.079   7.674 -0.1889  0.6776 -0.0709
   49CHL1   C23 3611   1.790   3.041   7.887  0.2450 -0.0870 -0.0928
   49CHL1  H23A 3612   1.823   3.144   7.915 -1.0247 -0.0332  1.3405
   49CHL1  H23B 3613   1.681   3.046   7.909  0.5081  0.6829  1.1367
   49CHL1   C24 3614   1.846   2.938   7.984 -0.3462 -0.0667 -0.6956
   49CHL1  H24A 3615   1.802   2.840   7.956 -0.5844 -0.0932 -0.2431
   49CHL1  H24B 3616   1.953   2.941   7.953 -0.0830  0.9514  0.2662
   49CHL1   C25 3617   1.831   2.979   8.131  0.3998  0.0218  0.5763
   49CHL1   H25 3618   1.859   3.086   8.136  1.3857 -0.1153 -1.3146
   49CHL1   C26 3619   1.679   2.966   8.182 -0.2318 -0.0413  0.2261
   49CHL1  H26A 3620   1.658   2.955   8.291 -1.2628 -1.9342 -0.1300
   49CHL1  H26B 3621   1.621   3.051   8.140  0.5017 -0.8660 -2.6604
   49CHL1  H26C 3622   1.620   2.877   8.153  0.1796 -0.8875  1.8517
   49CHL1   C27 3623   1.922   2.902   8.232 -0.0701  0.0396  0.3394
   49CHL1  H27A 3624   2.028   2.929   8.211 -0.4787  1.2017 -0.3155
   49CHL1  H27B 3625   1.899   2.911   8.341  0.0593 -1.5321  0.5259
   49CHL1  H27C 3626   1.921   2.794   8.208  0.3738 -0.7309  3.2887
   50CHL1    C3 3627   3.285   3.595   6.994  0.7538  0.6206 -0.5250
   50CHL1    H3 3628   3.222   3.686   6.988  2.4741  2.0597  1.7404
   50CHL1    O3 3629   3.284   3.528   6.868  0.6984 -0.3012 -0.5820
   50CHL1   H3' 3630   3.362   3.472   6.863 -0.1967 -1.6165 -5.3966
   50CHL1    C4 3631   3.419   3.642   7.040 -0.4803 -0.3435  0.0098
   50CHL1   H4A 3632   3.484   3.552   7.037 -0.1064 -0.0562 -0.8390
   50CHL1   H4B 3633   3.465   3.712   6.967 -1.3229  1.1337  0.8408
   50CHL1    C5 3634   3.429   3.700   7.180 -0.1277 -0.1502  0.6280
   50CHL1    C6 3635   3.477   3.823   7.214 -1.0936  0.6977 -0.5683
   50CHL1    H6 3636   3.506   3.904   7.145 -1.0954  2.0501  0.9503
   50CHL1    C7 3637   3.493   3.871   7.358  0.0052 -0.3917  0.4839
   50CHL1   H7A 3638   3.596   3.912   7.367  0.0841 -0.6030  0.5530
   50CHL1   H7B 3639   3.407   3.937   7.383  0.9880  1.3250 -0.5308
   50CHL1    C8 3640   3.487   3.753   7.459 -1.2503  0.1497 -0.2765
   50CHL1    H8 3641   3.578   3.692   7.440 -1.3904  0.6795 -3.2379
   50CHL1   C14 3642   3.487   3.812   7.603  0.1510  0.3193  0.1845
   50CHL1   H14 3643   3.396   3.876   7.611 -0.6355 -0.6868 -0.4918
   50CHL1   C15 3644   3.597   3.909   7.646 -0.5150  0.4637 -0.4260
   50CHL1  H15A 3645   3.694   3.877   7.604 -0.1138  0.6766  0.3110
   50CHL1  H15B 3646   3.569   4.013   7.617 -0.1453  1.0592  1.2119
   50CHL1   C16 3647   3.578   3.919   7.804 -0.6729 -0.4816 -0.1008
   50CHL1  H16A 3648   3.671   3.887   7.854 -1.0222  0.7391  1.3933
   50CHL1  H16B 3649   3.553   4.024   7.830 -2.3896 -0.6519 -0.9290
   50CHL1   C17 3650   3.466   3.814   7.846 -0.1644 -0.4992  0.1691
   50CHL1   H17 3651   3.367   3.863   7.835  0.3289  0.6347  0.5476
   50CHL1   C13 3652   3.464   3.718   7.718 -0.5693  0.3032  0.0917
   50CHL1   C18 3653   3.588   3.623   7.720  0.3028  0.6895  0.0020
   50CHL1  H18A 3654   3.606   3.561   7.629  1.3090  0.3135  0.4476
   50CHL1  H18B 3655   3.674   3.687   7.750  0.7004  0.3316 -0.3402
   50CHL1  H18C 3656   3.563   3.547   7.796  2.0065 -0.0802 -0.1549
   50CHL1   C12 3657   3.336   3.640   7.672 -0.2429 -0.4335 -0.1895
   50CHL1  H12A 3658   3.295   3.578   7.755  0.2705 -0.6162 -0.0676
   50CHL1  H12B 3659   3.265   3.725   7.673 -0.0065 -0.2357  0.0393
   50CHL1   C11 3660   3.339   3.557   7.540 -0.6302 -0.3279  0.1174
   50CHL1  H11A 3661   3.418   3.483   7.561 -1.4461 -1.2834 -0.1117
   50CHL1  H11B 3662   3.237   3.514   7.528 -1.0986  0.5518  0.7902
   50CHL1    C9 3663   3.372   3.662   7.427  0.5403  0.1427  0.0428
   50CHL1    H9 3664   3.292   3.739   7.432 -0.0566 -0.3278 -1.6176
   50CHL1   C10 3665   3.381   3.604   7.288 -0.5723 -0.1265  0.9571
   50CHL1   C19 3666   3.479   3.487   7.294  0.1198  0.1399 -0.1958
   50CHL1  H19A 3667   3.573   3.519   7.343  0.9457 -2.1604 -0.1383
   50CHL1  H19B 3668   3.435   3.422   7.373 -1.5437  3.5678  1.9406
   50CHL1  H19C 3669   3.481   3.428   7.200 -1.5710  0.3387 -0.3820
   50CHL1    C1 3670   3.239   3.545   7.243  0.1009 -0.4986  0.4919
   50CHL1   H1A 3671   3.217   3.448   7.294 -2.3580 -0.6388 -0.7008
   50CHL1   H1B 3672   3.165   3.620   7.278 -0.9537 -0.9240 -0.7353
   50CHL1    C2 3673   3.224   3.497   7.100 -0.3530 -0.4673 -0.3589
   50CHL1   H2A 3674   3.114   3.494   7.087 -0.3076 -2.0887 -0.6485
   50CHL1   H2B 3675   3.248   3.388   7.092 -0.6659 -0.5425 -0.2770
   50CHL1   C20 3676   3.477   3.747   7.984  0.3835  0.7978  0.1902
   50CHL1   H20 3677   3.538   3.654   7.975 -0.3257  0.0362  2.5961
   50CHL1   C21 3678   3.337   3.707   8.025  0.1363 -0.0957  0.3374
   50CHL1  H21A 3679   3.334   3.627   8.102 -1.1784  2.0147  2.5947
   50CHL1  H21B 3680   3.287   3.664   7.936  1.6818 -3.1443  0.8167
   50CHL1  H21C 3681   3.281   3.797   8.058 -3.5620 -1.4804 -1.5345
   50CHL1   C22 3682   3.549   3.831   8.089  0.2135  0.0919 -0.4174
   50CHL1  H22A 3683   3.656   3.857   8.070  0.3852  0.7165  1.1569
   50CHL1  H22B 3684   3.499   3.930   8.102 -1.8337 -0.9981  0.3609
   50CHL1   C23 3685   3.550   3.767   8.228  0.8012 -0.3708 -0.1035
   50CHL1  H23A 3686   3.443   3.750   8.256 -0.2471  0.3511 -3.2714
   50CHL1  H23B 3687   3.612   3.676   8.231 -0.7640 -1.4918 -0.5317
   50CHL1   C24 3688   3.597   3.871   8.335  0.1981  0.1197 -0.0042
   50CHL1  H24A 3689   3.708   3.877   8.329  0.2849  1.4997  2.0778
   50CHL1  H24B 3690   3.562   3.975   8.316  1.2893  0.4365 -0.3362
   50CHL1   C25 3691   3.583   3.842   8.488  0.5107  0.1728  0.2101
   50CHL1   H25 3692   3.653   3.759   8.513 -0.2247 -1.3710 -2.4257
   50CHL1   C26 3693   3.643   3.965   8.559 -0.1620 -0.4251  0.7140
   50CHL1  H26A 3694   3.681   3.936   8.659 -0.4115 -0.4118  0.8146
   50CHL1  H26B 3695   3.731   4.005   8.504  0.2961 -0.7741  1.1866
   50CHL1  H26C 3696   3.564   4.043   8.568  0.7396  1.0149 -2.3677
   50CHL1   C27 3697   3.441   3.806   8.537  0.1564 -0.4577  0.0772
   50CHL1  H27A 3698   3.403   3.708   8.500 -1.1636  0.4668 -1.1174
   50CHL1  H27B 3699   3.453   3.804   8.647  2.3046 -2.0020 -0.1191
   50CHL1  H27C 3700   3.365   3.878   8.501 -0.3607 -1.4912 -0.9675
   51CHL1    C3 3701   3.489   1.668   7.099  0.0858  0.1983 -0.4860
   51CHL1    H3 3702   3.422   1.755   7.112 -1.4380 -0.8146 -1.2337
   51CHL1    O3 3703   3.495   1.636   6.964  0.3049  0.0147 -0.2051
   51CHL1   H3' 3704   3.524   1.545   6.959  3.4628  0.7574  1.6007
   51CHL1    C4 3705   3.631   1.696   7.153  0.7846  0.5438  0.7698
   51CHL1   H4A 3706   3.694   1.607   7.130  2.9067  2.3042 -0.6986
   51CHL1   H4B 3707   3.666   1.783   7.093  1.2785  0.8599  1.5013
   51CHL1    C5 3708   3.626   1.722   7.300 -0.4082 -0.1518 -0.3727
   51CHL1    C6 3709   3.691   1.827   7.343  0.0154  0.5393 -0.0571
   51CHL1    H6 3710   3.754   1.884   7.273 -0.3883  0.4204 -0.5172
   51CHL1    C7 3711   3.695   1.856   7.491 -0.3263  0.3859  0.9586
   51CHL1   H7A 3712   3.801   1.874   7.517 -0.4550  0.4980  1.4189
   51CHL1   H7B 3713   3.641   1.950   7.516 -0.2639  0.7731 -0.3000
   51CHL1    C8 3714   3.642   1.744   7.588 -0.5070  0.7449  0.4216
   51CHL1    H8 3715   3.733   1.682   7.597 -0.1992  1.1065 -0.1289
   51CHL1   C14 3716   3.589   1.805   7.721 -0.2589  0.1667 -0.7113
   51CHL1   H14 3717   3.498   1.863   7.692  0.4349  0.3852 -2.5603
   51CHL1   C15 3718   3.678   1.907   7.793 -0.1947  0.4372  0.0347
   51CHL1  H15A 3719   3.779   1.861   7.781  1.1433  2.3602  2.8465
   51CHL1  H15B 3720   3.680   2.009   7.750 -1.2463  0.4569  0.0269
   51CHL1   C16 3721   3.629   1.908   7.940 -0.5532 -0.1161  0.0239
   51CHL1  H16A 3722   3.717   1.903   8.008  0.3851  1.0978 -1.0455
   51CHL1  H16B 3723   3.575   1.999   7.975  0.0639 -0.2161  1.3008
   51CHL1   C17 3724   3.532   1.787   7.955 -0.3448 -0.0265  0.1304
   51CHL1   H17 3725   3.430   1.829   7.943  0.2871  1.3433 -0.8263
   51CHL1   C13 3726   3.557   1.696   7.826 -0.3994  0.1025 -0.1413
   51CHL1   C18 3727   3.671   1.605   7.849 -0.9731  0.1628  0.3249
   51CHL1  H18A 3728   3.712   1.555   7.758  4.9947 -0.6175  2.9973
   51CHL1  H18B 3729   3.756   1.669   7.878 -1.9510  1.7804 -0.2635
   51CHL1  H18C 3730   3.659   1.515   7.914 -0.2466  0.2786  0.6242
   51CHL1   C12 3731   3.434   1.624   7.771  0.1489 -0.2436 -0.7453
   51CHL1  H12A 3732   3.407   1.540   7.840 -0.1371  0.6568  0.2606
   51CHL1  H12B 3733   3.349   1.694   7.771  0.9782  0.7826  0.0937
   51CHL1   C11 3734   3.458   1.566   7.634  0.3083  0.6951 -0.0406
   51CHL1  H11A 3735   3.535   1.486   7.640  0.2652  0.6025 -0.6365
   51CHL1  H11B 3736   3.366   1.521   7.591 -1.1388  1.4791  2.0655
   51CHL1    C9 3737   3.520   1.667   7.530 -0.2643  0.2508 -0.1148
   51CHL1    H9 3738   3.440   1.741   7.511 -1.5673 -0.6501  1.6164
   51CHL1   C10 3739   3.549   1.613   7.389 -0.3822 -0.3586  0.2379
   51CHL1   C19 3740   3.636   1.484   7.405  0.5375  0.3045 -0.0719
   51CHL1  H19A 3741   3.722   1.506   7.471 -1.0766  0.3928  2.1403
   51CHL1  H19B 3742   3.576   1.401   7.448  1.0713 -1.1956 -2.0731
   51CHL1  H19C 3743   3.655   1.455   7.299  1.0089  0.8618 -0.1463
   51CHL1    C1 3744   3.418   1.570   7.319 -0.0397 -0.1371 -0.2139
   51CHL1   H1A 3745   3.374   1.489   7.380 -1.4030  1.5474  1.1581
   51CHL1   H1B 3746   3.341   1.650   7.328 -0.3524 -0.3769 -0.7109
   51CHL1    C2 3747   3.433   1.542   7.163 -0.5245  0.1109 -0.0681
   51CHL1   H2A 3748   3.333   1.527   7.117 -1.6772  0.5705  2.1457
   51CHL1   H2B 3749   3.496   1.454   7.138 -1.2705  0.3302 -3.1988
   51CHL1   C20 3750   3.535   1.714   8.094 -0.3258  0.8804 -0.1429
   51CHL1   H20 3751   3.625   1.650   8.108 -1.2323 -0.2722  0.5967
   51CHL1   C21 3752   3.420   1.611   8.108 -0.1595  0.7270 -0.2475
   51CHL1  H21A 3753   3.435   1.524   8.041  1.5260 -1.1347  2.3608
   51CHL1  H21B 3754   3.321   1.660   8.104 -0.6387 -0.1013  0.9434
   51CHL1  H21C 3755   3.432   1.554   8.202  0.6629 -1.1022 -1.4037
   51CHL1   C22 3756   3.529   1.821   8.209 -0.9366  0.3827  0.9962
   51CHL1  H22A 3757   3.604   1.902   8.203 -0.7734  0.1166 -1.3214
   51CHL1  H22B 3758   3.429   1.869   8.204 -1.6252 -0.9452  1.4370
   51CHL1   C23 3759   3.547   1.758   8.351  0.4608  0.5242 -0.0518
   51CHL1  H23A 3760   3.469   1.683   8.378  1.1658  0.0274  0.6666
   51CHL1  H23B 3761   3.648   1.715   8.365  0.4642  0.7888  0.7788
   51CHL1   C24 3762   3.542   1.868   8.469 -0.4974  0.0491  0.5501
   51CHL1  H24A 3763   3.627   1.936   8.449 -0.8637  0.7015  1.1579
   51CHL1  H24B 3764   3.445   1.918   8.447 -0.5626 -1.2785 -2.7664
   51CHL1   C25 3765   3.539   1.819   8.613 -0.0515  0.0262  0.0013
   51CHL1   H25 3766   3.535   1.909   8.678  0.4520  0.3626 -0.4259
   51CHL1   C26 3767   3.403   1.756   8.646 -0.5812  0.0979  0.1041
   51CHL1  H26A 3768   3.380   1.653   8.610  0.3543  0.4640 -1.6333
   51CHL1  H26B 3769   3.387   1.753   8.756  0.9615  2.1884  0.4295
   51CHL1  H26C 3770   3.318   1.820   8.614 -0.6968  1.2393  2.5297
   51CHL1   C27 3771   3.662   1.733   8.650 -0.3549 -0.0461 -0.6314
   51CHL1  H27A 3772   3.751   1.799   8.649 -0.1490 -0.3227 -0.4521
   51CHL1  H27B 3773   3.647   1.703   8.756  1.1604 -0.1847 -0.4467
   51CHL1  H27C 3774   3.673   1.641   8.590 -0.4344  0.9760 -2.2869
   52CHL1    C3 3775   3.967   3.499   7.053  0.2390 -0.3859  0.2195
   52CHL1    H3 3776   4.012   3.398   7.060  0.6070 -0.3892 -1.7005
   52CHL1    O3 3777   3.934   3.517   6.918  0.3483  0.5337 -0.2139
   52CHL1   H3' 3778   3.896   3.605   6.923  0.2441  0.6748 -2.2643
   52CHL1    C4 3779   3.841   3.511   7.142 -0.4328 -0.6528 -0.6777
   52CHL1   H4A 3780   3.813   3.618   7.133 -1.0267 -0.7737 -0.3170
   52CHL1   H4B 3781   3.753   3.452   7.109  0.3989 -1.8513 -0.8387
   52CHL1    C5 3782   3.868   3.494   7.297  0.8285 -0.1506  0.0830
   52CHL1    C6 3783   3.816   3.404   7.370  0.9806 -0.4291 -0.6616
   52CHL1    H6 3784   3.749   3.331   7.323  2.0297 -1.8180 -0.0949
   52CHL1    C7 3785   3.843   3.379   7.516  0.2066 -0.2181  0.1826
   52CHL1   H7A 3786   3.746   3.364   7.569 -0.3094 -1.9438 -1.1662
   52CHL1   H7B 3787   3.911   3.291   7.517 -0.4382 -0.7829 -1.5723
   52CHL1    C8 3788   3.916   3.501   7.581 -0.3698  0.0647 -0.7215
   52CHL1    H8 3789   3.840   3.579   7.604 -0.2032 -0.1405  0.5967
   52CHL1   C14 3790   3.980   3.465   7.722  0.1589 -0.3334  0.4664
   52CHL1   H14 3791   4.072   3.407   7.701  1.2432  1.7311 -0.8446
   52CHL1   C15 3792   3.881   3.389   7.819 -0.5136 -0.4384 -0.2612
   52CHL1  H15A 3793   3.786   3.444   7.838 -1.8043 -2.0620 -1.7196
   52CHL1  H15B 3794   3.860   3.289   7.775 -1.6902  0.2849 -1.4361
   52CHL1   C16 3795   3.971   3.392   7.947 -0.3497 -0.0377 -0.4414
   52CHL1  H16A 3796   3.910   3.431   8.031  0.0281  1.1466 -0.6983
   52CHL1  H16B 3797   4.003   3.289   7.970 -0.9820 -0.2711 -0.5915
   52CHL1   C17 3798   4.081   3.505   7.924 -0.7741 -0.8709  0.0476
   52CHL1   H17 3799   4.170   3.443   7.898 -0.4885 -0.7230  0.6554
   52CHL1   C13 3800   4.042   3.581   7.800  0.3256  0.1888  0.4205
   52CHL1   C18 3801   3.941   3.697   7.838 -1.0173  0.3273 -0.9711
   52CHL1  H18A 3802   4.002   3.786   7.867 -1.5778  0.1258  0.9460
   52CHL1  H18B 3803   3.890   3.732   7.746 -0.8501  0.4386 -1.0212
   52CHL1  H18C 3804   3.878   3.674   7.927 -0.2611  2.1633  0.1174
   52CHL1   C12 3805   4.150   3.639   7.711  0.0929 -0.2847  0.0419
   52CHL1  H12A 3806   4.190   3.731   7.760 -0.9711 -0.1968  0.7821
   52CHL1  H12B 3807   4.228   3.561   7.698 -2.0827 -2.3172 -1.4045
   52CHL1   C11 3808   4.103   3.678   7.572  0.7494 -0.6387 -0.4419
   52CHL1  H11A 3809   4.035   3.765   7.587 -0.3141 -1.0331 -2.5242
   52CHL1  H11B 3810   4.180   3.717   7.502 -1.3524  3.2967 -0.8659
   52CHL1    C9 3811   4.029   3.559   7.498 -0.3267  0.0721  0.2752
   52CHL1    H9 3812   4.108   3.481   7.496  0.3841  0.7725  0.4112
   52CHL1   C10 3813   3.977   3.593   7.348  0.2625 -0.0320  0.0530
   52CHL1   C19 3814   3.925   3.745   7.354  0.7026 -0.2200 -0.5577
   52CHL1  H19A 3815   3.875   3.767   7.258 -2.6487  0.4197  1.1753
   52CHL1  H19B 3816   3.852   3.762   7.436  2.7561 -0.8773  1.5346
   52CHL1  H19C 3817   4.011   3.814   7.367  1.1971 -0.8820 -0.2652
   52CHL1    C1 3818   4.108   3.581   7.259 -0.3027 -0.3944  0.7424
   52CHL1   H1A 3819   4.189   3.652   7.285 -0.8303 -0.7319  3.5852
   52CHL1   H1B 3820   4.160   3.483   7.267  0.2019 -0.1362  0.7073
   52CHL1    C2 3821   4.080   3.598   7.108  0.1589  0.1654  0.2926
   52CHL1   H2A 3822   4.170   3.561   7.055  0.0662 -0.6655  0.6948
   52CHL1   H2B 3823   4.049   3.702   7.083  0.9714  0.1762 -0.7561
   52CHL1   C20 3824   4.120   3.592   8.044 -0.3934  0.1233 -0.1784
   52CHL1   H20 3825   4.034   3.660   8.062 -0.7845 -0.7750  1.7276
   52CHL1   C21 3826   4.251   3.672   8.019  0.4137 -0.4820  0.1262
   52CHL1  H21A 3827   4.241   3.770   7.967  0.6744 -0.0708  0.8297
   52CHL1  H21B 3828   4.318   3.611   7.954 -0.7650  0.4603 -2.0721
   52CHL1  H21C 3829   4.313   3.701   8.107  1.5337  2.0508 -1.3810
   52CHL1   C22 3830   4.141   3.514   8.177  0.2532 -1.0453 -0.4553
   52CHL1  H22A 3831   4.093   3.415   8.188 -2.2966  0.3400  2.2971
   52CHL1  H22B 3832   4.250   3.506   8.195  0.3187  0.0010 -0.3066
   52CHL1   C23 3833   4.071   3.611   8.283 -0.4676  0.5713 -0.4005
   52CHL1  H23A 3834   4.114   3.713   8.294  0.1189  0.4208 -1.1921
   52CHL1  H23B 3835   3.970   3.629   8.241 -1.5521 -0.8278  1.4648
   52CHL1   C24 3836   4.037   3.546   8.422  0.2002  0.6574 -0.3915
   52CHL1  H24A 3837   4.006   3.444   8.392  0.8636 -0.1453  1.4869
   52CHL1  H24B 3838   4.125   3.542   8.491 -0.7444  0.9675  0.8645
   52CHL1   C25 3839   3.932   3.622   8.498  0.4298  0.0412  0.2863
   52CHL1   H25 3840   3.844   3.648   8.435 -0.0461 -3.0498 -0.4967
   52CHL1   C26 3841   3.876   3.531   8.616 -0.1745 -0.7688  0.3151
   52CHL1  H26A 3842   3.958   3.517   8.689  1.2820  0.4171 -1.0327
   52CHL1  H26B 3843   3.787   3.574   8.667 -0.0989 -0.6021  0.3058
   52CHL1  H26C 3844   3.839   3.432   8.581  0.1258 -1.1486  1.0405
   52CHL1   C27 3845   3.989   3.756   8.562 -0.5099  0.2171  0.6928
   52CHL1  H27A 3846   4.074   3.729   8.629  1.1140  3.1261 -0.0287
   52CHL1  H27B 3847   4.031   3.824   8.485 -0.7176  1.3994  1.5948
   52CHL1  H27C 3848   3.923   3.814   8.630  0.8320  0.9415  1.4103
   53CHL1    C3 3849   0.277   0.433   7.232  1.1331  0.1708 -1.0335
   53CHL1    H3 3850   0.169   0.409   7.244  0.4370  3.3373  0.1606
   53CHL1    O3 3851   0.299   0.477   7.104  0.2887  0.7815  0.2159
   53CHL1   H3' 3852   0.374   0.427   7.071 -0.0795 -1.7470  2.7893
   53CHL1    C4 3853   0.312   0.553   7.322 -0.5694  0.8734 -0.3641
   53CHL1   H4A 3854   0.410   0.599   7.296  0.5684 -1.0582  0.3509
   53CHL1   H4B 3855   0.243   0.640   7.310  1.3518  3.0356  2.7158
   53CHL1    C5 3856   0.317   0.525   7.469 -0.3900  0.4276 -0.5250
   53CHL1    C6 3857   0.242   0.596   7.547 -0.0835 -0.6117 -0.0303
   53CHL1    H6 3858   0.185   0.685   7.514  2.8055  0.8062 -1.5811
   53CHL1    C7 3859   0.247   0.577   7.697 -0.1104  0.1860 -0.3785
   53CHL1   H7A 3860   0.257   0.675   7.748  0.1520  0.2226 -0.4955
   53CHL1   H7B 3861   0.153   0.532   7.734 -0.4854  2.9029  2.2970
   53CHL1    C8 3862   0.354   0.479   7.750  0.2476 -0.0087  0.5369
   53CHL1    H8 3863   0.451   0.533   7.738  0.7916 -1.1477 -0.4117
   53CHL1   C14 3864   0.330   0.434   7.892  0.6144 -0.3788  0.2046
   53CHL1   H14 3865   0.229   0.388   7.888  0.0603  0.7951  0.2243
   53CHL1   C15 3866   0.309   0.547   7.995 -0.7161  0.5738  0.6070
   53CHL1  H15A 3867   0.393   0.617   7.976  0.1211 -1.0030 -2.1240
   53CHL1  H15B 3868   0.217   0.609   7.990 -0.9979  0.0607 -1.9799
   53CHL1   C16 3869   0.319   0.477   8.126 -0.2601  0.2879 -0.6288
   53CHL1  H16A 3870   0.383   0.543   8.190  0.4064 -0.4531 -0.5067
   53CHL1  H16B 3871   0.218   0.469   8.171  0.2400  0.2061  0.5352
   53CHL1   C17 3872   0.387   0.341   8.111 -0.3906  0.1411  0.1605
   53CHL1   H17 3873   0.317   0.256   8.120 -1.0289  0.1448 -3.4320
   53CHL1   C13 3874   0.429   0.345   7.961  0.2166  0.1304 -0.4408
   53CHL1   C18 3875   0.572   0.411   7.958  0.0689 -0.0036  0.0719
   53CHL1  H18A 3876   0.598   0.457   7.860 -2.2898  0.8374 -0.2257
   53CHL1  H18B 3877   0.566   0.494   8.031  0.9811 -0.2302  0.4206
   53CHL1  H18C 3878   0.644   0.332   7.990  1.0738 -0.0811 -2.2101
   53CHL1   C12 3879   0.431   0.218   7.882  0.2639  0.2733 -0.0339
   53CHL1  H12A 3880   0.512   0.146   7.907 -0.5227 -0.7853 -0.4615
   53CHL1  H12B 3881   0.336   0.164   7.902  1.3908 -1.1177  1.8043
   53CHL1   C11 3882   0.441   0.239   7.725 -0.4009 -0.0793  0.0212
   53CHL1  H11A 3883   0.544   0.279   7.712 -0.3699 -0.6518 -1.6845
   53CHL1  H11B 3884   0.435   0.152   7.657 -2.7748  1.2201 -1.5627
   53CHL1    C9 3885   0.351   0.348   7.661  0.4813  0.2768  0.3344
   53CHL1    H9 3886   0.248   0.307   7.666  0.2284  0.9910  1.6260
   53CHL1   C10 3887   0.382   0.389   7.515 -0.5166 -0.1243  0.3386
   53CHL1   C19 3888   0.536   0.405   7.490 -0.5370 -0.1067 -0.1616
   53CHL1  H19A 3889   0.571   0.443   7.391 -1.9055 -0.5223 -0.8275
   53CHL1  H19B 3890   0.576   0.483   7.558 -1.6151  1.4317 -1.2330
   53CHL1  H19C 3891   0.588   0.309   7.509  1.1239  0.0298 -3.3278
   53CHL1    C1 3892   0.346   0.275   7.414  0.4042  0.4585  0.9600
   53CHL1   H1A 3893   0.411   0.185   7.423 -1.5802 -1.6174 -2.6466
   53CHL1   H1B 3894   0.244   0.238   7.434 -0.3638  0.5208 -2.2120
   53CHL1    C2 3895   0.359   0.309   7.258 -0.2077  0.4570 -0.0150
   53CHL1   H2A 3896   0.317   0.222   7.202 -0.6109 -0.2404  1.3289
   53CHL1   H2B 3897   0.459   0.331   7.217  0.3129 -1.3099  0.2107
   53CHL1   C20 3898   0.486   0.321   8.229 -0.3040 -0.7187 -0.0773
   53CHL1   H20 3899   0.571   0.393   8.223  1.4757 -2.6017  0.9224
   53CHL1   C21 3900   0.539   0.175   8.210  0.0717  0.3302  0.0082
   53CHL1  H21A 3901   0.599   0.145   8.298  1.3706  1.1025 -0.5786
   53CHL1  H21B 3902   0.601   0.162   8.119  1.6867  2.6413  0.6694
   53CHL1  H21C 3903   0.454   0.104   8.209  1.4706 -1.4465 -1.9375
   53CHL1   C22 3904   0.428   0.345   8.377 -0.4586 -0.5518 -0.1372
   53CHL1  H22A 3905   0.514   0.297   8.428  1.5382  1.6706 -1.1758
   53CHL1  H22B 3906   0.435   0.456   8.382 -0.1037 -0.5848  0.1083
   53CHL1   C23 3907   0.295   0.283   8.405 -0.1947 -0.0404 -0.0611
   53CHL1  H23A 3908   0.221   0.324   8.332 -2.8419 -4.3187 -0.1454
   53CHL1  H23B 3909   0.312   0.175   8.388 -0.6941 -0.0213 -0.7703
   53CHL1   C24 3910   0.244   0.301   8.551 -0.1737 -0.7946 -0.1424
   53CHL1  H24A 3911   0.321   0.261   8.620  1.1368 -0.9289 -1.6358
   53CHL1  H24B 3912   0.227   0.406   8.584 -0.8790 -0.6339 -0.9658
   53CHL1   C25 3913   0.111   0.227   8.564 -0.6100 -0.2967 -0.1487
   53CHL1   H25 3914   0.124   0.127   8.517  1.1860  0.2012 -0.7784
   53CHL1   C26 3915   0.081   0.215   8.711  0.6111 -0.0386 -0.0034
   53CHL1  H26A 3916   0.098   0.315   8.757  0.7285  0.5268 -1.2273
   53CHL1  H26B 3917  -0.023   0.185   8.735  0.4968  0.5646  0.2836
   53CHL1  H26C 3918   0.148   0.144   8.764  1.9525  2.2014  1.4753
   53CHL1   C27 3919  -0.002   0.298   8.486 -0.4354  0.1715  0.3262
   53CHL1  H27A 3920   0.019   0.327   8.381  1.0826 -0.4456  0.4313
   53CHL1  H27B 3921  -0.098   0.242   8.490  0.5199 -1.7471 -1.6505
   53CHL1  H27C 3922  -0.024   0.399   8.528 -0.0200  0.3212  0.1910
   54CHL1    C3 3923   0.909   2.520   7.162  0.5635  0.4376 -0.7684
   54CHL1    H3 3924   0.982   2.439   7.184  2.5573  1.8483 -1.8454
   54CHL1    O3 3925   0.884   2.555   7.028  0.3311 -0.5327  0.2860
   54CHL1   H3' 3926   0.818   2.623   7.045  2.6089  1.6703  0.9539
   54CHL1    C4 3927   0.770   2.461   7.222 -0.5151  0.1698  0.1471
   54CHL1   H4A 3928   0.689   2.530   7.191 -0.0570  0.8369  0.3798
   54CHL1   H4B 3929   0.747   2.367   7.168  2.7778 -0.2828 -0.6862
   54CHL1    C5 3930   0.781   2.430   7.369 -0.2579 -0.0814 -0.6553
   54CHL1    C6 3931   0.763   2.307   7.424  0.3462 -0.1232  1.1533
   54CHL1    H6 3932   0.732   2.220   7.364 -1.3618  0.0338  1.7535
   54CHL1    C7 3933   0.744   2.292   7.565 -0.4290  0.5878  0.0668
   54CHL1   H7A 3934   0.656   2.226   7.578  0.4493 -0.2917  2.1410
   54CHL1   H7B 3935   0.825   2.227   7.604 -1.9280 -2.8739 -2.1563
   54CHL1    C8 3936   0.735   2.423   7.637 -0.0758  0.2041 -0.4318
   54CHL1    H8 3937   0.631   2.458   7.620 -0.8025 -2.3462 -1.8697
   54CHL1   C14 3938   0.760   2.393   7.787 -0.2817 -0.5821 -0.4214
   54CHL1   H14 3939   0.863   2.352   7.798 -0.3712 -0.4150  1.4183
   54CHL1   C15 3940   0.671   2.285   7.855 -0.1706 -0.9820 -0.0399
   54CHL1  H15A 3941   0.567   2.293   7.818  0.3556  2.4967 -1.1823
   54CHL1  H15B 3942   0.708   2.181   7.844  1.1545 -0.4620 -0.7224
   54CHL1   C16 3943   0.675   2.329   8.006 -0.7488 -0.6959  0.5942
   54CHL1  H16A 3944   0.571   2.352   8.037 -0.3580 -0.5496  1.8751
   54CHL1  H16B 3945   0.713   2.251   8.076 -0.0841 -0.0433  0.9843
   54CHL1   C17 3946   0.774   2.454   8.018  0.2671  0.2280 -0.6703
   54CHL1   H17 3947   0.877   2.414   8.020 -0.5565 -2.0270 -0.0310
   54CHL1   C13 3948   0.760   2.518   7.874  0.1293 -0.4860 -0.7352
   54CHL1   C18 3949   0.632   2.596   7.866  0.5174  0.4089  0.1165
   54CHL1  H18A 3950   0.552   2.522   7.885  1.7519 -0.9002  0.3632
   54CHL1  H18B 3951   0.634   2.675   7.945  0.5106  0.3527  0.1733
   54CHL1  H18C 3952   0.621   2.642   7.765 -2.2149 -0.2738  0.0103
   54CHL1   C12 3953   0.873   2.610   7.832 -0.1331  0.6970 -0.4909
   54CHL1  H12A 3954   0.871   2.714   7.871 -0.2861  0.5707 -0.1650
   54CHL1  H12B 3955   0.974   2.575   7.862 -0.6160 -0.2502  0.0876
   54CHL1   C11 3956   0.866   2.642   7.681  0.2071 -0.0157  0.1767
   54CHL1  H11A 3957   0.787   2.720   7.668 -1.3632 -1.3818  1.1842
   54CHL1  H11B 3958   0.960   2.695   7.655 -0.9563  2.5385  0.7978
   54CHL1    C9 3959   0.844   2.516   7.589  0.4278 -0.3719 -0.3191
   54CHL1    H9 3960   0.937   2.456   7.591  0.4613 -0.4929 -2.7621
   54CHL1   C10 3961   0.826   2.555   7.446  0.0212 -0.3631  0.1759
   54CHL1   C19 3962   0.701   2.656   7.438 -0.2022 -0.6675  0.0096
   54CHL1  H19A 3963   0.680   2.672   7.330  1.5815  0.7262 -0.1813
   54CHL1  H19B 3964   0.609   2.625   7.492 -0.5428  1.4366  0.7372
   54CHL1  H19C 3965   0.724   2.752   7.488 -2.0998 -0.3798  0.3905
   54CHL1    C1 3966   0.958   2.619   7.388  0.2626  0.0269 -0.2021
   54CHL1   H1A 3967   0.960   2.726   7.417  1.6052  0.0420 -0.2832
   54CHL1   H1B 3968   1.048   2.560   7.414 -0.1872 -0.8128 -0.5108
   54CHL1    C2 3969   0.945   2.649   7.239 -0.3141  0.5733  0.1435
   54CHL1   H2A 3970   1.042   2.692   7.205 -0.0885  1.2964  1.6367
   54CHL1   H2B 3971   0.863   2.722   7.224  0.0581  1.4539  2.0463
   54CHL1   C20 3972   0.737   2.539   8.144  0.4657 -0.5025 -0.8622
   54CHL1   H20 3973   0.628   2.559   8.133  0.0680 -0.6245  2.0458
   54CHL1   C21 3974   0.821   2.664   8.143 -0.0698 -0.4000 -0.0856
   54CHL1  H21A 3975   0.932   2.662   8.144 -0.0291  0.5760 -0.5732
   54CHL1  H21B 3976   0.778   2.725   8.226 -0.8530  0.5863 -1.1693
   54CHL1  H21C 3977   0.798   2.725   8.052  1.0533  0.9331  0.4989
   54CHL1   C22 3978   0.756   2.467   8.279  0.4557  0.3347  0.1440
   54CHL1  H22A 3979   0.695   2.375   8.270 -0.5786  1.0482 -0.4343
   54CHL1  H22B 3980   0.864   2.447   8.298  0.6583 -0.6004 -1.7088
   54CHL1   C23 3981   0.717   2.539   8.402  0.3723 -0.2461 -0.1869
   54CHL1  H23A 3982   0.738   2.491   8.499  4.5234  0.2826 -0.6532
   54CHL1  H23B 3983   0.785   2.626   8.410  0.7235 -0.5502  0.1725
   54CHL1   C24 3984   0.577   2.591   8.394  0.7397  0.1511  0.1077
   54CHL1  H24A 3985   0.562   2.676   8.324 -0.6474 -0.3359 -0.2235
   54CHL1  H24B 3986   0.509   2.508   8.363  0.2283  0.7948 -0.5462
   54CHL1   C25 3987   0.529   2.651   8.531  0.2210 -0.0567 -0.0982
   54CHL1   H25 3988   0.596   2.732   8.565  0.9084 -0.5733 -0.2101
   54CHL1   C26 3989   0.386   2.708   8.520  0.7310 -0.0507  0.4184
   54CHL1  H26A 3990   0.356   2.755   8.615  0.8668 -0.0118  0.4425
   54CHL1  H26B 3991   0.385   2.779   8.435  0.0493 -0.4809  0.0599
   54CHL1  H26C 3992   0.318   2.622   8.502 -0.7959  1.5081 -1.6429
   54CHL1   C27 3993   0.519   2.543   8.642  0.5110 -0.3668  0.6918
   54CHL1  H27A 3994   0.461   2.580   8.729 -1.2430 -0.0355 -0.5642
   54CHL1  H27B 3995   0.482   2.445   8.606  3.6212 -1.7053  0.7870
   54CHL1  H27C 3996   0.624   2.520   8.670  0.3050 -1.4818  0.5771
   55CHL1    C3 3997   0.818   3.940   7.224 -0.1836 -0.0208 -0.3027
   55CHL1    H3 3998   0.867   3.841   7.219 -1.8064 -0.8185 -1.2963
   55CHL1    O3 3999   0.789   3.985   7.092  0.4807 -0.0212  0.1915
   55CHL1   H3' 4000   0.723   4.054   7.104 -1.6117 -2.2030  2.0709
   55CHL1    C4 4001   0.689   3.922   7.302  0.2625 -0.0069 -0.2433
   55CHL1   H4A 4002   0.645   4.024   7.297  0.3560  0.1100  1.0926
   55CHL1   H4B 4003   0.635   3.845   7.242 -0.1447  0.7821 -0.9120
   55CHL1    C5 4004   0.709   3.892   7.452  0.6610 -0.0673  0.5323
   55CHL1    C6 4005   0.657   3.779   7.503  0.0098  0.5028 -0.6682
   55CHL1    H6 4006   0.597   3.718   7.435  0.6924  1.3413 -2.0854
   55CHL1    C7 4007   0.668   3.745   7.651 -0.1412 -0.1844  0.5742
   55CHL1   H7A 4008   0.576   3.696   7.687  0.9745 -1.5343  1.6944
   55CHL1   H7B 4009   0.743   3.666   7.671 -0.9764 -1.9309 -2.5329
   55CHL1    C8 4010   0.707   3.867   7.737  0.4544 -1.1896  0.4868
   55CHL1    H8 4011   0.614   3.927   7.746 -1.5056 -4.0439  0.2791
   55CHL1   C14 4012   0.750   3.822   7.876  0.9092  0.1743 -0.1149
   55CHL1   H14 4013   0.834   3.750   7.864 -2.1044 -3.4398 -1.7065
   55CHL1   C15 4014   0.638   3.752   7.953 -0.7129 -0.0764  0.7257
   55CHL1  H15A 4015   0.541   3.806   7.949 -0.8228 -0.3270 -1.7458
   55CHL1  H15B 4016   0.626   3.645   7.926  2.4875 -0.0812 -1.1185
   55CHL1   C16 4017   0.689   3.753   8.100  0.1851 -0.5514  0.4320
   55CHL1  H16A 4018   0.608   3.800   8.159  0.3285  0.8348 -0.4377
   55CHL1  H16B 4019   0.725   3.653   8.134  4.2913 -0.0440 -1.8969
   55CHL1   C17 4020   0.807   3.853   8.097  1.3137 -0.5640  0.2980
   55CHL1   H17 4021   0.897   3.791   8.078  0.4465 -1.7083 -0.2618
   55CHL1   C13 4022   0.792   3.927   7.968  0.1679 -0.1006  0.8282
   55CHL1   C18 4023   0.690   4.045   7.986 -0.1192 -0.1273  1.3126
   55CHL1  H18A 4024   0.739   4.131   8.035 -0.6395  1.0846 -0.2345
   55CHL1  H18B 4025   0.672   4.081   7.883  2.0887 -2.1981  0.1117
   55CHL1  H18C 4026   0.598   4.003   8.032 -0.4864 -1.8379 -0.8149
   55CHL1   C12 4027   0.919   3.983   7.908 -0.2422 -0.6754 -0.4064
   55CHL1  H12A 4028   0.956   4.062   7.977 -0.6720 -0.9424  0.1382
   55CHL1  H12B 4029   0.991   3.899   7.913 -0.9144 -1.3431 -1.5792
   55CHL1   C11 4030   0.909   4.036   7.769 -0.4804  0.0181 -0.2862
   55CHL1  H11A 4031   0.866   4.138   7.768 -0.1507  0.1529 -0.5247
   55CHL1  H11B 4032   1.011   4.052   7.728 -0.6552 -0.9373 -1.1223
   55CHL1    C9 4033   0.827   3.944   7.669  0.0311  0.6021 -0.6273
   55CHL1    H9 4034   0.899   3.862   7.648 -1.9557 -2.4325  3.1145
   55CHL1   C10 4035   0.798   3.989   7.524 -0.3003  0.5707  0.2441
   55CHL1   C19 4036   0.739   4.130   7.523  1.1490 -0.6432 -0.5816
   55CHL1  H19A 4037   0.820   4.191   7.568  2.6334 -2.2447 -0.9435
   55CHL1  H19B 4038   0.700   4.157   7.422  1.7638  0.0922 -0.6292
   55CHL1  H19C 4039   0.654   4.125   7.594  0.4753 -2.5304 -1.4368
   55CHL1    C1 4040   0.934   3.993   7.440 -0.0307  0.2930 -0.0864
   55CHL1   H1A 4041   0.994   4.064   7.501 -2.3384  0.7223  1.8533
   55CHL1   H1B 4042   0.980   3.893   7.456 -0.8137 -0.2285 -1.0031
   55CHL1    C2 4043   0.921   4.039   7.290 -0.8627 -0.0467 -0.2619
   55CHL1   H2A 4044   1.022   4.033   7.244  0.6400  0.9480  2.6446
   55CHL1   H2B 4045   0.888   4.146   7.292 -0.6853  0.0205 -0.7303
   55CHL1   C20 4046   0.838   3.923   8.230  0.5223  0.0948  0.7091
   55CHL1   H20 4047   0.899   4.012   8.207  1.0264 -0.6332 -0.9242
   55CHL1   C21 4048   0.937   3.835   8.314 -0.2829  0.6537 -0.2229
   55CHL1  H21A 4049   1.026   3.838   8.248  1.3877 -0.6906  1.8324
   55CHL1  H21B 4050   0.890   3.734   8.325 -0.8011  1.0056  0.9138
   55CHL1  H21C 4051   0.967   3.869   8.415  0.8584  1.0219 -0.6740
   55CHL1   C22 4052   0.715   3.967   8.312  0.0010  0.6605 -0.6775
   55CHL1  H22A 4053   0.642   4.020   8.246 -1.7424 -0.8555 -0.0512
   55CHL1  H22B 4054   0.667   3.882   8.365 -1.1447  1.5957 -0.1534
   55CHL1   C23 4055   0.744   4.064   8.433  0.5446 -0.1476 -0.5832
   55CHL1  H23A 4056   0.850   4.097   8.430  0.4565  0.1754 -0.2845
   55CHL1  H23B 4057   0.680   4.155   8.433  1.0138  0.2075  0.6187
   55CHL1   C24 4058   0.731   3.983   8.565 -0.0233 -0.0320 -0.1143
   55CHL1  H24A 4059   0.636   3.926   8.570  0.3159 -0.5109  1.3351
   55CHL1  H24B 4060   0.813   3.909   8.561  0.5859  0.6714 -0.9061
   55CHL1   C25 4061   0.715   4.072   8.689  0.5079 -0.4448 -0.0935
   55CHL1   H25 4062   0.641   4.149   8.659  0.5147 -0.3600  0.1055
   55CHL1   C26 4063   0.667   3.987   8.809 -0.3105  0.1049  0.0196
   55CHL1  H26A 4064   0.744   3.909   8.828 -2.2011 -1.9552 -0.3512
   55CHL1  H26B 4065   0.657   4.050   8.901 -0.5346 -0.5907  0.4811
   55CHL1  H26C 4066   0.573   3.931   8.792 -0.1458 -0.7352  1.6254
   55CHL1   C27 4067   0.847   4.150   8.710 -0.9867 -0.3030 -0.1705
   55CHL1  H27A 4068   0.936   4.084   8.715  0.6001  1.8335  1.5478
   55CHL1  H27B 4069   0.850   4.211   8.617 -2.8224  0.1473  0.0198
   55CHL1  H27C 4070   0.844   4.228   8.789 -0.8712  0.5091 -0.9515
   56CHL1    C3 4071   0.434   1.593   6.964  0.6754 -0.2897 -0.3629
   56CHL1    H3 4072   0.463   1.699   6.986  2.1067 -0.5076 -1.0582
   56CHL1    O3 4073   0.397   1.582   6.824  0.2448  0.4642 -0.2387
   56CHL1   H3' 4074   0.414   1.493   6.793  3.2872  0.5213  0.9508
   56CHL1    C4 4075   0.563   1.517   7.009  0.2878  0.2141 -0.5593
   56CHL1   H4A 4076   0.552   1.408   6.989  2.1504 -0.8045  3.1260
   56CHL1   H4B 4077   0.654   1.551   6.953 -0.5207 -1.2072 -2.9009
   56CHL1    C5 4078   0.595   1.542   7.158  0.2019  0.4634  0.2986
   56CHL1    C6 4079   0.716   1.575   7.200 -0.2025 -0.2472  0.4490
   56CHL1    H6 4080   0.792   1.590   7.122 -1.6071 -0.1541 -0.9499
   56CHL1    C7 4081   0.760   1.583   7.344 -0.1100 -0.2929  0.9421
   56CHL1   H7A 4082   0.865   1.546   7.348  0.2885  0.3895 -1.5879
   56CHL1   H7B 4083   0.756   1.692   7.369 -1.1894 -0.3098  0.8755
   56CHL1    C8 4084   0.661   1.510   7.441 -0.8084  0.0459  0.2016
   56CHL1    H8 4085   0.672   1.400   7.428 -2.4852 -0.2698  1.1138
   56CHL1   C14 4086   0.683   1.560   7.583 -0.0103 -0.5562  0.4444
   56CHL1   H14 4087   0.663   1.670   7.584  0.1589 -0.5249  0.8659
   56CHL1   C15 4088   0.821   1.526   7.644 -0.1920  0.2863  0.3416
   56CHL1  H15A 4089   0.841   1.422   7.609 -1.2732  0.0734  0.2893
   56CHL1  H15B 4090   0.911   1.576   7.603  1.4710 -4.5558 -2.7987
   56CHL1   C16 4091   0.798   1.544   7.792 -0.5649 -0.7371 -0.1272
   56CHL1  H16A 4092   0.848   1.461   7.847 -1.5694 -1.1666  0.1567
   56CHL1  H16B 4093   0.853   1.634   7.829  1.4780 -2.6831  1.9167
   56CHL1   C17 4094   0.648   1.565   7.825  0.1474 -1.3356 -0.1043
   56CHL1   H17 4095   0.614   1.671   7.829 -0.1007 -1.3858 -0.6289
   56CHL1   C13 4096   0.580   1.510   7.696  0.0359  0.5198  0.1797
   56CHL1   C18 4097   0.585   1.356   7.712 -0.0752 -0.7503  0.0838
   56CHL1  H18A 4098   0.557   1.309   7.615 -1.3529 -2.2796  1.1523
   56CHL1  H18B 4099   0.682   1.309   7.739 -0.7822 -2.3940 -0.1126
   56CHL1  H18C 4100   0.512   1.337   7.793  1.0331  1.8832  1.8183
   56CHL1   C12 4101   0.443   1.553   7.656  0.3926 -0.0458  0.4697
   56CHL1  H12A 4102   0.368   1.518   7.729  0.3355 -1.8172 -0.3761
   56CHL1  H12B 4103   0.448   1.663   7.638 -0.0308 -0.3254 -1.6737
   56CHL1   C11 4104   0.408   1.506   7.507 -0.5614  0.6221  0.0284
   56CHL1  H11A 4105   0.375   1.400   7.507 -1.7655  0.9841  0.0498
   56CHL1  H11B 4106   0.312   1.557   7.486  0.2586  2.2417  0.0365
   56CHL1    C9 4107   0.519   1.547   7.404 -0.1344  0.6265  0.3143
   56CHL1    H9 4108   0.518   1.658   7.396 -3.1030  0.5485 -2.6941
   56CHL1   C10 4109   0.479   1.505   7.257  0.0150 -0.2684 -0.2185
   56CHL1   C19 4110   0.472   1.347   7.259  0.1851  0.6530  0.6860
   56CHL1  H19A 4111   0.397   1.313   7.335 -0.1266  1.2133  0.6363
   56CHL1  H19B 4112   0.439   1.304   7.162  1.8178 -1.0990  0.8505
   56CHL1  H19C 4113   0.574   1.304   7.268 -0.4708 -0.9045  1.0614
   56CHL1    C1 4114   0.348   1.568   7.206 -0.2396 -0.0168 -0.2364
   56CHL1   H1A 4115   0.259   1.528   7.258 -0.9995 -0.7775 -2.0147
   56CHL1   H1B 4116   0.344   1.678   7.223 -0.4378 -0.3012  1.7774
   56CHL1    C2 4117   0.319   1.552   7.054  0.1733  0.3917  0.3487
   56CHL1   H2A 4118   0.227   1.605   7.022  0.1357  0.9239  1.3069
   56CHL1   H2B 4119   0.303   1.442   7.043  2.7710 -0.1132  0.8684
   56CHL1   C20 4120   0.617   1.513   7.971 -0.2488 -0.0385  0.1650
   56CHL1   H20 4121   0.640   1.404   7.979  0.8893  0.2783  1.6091
   56CHL1   C21 4122   0.462   1.547   7.999 -1.0736  0.0927  0.5274
   56CHL1  H21A 4123   0.454   1.654   7.970  3.4352 -0.1304 -2.7025
   56CHL1  H21B 4124   0.437   1.524   8.105  0.8890 -1.2233  0.7656
   56CHL1  H21C 4125   0.410   1.477   7.930  0.8504 -0.5466 -0.3729
   56CHL1   C22 4126   0.708   1.574   8.084 -0.0627 -0.1251  0.3224
   56CHL1  H22A 4127   0.816   1.552   8.073  0.2844  2.3157 -1.9063
   56CHL1  H22B 4128   0.702   1.683   8.064  1.0667 -0.5872 -3.1118
   56CHL1   C23 4129   0.663   1.532   8.226 -0.6004  0.2170  0.6904
   56CHL1  H23A 4130   0.582   1.599   8.261 -0.6234  0.0820  0.8968
   56CHL1  H23B 4131   0.624   1.429   8.219 -1.9615  0.7762 -0.2422
   56CHL1   C24 4132   0.776   1.544   8.334  0.4845  0.7540 -0.5924
   56CHL1  H24A 4133   0.870   1.492   8.304  0.5289  1.0912 -1.0549
   56CHL1  H24B 4134   0.812   1.649   8.331  0.5602  0.7345 -0.3726
   56CHL1   C25 4135   0.740   1.499   8.478 -0.0986  0.4501  0.1082
   56CHL1   H25 4136   0.637   1.537   8.496 -1.3318 -2.1437 -0.8838
   56CHL1   C26 4137   0.722   1.344   8.482 -0.1351 -0.0193 -0.1027
   56CHL1  H26A 4138   0.665   1.308   8.394  1.3357 -0.0222 -1.0889
   56CHL1  H26B 4139   0.679   1.325   8.583  1.5142 -0.3527  0.5678
   56CHL1  H26C 4140   0.818   1.288   8.484  0.0931  0.3978  1.3234
   56CHL1   C27 4141   0.836   1.559   8.578 -0.8186  0.7557 -0.4051
   56CHL1  H27A 4142   0.834   1.671   8.575 -1.5044  0.7329 -2.1191
   56CHL1  H27B 4143   0.837   1.518   8.681  1.0913  0.8062 -0.3585
   56CHL1  H27C 4144   0.932   1.529   8.531  0.2184  1.2723  1.2987
   57SAPC     N 4145   1.478   3.283  11.288 -0.4352  0.5560 -0.5949
   57SAPC   C12 4146   1.493   3.167  11.195  0.3844 -0.6534 -0.7656
   57SAPC  H12A 4147   1.397   3.119  11.190  0.0387  0.0073 -0.5314
   57SAPC  H12B 4148   1.560   3.096  11.242  2.0490 -0.0351 -2.0989
   57SAPC   C13 4149   1.407   3.400  11.225  0.2464 -0.9340  0.4485
   57SAPC  H13A 4150   1.304   3.385  11.195  0.2456 -0.2918  0.1160
   57SAPC  H13B 4151   1.408   3.488  11.289  1.8842 -1.4288  1.1528
   57SAPC  H13C 4152   1.456   3.433  11.135 -1.7568  2.3775  0.3859
   57SAPC   C14 4153   1.383   3.248  11.411 -0.7087 -0.1176  1.1092
   57SAPC  H14A 4154   1.379   3.330  11.480 -2.4345  1.1612 -0.4033
   57SAPC  H14B 4155   1.281   3.223  11.385 -0.8618  2.5117 -1.3803
   57SAPC  H14C 4156   1.429   3.163  11.459  1.1762  1.9309  3.0915
   57SAPC   C15 4157   1.612   3.328  11.332 -0.5006  0.8540  0.0219
   57SAPC  H15A 4158   1.669   3.342  11.241 -3.1362 -0.0068 -1.9020
   57SAPC  H15B 4159   1.613   3.411  11.401  2.5668  0.6276  0.3952
   57SAPC  H15C 4160   1.656   3.244  11.384  0.4508  1.8067  0.8040
   57SAPC   C11 4161   1.541   3.200  11.047 -0.3718 -0.4363 -0.5160
   57SAPC  H11A 4162   1.464   3.271  11.010  1.0171  1.6565  0.4177
   57SAPC  H11B 4163   1.555   3.113  10.979  1.9614 -0.5892  0.0745
   57SAPC     P 4164   1.699   3.376  10.959 -0.1211  0.4244 -0.2699
   57SAPC   O13 4165   1.646   3.494  11.032  0.2301  0.6852 -0.4190
   57SAPC   O14 4166   1.846   3.381  10.935 -0.2169  0.5031  0.4076
   57SAPC   O12 4167   1.672   3.248  11.056  0.0589  0.4683  0.3737
   57SAPC   O11 4168   1.611   3.341  10.831 -0.4469 -0.6348  0.3662
   57SAPC    C1 4169   1.658   3.230  10.753 -0.6281  0.1416 -0.4157
   57SAPC    HA 4170   1.768   3.232  10.740 -0.3684 -0.1867  1.3897
   57SAPC    HB 4171   1.625   3.130  10.790  0.5751  0.1884  0.8828
   57SAPC    C2 4172   1.602   3.229  10.609  0.7429  0.0643 -0.7886
   57SAPC    HS 4173   1.650   3.153  10.543  1.5140  1.1826 -1.5671
   57SAPC   O21 4174   1.618   3.354  10.548 -0.7881 -0.0453 -0.3495
   57SAPC   C21 4175   1.743   3.392  10.513 -0.1198  0.4361 -0.2782
   57SAPC   O22 4176   1.845   3.327  10.516  0.1514 -0.1119  0.0393
   57SAPC   C22 4177   1.737   3.545  10.486  0.4969  0.7592  0.1106
   57SAPC   H2R 4178   1.644   3.555  10.426  1.5450 -0.2441 -1.7705
   57SAPC   H2S 4179   1.739   3.595  10.585 -2.1119 -1.1691  1.2401
   57SAPC    C3 4180   1.458   3.193  10.602  0.0803 -0.5546  0.1112
   57SAPC    HX 4181   1.413   3.271  10.668 -0.1411  1.5017 -2.3090
   57SAPC    HY 4182   1.423   3.096  10.643 -2.0474 -0.2664 -0.8735
   57SAPC   O31 4183   1.400   3.221  10.472  0.4672  0.0317  0.0673
   57SAPC   C31 4184   1.419   3.135  10.369 -0.9628 -0.9188  0.1283
   57SAPC   O32 4185   1.480   3.028  10.382  0.9344 -0.8268  0.4959
   57SAPC   C32 4186   1.359   3.193  10.247  0.2495  0.6421 -0.2749
   57SAPC   H2X 4187   1.406   3.291  10.224  2.3436  0.5867  3.1757
   57SAPC   H2Y 4188   1.249   3.185  10.261  0.5086 -0.6180  1.2719
   57SAPC   C23 4189   1.854   3.590  10.393  0.1192 -0.5815  0.7034
   57SAPC   H3R 4190   1.836   3.535  10.298  2.2402  3.0066 -2.0667
   57SAPC   H3S 4191   1.957   3.571  10.430  0.4813  0.5782  0.3441
   57SAPC   C24 4192   1.865   3.742  10.360  0.1725  0.4685 -0.0572
   57SAPC   H4R 4193   1.962   3.733  10.307  0.2059 -1.2407  0.2429
   57SAPC   H4S 4194   1.856   3.814  10.444 -5.1525  1.0681 -0.8057
   57SAPC   C25 4195   1.763   3.790  10.259  0.4052 -0.2830 -0.4572
   57SAPC   H5R 4196   1.675   3.829  10.313  1.0935  0.0861  0.4259
   57SAPC   C26 4197   1.777   3.807  10.128  0.2744  1.2941  0.2999
   57SAPC   H6R 4198   1.686   3.847  10.081  0.1530 -0.4494 -1.0305
   57SAPC   C27 4199   1.901   3.783  10.042  0.2566  0.5680 -0.6095
   57SAPC   H7R 4200   1.989   3.774  10.110 -0.9228 -1.3919  0.7661
   57SAPC   H7S 4201   1.914   3.873   9.979  2.0031  0.6751 -0.1446
   57SAPC   C28 4202   1.893   3.668   9.951  0.1465  0.2201  0.1732
   57SAPC   H8R 4203   1.824   3.587   9.980 -0.4100  0.4587 -0.4431
   57SAPC   C29 4204   1.943   3.656   9.830  0.4366 -0.5140  0.3115
   57SAPC   H9R 4205   1.932   3.558   9.781 -0.5092  0.3459 -1.2677
   57SAPC  C210 4206   2.029   3.758   9.761  0.6565  0.2009 -0.4761
   57SAPC  H10R 4207   2.127   3.708   9.745 -1.0890 -3.2957 -1.2590
   57SAPC  H10S 4208   2.054   3.830   9.843  1.4386 -0.7795  0.1692
   57SAPC  C211 4209   1.972   3.833   9.638  0.6089 -0.3483 -0.4185
   57SAPC  H11R 4210   1.920   3.930   9.645 -1.2693 -1.2915 -0.6345
   57SAPC  C212 4211   1.968   3.780   9.515 -0.4773 -0.3955 -0.0580
   57SAPC  H12R 4212   1.904   3.826   9.439  0.3068 -0.0599 -0.5345
   57SAPC  C213 4213   2.022   3.647   9.471  0.1745 -0.4178  0.2867
   57SAPC  H13R 4214   2.058   3.590   9.559  0.4145 -0.2411  0.3032
   57SAPC  H13S 4215   2.102   3.670   9.398  0.0313  2.7844  0.9835
   57SAPC  C214 4216   1.898   3.572   9.416  0.3034 -0.6019 -0.0623
   57SAPC  H14R 4217   1.837   3.528   9.496  1.0617 -0.9956  0.3080
   57SAPC  C215 4218   1.876   3.545   9.284 -0.5452 -0.2827  0.3950
   57SAPC  H15R 4219   1.783   3.502   9.244  1.1097 -2.5123 -1.2921
   57SAPC  C216 4220   1.958   3.596   9.168 -0.4025 -0.1580 -1.2246
   57SAPC  H16R 4221   1.983   3.703   9.180  1.3721 -0.5007 -1.5644
   57SAPC  H16S 4222   1.891   3.622   9.083  0.1716  1.3297 -1.2485
   57SAPC  C217 4223   2.080   3.509   9.133  0.3500  0.5967 -0.9624
   57SAPC  H17R 4224   2.051   3.420   9.075 -0.2264  0.0625  0.1215
   57SAPC  H17S 4225   2.129   3.474   9.226  1.1622 -0.3484 -1.7279
   57SAPC  C218 4226   2.181   3.601   9.056 -0.1321  0.5720 -1.1343
   57SAPC  H18R 4227   2.229   3.673   9.126 -0.9037  0.4290 -0.4360
   57SAPC  H18S 4228   2.126   3.663   8.981  0.0018  1.2755 -0.6668
   57SAPC  C219 4229   2.297   3.530   8.994 -0.2816 -0.2660  0.4410
   57SAPC  H19R 4230   2.261   3.437   8.945 -0.0530 -0.6293  0.9517
   57SAPC  H19S 4231   2.363   3.492   9.075 -0.9177 -0.9199  0.6663
   57SAPC  C220 4232   2.381   3.618   8.903  0.3087  0.5279 -0.7763
   57SAPC  H20R 4233   2.422   3.690   8.977 -1.1016 -0.4326  1.0285
   57SAPC  H20S 4234   2.309   3.651   8.826 -1.6186  0.6031  0.9618
   57SAPC  H20T 4235   2.464   3.571   8.847 -1.5682 -2.6156 -1.1196
   57SAPC   C33 4236   1.368   3.094  10.124  1.0006 -0.2583 -0.4163
   57SAPC   H3X 4237   1.310   3.002  10.145  0.1529  0.3066 -0.2475
   57SAPC   H3Y 4238   1.474   3.071  10.098  2.3394  0.7939  3.3810
   57SAPC   C34 4239   1.312   3.162  10.002 -0.2071  0.3941  0.4229
   57SAPC   H4X 4240   1.368   3.254   9.977  1.9604 -1.1499 -0.7399
   57SAPC   H4Y 4241   1.210   3.203  10.021 -0.1244  1.6283 -1.4478
   57SAPC   C35 4242   1.311   3.064   9.881  0.4657 -0.2174 -0.3180
   57SAPC   H5X 4243   1.240   2.981   9.905 -0.4724  0.6645  0.0194
   57SAPC   H5Y 4244   1.412   3.019   9.870  0.4252 -0.1424 -1.0029
   57SAPC   C36 4245   1.274   3.137   9.752 -0.4938  0.2617  0.6348
   57SAPC   H6X 4246   1.334   3.230   9.745  0.8974 -0.6989 -0.8986
   57SAPC   H6Y 4247   1.169   3.172   9.759 -0.2802  0.6806  2.4535
   57SAPC   C37 4248   1.319   3.068   9.623 -0.0868 -0.0122 -0.5246
   57SAPC   H7X 4249   1.269   2.972   9.596 -0.4056  0.3169 -1.1429
   57SAPC   H7Y 4250   1.428   3.052   9.641  0.4748  5.4013  3.5420
   57SAPC   C38 4251   1.320   3.144   9.490 -0.6449  0.2125 -0.0293
   57SAPC   H8X 4252   1.404   3.217   9.498  1.4608 -2.0963  0.1045
   57SAPC   H8Y 4253   1.222   3.196   9.489 -0.8498 -0.1864 -0.9767
   57SAPC   C39 4254   1.340   3.062   9.362 -0.4722 -0.0717  0.2836
   57SAPC   H9X 4255   1.262   2.983   9.360 -0.1374 -0.4108  0.3808
   57SAPC   H9Y 4256   1.441   3.018   9.347 -0.3698  0.5263 -0.8310
   57SAPC  C310 4257   1.324   3.146   9.229  0.2670  0.6624  0.3132
   57SAPC  H10X 4258   1.397   3.229   9.238  1.4529 -0.3590  0.3779
   57SAPC  H10Y 4259   1.223   3.190   9.216 -1.2240 -2.2092  1.2303
   57SAPC  C311 4260   1.347   3.058   9.097  0.4761  0.0462 -0.0447
   57SAPC  H11X 4261   1.283   2.968   9.099 -0.2754  0.4828 -2.1130
   57SAPC  H11Y 4262   1.448   3.013   9.111  0.8214  0.2456 -1.7119
   57SAPC  C312 4263   1.332   3.127   8.958 -0.8648 -0.6427 -0.3420
   57SAPC  H12X 4264   1.375   3.229   8.967 -1.5155 -0.3735 -0.2347
   57SAPC  H12Y 4265   1.223   3.130   8.939 -0.8412 -3.2028 -1.4367
   57SAPC  C313 4266   1.407   3.055   8.847  0.3200  0.8525  0.0314
   57SAPC  H13X 4267   1.381   2.947   8.844  3.6212 -0.0879  1.1687
   57SAPC  H13Y 4268   1.516   3.068   8.862  0.6324 -0.2992 -1.1683
   57SAPC  C314 4269   1.367   3.118   8.709 -0.5658 -0.0464 -0.6718
   57SAPC  H14X 4270   1.270   3.165   8.735  1.5557  3.0592  2.4353
   57SAPC  H14Y 4271   1.339   3.040   8.634 -0.9518  0.5099 -1.1219
   57SAPC  C315 4272   1.465   3.229   8.657 -0.1896  0.3833 -0.2488
   57SAPC  H15X 4273   1.562   3.174   8.656 -0.2505  0.2700 -0.0558
   57SAPC  H15Y 4274   1.467   3.313   8.729  2.1357  0.0337  0.1853
   57SAPC  C316 4275   1.415   3.278   8.523 -0.4296  0.4803 -0.4384
   57SAPC  H16X 4276   1.424   3.387   8.505 -2.1453  0.2383 -3.5044
   57SAPC  H16Y 4277   1.306   3.261   8.516 -0.7276  2.1486 -0.3256
   57SAPC  C317 4278   1.465   3.212   8.391 -0.1489 -0.6706  0.2269
   57SAPC  H17X 4279   1.450   3.104   8.414 -0.5974 -0.3549  1.4883
   57SAPC  H17Y 4280   1.575   3.226   8.379 -0.1706  0.0085  0.8087
   57SAPC  C318 4281   1.385   3.234   8.262 -0.1912 -0.5854  0.0409
   57SAPC  H18X 4282   1.390   3.337   8.221 -2.1048 -0.3514  0.3017
   57SAPC  H18Y 4283   1.278   3.210   8.279 -0.4904  0.5158 -0.2392
   57SAPC  H18Z 4284   1.418   3.155   8.191  0.0597 -0.8897  0.4943
   58SAPC     N 4285   3.367   0.715  10.778 -1.0300 -0.3795  1.0109
   58SAPC   C12 4286   3.227   0.735  10.828  0.1753 -0.6036 -0.2939
   58SAPC  H12A 4287   3.216   0.842  10.823  0.2429 -0.6439 -2.7772
   58SAPC  H12B 4288   3.217   0.703  10.931 -0.3565 -2.0917 -0.7849
   58SAPC   C13 4289   3.388   0.783  10.643  0.2664 -0.3012 -0.2535
   58SAPC  H13A 4290   3.371   0.889  10.651 -1.2376 -0.6456  2.7231
   58SAPC  H13B 4291   3.489   0.761  10.611 -0.6228 -0.5557 -3.1871
   58SAPC  H13C 4292   3.331   0.740  10.562 -1.0447 -0.3818  0.6735
   58SAPC   C14 4293   3.465   0.776  10.876  0.8237  0.2982 -0.6859
   58SAPC  H14A 4294   3.462   0.884  10.876 -0.2456  0.2947  0.2933
   58SAPC  H14B 4295   3.464   0.723  10.970  0.7372 -2.4743 -2.1746
   58SAPC  H14C 4296   3.564   0.753  10.840  1.1733 -1.6361  1.3088
   58SAPC   C15 4297   3.398   0.574  10.771  0.9586  0.1276 -0.1635
   58SAPC  H15A 4298   3.412   0.542  10.873  0.4356 -0.3138 -0.2215
   58SAPC  H15B 4299   3.315   0.514  10.736  0.8919  1.6207 -2.8767
   58SAPC  H15C 4300   3.488   0.551  10.716 -0.5569 -0.9188 -2.3426
   58SAPC   C11 4301   3.105   0.681  10.754  0.6164  0.1334 -0.7164
   58SAPC  H11A 4302   3.116   0.571  10.746 -1.8580 -0.0643 -2.2302
   58SAPC  H11B 4303   3.110   0.721  10.651  0.1552  2.7416  0.1824
   58SAPC     P 4304   2.934   0.870  10.796  0.0973  0.4525 -0.2837
   58SAPC   O13 4305   2.809   0.888  10.873  0.6383  0.7433  0.2400
   58SAPC   O14 4306   3.037   0.974  10.819 -0.5038  0.1113  0.2053
   58SAPC   O12 4307   2.989   0.724  10.828 -0.3781 -0.0307  0.5797
   58SAPC   O11 4308   2.910   0.861  10.644  0.0761  0.3679  0.6125
   58SAPC    C1 4309   2.801   0.791  10.597  0.1294 -0.0244  0.1100
   58SAPC    HA 4310   2.800   0.689  10.640 -0.0294  0.9385  2.5636
   58SAPC    HB 4311   2.706   0.833  10.635 -0.9239 -1.1681 -1.1555
   58SAPC    C2 4312   2.780   0.788  10.444 -0.2987 -0.9294 -0.3362
   58SAPC    HS 4313   2.847   0.707  10.407 -0.0270 -2.0968  2.4187
   58SAPC   O21 4314   2.821   0.921  10.397  0.4626 -0.4002 -0.7205
   58SAPC   C21 4315   2.951   0.937  10.358 -0.1149  0.2255  0.0970
   58SAPC   O22 4316   3.026   0.848  10.322  0.4141 -0.1136  0.2949
   58SAPC   C22 4317   2.989   1.090  10.364 -0.6794  0.1444 -0.6300
   58SAPC   H2R 4318   2.901   1.156  10.346 -0.6749 -0.3041 -2.4260
   58SAPC   H2S 4319   3.028   1.100  10.468 -3.9920  0.0076  0.7816
   58SAPC    C3 4320   2.640   0.755  10.405  0.3492  0.0496  0.3891
   58SAPC    HX 4321   2.563   0.821  10.451 -0.0961 -0.2295  0.0467
   58SAPC    HY 4322   2.614   0.656  10.449 -1.0973  0.2208 -0.0193
   58SAPC   O31 4323   2.619   0.760  10.257 -0.3063 -0.6734  0.2963
   58SAPC   C31 4324   2.680   0.663  10.189  0.2832  0.3195  0.2234
   58SAPC   O32 4325   2.733   0.558  10.231 -0.0605 -1.7193 -0.1941
   58SAPC   C32 4326   2.665   0.705  10.039  0.4752  0.2674 -0.2563
   58SAPC   H2X 4327   2.731   0.791  10.013  1.2101 -0.4006 -0.6649
   58SAPC   H2Y 4328   2.561   0.732  10.013 -0.1107  1.1683  2.6925
   58SAPC   C23 4329   3.095   1.134  10.255 -0.3055 -0.1765  1.1670
   58SAPC   H3R 4330   3.171   1.055  10.235 -1.0363 -0.2727 -1.5983
   58SAPC   H3S 4331   3.156   1.223  10.282  0.6001 -0.2372 -0.5306
   58SAPC   C24 4332   3.023   1.160  10.113  0.2803 -0.4211 -0.0323
   58SAPC   H4R 4333   3.098   1.220  10.057  0.1114  0.6700  0.8739
   58SAPC   H4S 4334   2.943   1.237  10.119  1.3651  0.6900  0.6165
   58SAPC   C25 4335   2.974   1.041  10.037  0.8760  0.2612  0.5092
   58SAPC   H5R 4336   2.904   0.977  10.093 -0.7047  0.6731 -0.8958
   58SAPC   C26 4337   2.982   1.000   9.909  0.3107  0.0024 -0.4104
   58SAPC   H6R 4338   2.927   0.908   9.884 -0.5730  0.2953  0.4099
   58SAPC   C27 4339   3.055   1.059   9.798  0.1403  0.9756  0.0118
   58SAPC   H7R 4340   3.144   1.001   9.767  1.3345  1.9868  1.3859
   58SAPC   H7S 4341   3.092   1.159   9.830 -1.0984  1.5040 -0.1737
   58SAPC   C28 4342   2.971   1.066   9.669  0.6728  0.6766 -0.9451
   58SAPC   H8R 4343   2.862   1.079   9.678  0.9198  2.6418 -0.2013
   58SAPC   C29 4344   3.022   1.071   9.540  0.1897 -0.3315 -0.7283
   58SAPC   H9R 4345   2.967   1.079   9.446  1.5282 -2.4364 -1.7515
   58SAPC  C210 4346   3.166   1.075   9.510  0.1909 -0.6342 -0.5104
   58SAPC  H10R 4347   3.190   0.995   9.437 -0.2305 -1.0258 -0.2256
   58SAPC  H10S 4348   3.226   1.052   9.601 -2.7939 -0.4847  1.6142
   58SAPC  C211 4349   3.219   1.210   9.470  0.6266  1.2731 -0.0488
   58SAPC  H11R 4350   3.224   1.294   9.541  2.3966  2.7224 -1.7808
   58SAPC  C212 4351   3.268   1.239   9.348  0.5940 -0.4047  0.1877
   58SAPC  H12R 4352   3.283   1.346   9.328  0.2245  0.0332  2.0757
   58SAPC  C213 4353   3.285   1.157   9.224 -0.2021 -1.0910 -0.2131
   58SAPC  H13R 4354   3.246   1.057   9.250 -0.2493 -0.5378  2.0562
   58SAPC  H13S 4355   3.391   1.142   9.197  0.2371 -0.2282  0.9352
   58SAPC  C214 4356   3.231   1.232   9.103 -0.6155  0.3834 -0.3109
   58SAPC  H14R 4357   3.123   1.222   9.086 -0.4833 -2.8288  0.0295
   58SAPC  C215 4358   3.298   1.303   9.007  0.2207 -0.0149 -0.2657
   58SAPC  H15R 4359   3.243   1.349   8.924 -1.2496  1.0856  1.2690
   58SAPC  C216 4360   3.447   1.337   9.010 -0.6564 -0.2398 -0.8130
   58SAPC  H16R 4361   3.497   1.287   9.096 -0.4202 -2.8389 -2.3583
   58SAPC  H16S 4362   3.462   1.447   9.010  1.6505 -0.4965  0.3417
   58SAPC  C217 4363   3.529   1.293   8.890 -0.5607  0.1404  0.0553
   58SAPC  H17R 4364   3.553   1.185   8.896  0.5559  0.3582 -0.1436
   58SAPC  H17S 4365   3.625   1.350   8.895 -0.8563  0.9235 -2.0074
   58SAPC  C218 4366   3.460   1.325   8.753  0.1655  0.3944  0.5981
   58SAPC  H18R 4367   3.429   1.432   8.752 -1.8425 -0.1101  1.7982
   58SAPC  H18S 4368   3.367   1.269   8.727  0.2485 -0.8204  2.6954
   58SAPC  C219 4369   3.552   1.306   8.629  0.3475  0.2616 -0.1578
   58SAPC  H19R 4370   3.638   1.374   8.617  1.4979 -1.3319 -1.3192
   58SAPC  H19S 4371   3.477   1.312   8.547 -2.5553 -1.2375  2.1822
   58SAPC  C220 4372   3.609   1.161   8.634  0.0983 -0.4043  0.3189
   58SAPC  H20R 4373   3.640   1.137   8.530  1.0175 -0.4450  0.5993
   58SAPC  H20S 4374   3.534   1.085   8.665  0.6402  0.1879  3.4518
   58SAPC  H20T 4375   3.698   1.154   8.700 -0.2401  0.4685  0.8889
   58SAPC   C33 4376   2.733   0.604   9.940 -0.8235 -0.4700  0.0095
   58SAPC   H3X 4377   2.660   0.520   9.930 -1.5191  0.3526 -2.9332
   58SAPC   H3Y 4378   2.830   0.567   9.979 -0.9598  0.4028  1.2420
   58SAPC   C34 4379   2.751   0.656   9.794  0.4534  0.5695  0.1710
   58SAPC   H4X 4380   2.796   0.757   9.787 -0.2775  0.9593  0.9886
   58SAPC   H4Y 4381   2.648   0.673   9.755  0.6854 -0.1186 -0.7782
   58SAPC   C35 4382   2.835   0.570   9.700 -0.0640 -0.1454 -0.1363
   58SAPC   H5X 4383   2.791   0.468   9.701 -0.2625 -0.0702 -0.6433
   58SAPC   H5Y 4384   2.939   0.571   9.740  0.6599  2.3380 -1.7772
   58SAPC   C36 4385   2.857   0.625   9.554  0.6679  0.4463 -0.2248
   58SAPC   H6X 4386   2.883   0.732   9.566 -0.6768  0.7383  0.2820
   58SAPC   H6Y 4387   2.759   0.615   9.504  0.3073  1.2901  0.2916
   58SAPC   C37 4388   2.972   0.567   9.465 -0.2038 -0.1597  0.0196
   58SAPC   H7X 4389   2.935   0.462   9.460 -1.9662  0.4541 -0.2839
   58SAPC   H7Y 4390   3.067   0.547   9.520  0.9557  2.5220 -0.8641
   58SAPC   C38 4391   2.983   0.631   9.322 -1.0370 -0.3749  0.4430
   58SAPC   H8X 4392   2.890   0.625   9.261 -1.5877 -0.9339  1.3346
   58SAPC   H8Y 4393   3.056   0.564   9.271 -1.7038 -0.7998  0.0322
   58SAPC   C39 4394   3.034   0.773   9.317 -0.6226 -0.5208  0.4557
   58SAPC   H9X 4395   3.124   0.785   9.381  0.0940 -1.3102 -0.3832
   58SAPC   H9Y 4396   2.965   0.842   9.369 -1.9588 -1.0340 -0.5602
   58SAPC  C310 4397   3.074   0.832   9.178 -0.2257 -0.4129  0.3045
   58SAPC  H10X 4398   3.078   0.943   9.187 -0.7382 -0.5641  5.0479
   58SAPC  H10Y 4399   3.023   0.793   9.087  0.9126  1.1154 -1.0435
   58SAPC  C311 4400   3.218   0.782   9.142  0.0245  0.2263 -0.1117
   58SAPC  H11X 4401   3.220   0.672   9.132  1.8861  0.3240 -1.2463
   58SAPC  H11Y 4402   3.285   0.829   9.217 -1.8316  1.0018  1.1528
   58SAPC  C312 4403   3.259   0.837   9.005 -0.1042 -0.1289  0.1790
   58SAPC  H12X 4404   3.233   0.944   8.998 -1.2124 -0.4961 -2.6420
   58SAPC  H12Y 4405   3.202   0.800   8.917 -2.5470  0.6539  1.3336
   58SAPC  C313 4406   3.403   0.805   8.978 -1.5251  0.9176  0.3396
   58SAPC  H13X 4407   3.436   0.834   8.876  0.5621 -0.6786  0.4775
   58SAPC  H13Y 4408   3.419   0.695   8.984 -2.8532  0.7665  2.0311
   58SAPC  C314 4409   3.513   0.866   9.070 -0.3966  0.8317  0.3436
   58SAPC  H14X 4410   3.521   0.829   9.175  0.4198  0.8283  0.2895
   58SAPC  H14Y 4411   3.482   0.973   9.076  1.6788  1.7129 -2.6225
   58SAPC  C315 4412   3.655   0.886   9.007  0.1793 -0.4556 -0.2596
   58SAPC  H15X 4413   3.703   0.979   9.042  2.2054 -0.6925 -2.1840
   58SAPC  H15Y 4414   3.643   0.914   8.900 -1.8780 -0.1815  0.0034
   58SAPC  C316 4415   3.745   0.766   9.020 -0.6419  0.3474  0.1639
   58SAPC  H16X 4416   3.842   0.798   8.975 -0.1867 -0.6914  0.3824
   58SAPC  H16Y 4417   3.701   0.687   8.957  1.4063  0.7661 -1.9454
   58SAPC  C317 4418   3.760   0.708   9.169  0.4983 -0.8074  0.2789
   58SAPC  H17X 4419   3.662   0.663   9.194  1.0272 -0.7355  2.7059
   58SAPC  H17Y 4420   3.777   0.793   9.239 -1.6184  0.5431 -0.7457
   58SAPC  C318 4421   3.865   0.599   9.196  0.2603  0.1017  0.0426
   58SAPC  H18X 4422   3.968   0.641   9.187  0.9148 -1.1952  1.1419
   58SAPC  H18Y 4423   3.842   0.517   9.125  0.1543  0.8823 -0.8530
   58SAPC  H18Z 4424   3.853   0.574   9.304  0.8493  0.3375  0.1671
   59SAPC     N 4425   4.326   2.338  11.455 -0.7551 -0.2510 -0.0554
   59SAPC   C12 4426   4.387   2.203  11.448  0.3216 -0.2324 -0.6180
   59SAPC  H12A 4427   4.305   2.145  11.408  0.7699  0.1727 -2.2062
   59SAPC  H12B 4428   4.412   2.170  11.547 -0.5175  0.6110 -0.1127
   59SAPC   C13 4429   4.227   2.339  11.575  0.1745 -0.2009 -0.1840
   59SAPC  H13A 4430   4.152   2.261  11.572  0.7888 -1.0056  2.5022
   59SAPC  H13B 4431   4.278   2.323  11.668  1.0960  1.5751 -0.3519
   59SAPC  H13C 4432   4.185   2.439  11.572 -0.1780 -0.3085  0.8214
   59SAPC   C14 4433   4.429   2.440  11.482  0.6519  0.3157 -0.5243
   59SAPC  H14A 4434   4.492   2.429  11.569  1.0529  0.2465 -0.8191
   59SAPC  H14B 4435   4.503   2.445  11.403  1.8625  1.6492  0.6368
   59SAPC  H14C 4436   4.393   2.542  11.475  1.4007  0.5048 -2.1530
   59SAPC   C15 4437   4.256   2.379  11.332  0.2503  0.1964  0.0758
   59SAPC  H15A 4438   4.170   2.316  11.313  0.0849  0.4369  0.0174
   59SAPC  H15B 4439   4.195   2.467  11.347 -3.0662 -1.6280 -1.5765
   59SAPC  H15C 4440   4.321   2.397  11.248 -0.2374  2.1393  0.0601
   59SAPC   C11 4441   4.514   2.176  11.361 -0.2410 -0.4053 -0.1378
   59SAPC  H11A 4442   4.538   2.068  11.348 -0.6391 -0.5199  0.0586
   59SAPC  H11B 4443   4.609   2.218  11.401 -0.6370  0.3942 -0.0392
   59SAPC     P 4444   4.569   2.304  11.127  0.1689 -0.0617 -0.2264
   59SAPC   O13 4445   4.490   2.431  11.124  0.0456  0.1840 -0.0866
   59SAPC   O14 4446   4.713   2.315  11.164  0.2422  0.1580  0.5920
   59SAPC   O12 4447   4.491   2.208  11.221 -0.8802 -0.5600 -0.4497
   59SAPC   O11 4448   4.567   2.232  10.982  0.5976 -0.4046  0.2783
   59SAPC    C1 4449   4.439   2.200  10.921 -0.0886 -0.6265  0.1508
   59SAPC    HA 4450   4.437   2.096  10.880  0.7982 -0.7357  0.3833
   59SAPC    HB 4451   4.358   2.215  10.996  0.8229 -0.4950  1.1151
   59SAPC    C2 4452   4.426   2.296  10.802  0.4372  0.4614  0.6626
   59SAPC    HS 4453   4.446   2.402  10.829  0.1848  0.2716  1.6346
   59SAPC   O21 4454   4.297   2.275  10.741 -0.2640 -0.1078  0.0189
   59SAPC   C21 4455   4.214   2.364  10.789 -0.4665  1.3088 -0.1182
   59SAPC   O22 4456   4.246   2.457  10.854  0.3052 -0.2986 -0.0836
   59SAPC   C22 4457   4.079   2.304  10.767  0.5461  0.3160  0.1295
   59SAPC   H2R 4458   4.083   2.228  10.686 -2.1587  0.2926 -0.0992
   59SAPC   H2S 4459   4.063   2.264  10.869  2.5657  2.3397  1.3307
   59SAPC    C3 4460   4.529   2.252  10.692  0.2488 -0.2886 -0.5378
   59SAPC    HX 4461   4.507   2.144  10.675  0.7522 -0.4409 -0.2653
   59SAPC    HY 4462   4.628   2.269  10.740  0.4490  1.0707 -1.3967
   59SAPC   O31 4463   4.512   2.315  10.567 -0.1727  0.3980  0.2792
   59SAPC   C31 4464   4.568   2.436  10.568  0.4925  0.2974 -0.0561
   59SAPC   O32 4465   4.663   2.469  10.640 -0.5792 -0.3211  0.1081
   59SAPC   C32 4466   4.507   2.533  10.470  0.2026 -0.4441  0.5674
   59SAPC   H2X 4467   4.482   2.628  10.521 -1.4688  0.8226 -2.3325
   59SAPC   H2Y 4468   4.410   2.489  10.438 -0.0989  0.6591 -0.0694
   59SAPC   C23 4469   3.985   2.420  10.726  0.0473 -0.0542  0.2289
   59SAPC   H3R 4470   3.987   2.510  10.792 -0.9023  2.7158 -3.2439
   59SAPC   H3S 4471   3.878   2.390  10.726  0.1035 -0.3953  1.9399
   59SAPC   C24 4472   4.004   2.473  10.578 -0.0824  0.5547 -0.5516
   59SAPC   H4R 4473   3.974   2.396  10.504  0.1994  2.1410 -2.3783
   59SAPC   H4S 4474   4.114   2.491  10.577 -0.1129  1.0126  1.1420
   59SAPC   C25 4475   3.929   2.593  10.536  0.2002 -0.4317  0.0494
   59SAPC   H5R 4476   3.865   2.630  10.618 -1.0701 -0.8661 -0.7194
   59SAPC   C26 4477   3.922   2.646  10.413  0.2241 -0.6322  0.2904
   59SAPC   H6R 4478   3.875   2.745  10.403  1.5934  0.0357  0.1916
   59SAPC   C27 4479   4.013   2.604  10.301 -0.4125  0.2247  0.2936
   59SAPC   H7R 4480   3.978   2.509  10.256 -0.4139 -0.7380  2.1949
   59SAPC   H7S 4481   4.117   2.583  10.335  0.2132  2.5356 -0.0460
   59SAPC   C28 4482   4.026   2.712  10.197  0.8153  0.2142 -0.3246
   59SAPC   H8R 4483   3.957   2.796  10.212  1.0407  0.5365 -1.0237
   59SAPC   C29 4484   4.102   2.714  10.086  0.1131  0.1946 -0.0873
   59SAPC   H9R 4485   4.086   2.802  10.022  1.6319  2.6476  2.6930
   59SAPC  C210 4486   4.199   2.612  10.038  0.4508  0.4383  0.3727
   59SAPC  H10R 4487   4.209   2.531  10.113  2.1852  0.9363  0.7294
   59SAPC  H10S 4488   4.300   2.659  10.032  0.3573  0.5210 -0.9685
   59SAPC  C211 4489   4.170   2.546   9.905  0.1711  0.2932  0.1987
   59SAPC  H11R 4490   4.084   2.479   9.918  0.8934 -0.3381  1.9772
   59SAPC  C212 4491   4.222   2.569   9.782 -0.2079  0.5158 -0.7183
   59SAPC  H12R 4492   4.197   2.504   9.697  1.6225 -0.8782 -0.2704
   59SAPC  C213 4493   4.326   2.680   9.760  0.2358 -0.6216  0.0461
   59SAPC  H13R 4494   4.365   2.724   9.854 -1.5917  1.3374 -0.0251
   59SAPC  H13S 4495   4.285   2.773   9.715  1.8769  0.6980  1.1313
   59SAPC  C214 4496   4.442   2.650   9.675  0.1926 -0.3560  0.6287
   59SAPC  H14R 4497   4.529   2.606   9.726 -0.2751 -0.2772  1.5030
   59SAPC  C215 4498   4.460   2.675   9.542 -0.5597  0.0885  0.2956
   59SAPC  H15R 4499   4.552   2.645   9.490 -2.1498 -1.0282 -2.0569
   59SAPC  C216 4500   4.369   2.741   9.438 -0.4097 -0.2610 -0.7271
   59SAPC  H16R 4501   4.358   2.850   9.456 -0.1953 -0.3508 -0.0226
   59SAPC  H16S 4502   4.266   2.699   9.447 -1.0241  0.4016 -3.7469
   59SAPC  C217 4503   4.431   2.722   9.303 -0.1723  0.8036  0.1306
   59SAPC  H17R 4504   4.450   2.613   9.293  0.4107  0.9920 -1.0500
   59SAPC  H17S 4505   4.529   2.774   9.300 -0.1641  0.8223  0.6281
   59SAPC  C218 4506   4.358   2.766   9.185  0.0900 -0.9435  0.3050
   59SAPC  H18R 4507   4.271   2.701   9.165  0.6759 -1.4164 -0.7753
   59SAPC  H18S 4508   4.431   2.745   9.104  0.9413 -2.7742  1.4721
   59SAPC  C219 4509   4.322   2.911   9.205 -0.1141 -0.7572  0.0412
   59SAPC  H19R 4510   4.412   2.964   9.243 -2.0897  0.9788  2.6549
   59SAPC  H19S 4511   4.246   2.931   9.284  0.9657  0.3494  0.8475
   59SAPC  C220 4512   4.264   2.987   9.083 -0.2643  0.9069 -0.0232
   59SAPC  H20R 4513   4.249   3.094   9.109 -1.5566  1.0164 -1.0856
   59SAPC  H20S 4514   4.167   2.943   9.052  0.4182 -1.8059  1.4369
   59SAPC  H20T 4515   4.330   2.982   8.994 -0.5566 -1.6151 -0.1636
   59SAPC   C33 4516   4.595   2.558  10.347  0.7720 -0.3486  0.6348
   59SAPC   H3X 4517   4.651   2.465  10.321  2.4516  0.4007  1.5018
   59SAPC   H3Y 4518   4.677   2.628  10.371 -1.1324  2.3473 -0.2450
   59SAPC   C34 4519   4.523   2.599  10.215  0.3120 -0.8187  0.5275
   59SAPC   H4X 4520   4.479   2.699  10.232  0.6714 -0.1832 -1.8391
   59SAPC   H4Y 4521   4.441   2.525  10.204 -0.9081  0.7533 -1.9179
   59SAPC   C35 4522   4.608   2.615  10.084 -0.0435  0.1961 -0.2029
   59SAPC   H5X 4523   4.682   2.694  10.111  0.1724  0.2510 -0.9538
   59SAPC   H5Y 4524   4.544   2.665  10.008 -1.8562 -2.3137 -0.4540
   59SAPC   C36 4525   4.671   2.486  10.028 -0.0269  0.4801 -0.0569
   59SAPC   H6X 4526   4.594   2.407  10.010 -0.2856  0.0198  2.6381
   59SAPC   H6Y 4527   4.742   2.442  10.101 -0.0805 -1.0955 -0.9112
   59SAPC   C37 4528   4.752   2.509   9.890  0.1502 -0.1168  0.5049
   59SAPC   H7X 4529   4.859   2.500   9.918  0.8443  3.9275 -0.2281
   59SAPC   H7Y 4530   4.736   2.616   9.866  1.7968 -0.2023 -1.1213
   59SAPC   C38 4531   4.714   2.414   9.781  0.0205  0.3496  0.2510
   59SAPC   H8X 4532   4.604   2.397   9.782  0.2263 -1.5478 -1.7192
   59SAPC   H8Y 4533   4.757   2.312   9.797  0.9275  0.2679 -2.2915
   59SAPC   C39 4534   4.765   2.461   9.648  0.3649  0.0292  0.1023
   59SAPC   H9X 4535   4.876   2.456   9.653  0.4413  1.2005 -0.1283
   59SAPC   H9Y 4536   4.734   2.567   9.643  0.4962  0.0222 -1.1401
   59SAPC  C310 4537   4.710   2.385   9.525  0.1229 -0.1598 -0.0455
   59SAPC  H10X 4538   4.600   2.393   9.543  0.4963  2.1002  1.5719
   59SAPC  H10Y 4539   4.732   2.277   9.537 -1.3816 -0.6339 -1.1423
   59SAPC  C311 4540   4.750   2.424   9.387  0.4588 -0.1262 -0.2543
   59SAPC  H11X 4541   4.861   2.432   9.388  0.4729 -0.3422 -0.0780
   59SAPC  H11Y 4542   4.721   2.529   9.364  2.4613  0.1876 -1.5903
   59SAPC  C312 4543   4.702   2.325   9.276  0.4189 -0.0053 -0.0761
   59SAPC  H12X 4544   4.591   2.331   9.274  0.4194 -0.2314 -1.5399
   59SAPC  H12Y 4545   4.731   2.223   9.307  1.0242 -0.2530 -1.4192
   59SAPC  C313 4546   4.752   2.373   9.143  0.0377  0.7504  0.3690
   59SAPC  H13X 4547   4.734   2.283   9.081 -0.2735 -1.8029  3.8634
   59SAPC  H13Y 4548   4.862   2.389   9.134  0.0519  0.6652  0.3814
   59SAPC  C314 4549   4.674   2.489   9.090  0.1616  0.2446  0.0834
   59SAPC  H14X 4550   4.687   2.583   9.148 -0.6053 -0.0060  0.6676
   59SAPC  H14Y 4551   4.566   2.467   9.093  0.5505 -1.8937  3.2021
   59SAPC  C315 4552   4.711   2.530   8.946  0.1045  0.6905  0.1954
   59SAPC  H15X 4553   4.717   2.437   8.887  0.8227  1.1979 -0.5541
   59SAPC  H15Y 4554   4.814   2.573   8.946  0.3050  0.2101  0.0090
   59SAPC  C316 4555   4.605   2.630   8.898  0.0582 -0.6619 -0.1755
   59SAPC  H16X 4556   4.592   2.709   8.975  0.4877 -0.6567 -0.1034
   59SAPC  H16Y 4557   4.509   2.579   8.878 -1.1364  1.1198  0.8000
   59SAPC  C317 4558   4.638   2.701   8.765  0.1706  0.4531  0.2533
   59SAPC  H17X 4559   4.741   2.741   8.777 -0.1668  1.6048 -0.5852
   59SAPC  H17Y 4560   4.571   2.788   8.756 -1.2311 -0.6894 -0.7665
   59SAPC  C318 4561   4.627   2.613   8.635 -0.2355  0.3046  0.7159
   59SAPC  H18X 4562   4.539   2.547   8.647  0.4359 -1.2402 -2.1683
   59SAPC  H18Y 4563   4.719   2.553   8.618  0.0966  1.2905 -1.3435
   59SAPC  H18Z 4564   4.606   2.678   8.547  0.8291  0.4370  0.5454
   60SAPC     N 4565   6.294   2.017  11.139  0.2659 -0.4002 -0.2193
   60SAPC   C12 4566   6.253   2.065  10.998 -0.5791 -0.1919  0.4034
   60SAPC  H12A 4567   6.146   2.083  10.996 -0.5792 -0.1516  0.7535
   60SAPC  H12B 4568   6.271   1.986  10.927 -3.4200  0.2745 -0.9805
   60SAPC   C13 4569   6.443   1.978  11.139 -0.5199  0.1774 -0.0960
   60SAPC  H13A 4570   6.453   1.894  11.072 -0.6203 -0.8070  1.0761
   60SAPC  H13B 4571   6.506   2.056  11.101  0.6135 -0.8172 -0.3190
   60SAPC  H13C 4572   6.472   1.945  11.238  1.2697 -0.9759 -0.9502
   60SAPC   C14 4573   6.267   2.119  11.243 -0.1211  0.7017 -0.3185
   60SAPC  H14A 4574   6.162   2.144  11.256 -0.5771 -0.3213 -1.7236
   60SAPC  H14B 4575   6.303   2.099  11.342 -3.0525 -0.4979  0.6367
   60SAPC  H14C 4576   6.314   2.210  11.210  0.8001  0.2090 -0.3795
   60SAPC   C15 4577   6.219   1.893  11.165  0.4537  0.1394  0.7003
   60SAPC  H15A 4578   6.112   1.908  11.157  0.6689  1.3307 -0.2280
   60SAPC  H15B 4579   6.267   1.817  11.104  2.0214  0.7958  1.0567
   60SAPC  H15C 4580   6.235   1.880  11.271 -1.4757 -1.2679  0.8675
   60SAPC   C11 4581   6.311   2.196  10.946 -0.4691  0.2100 -0.2580
   60SAPC  H11A 4582   6.301   2.193  10.835 -3.8594  1.2467 -0.1027
   60SAPC  H11B 4583   6.417   2.203  10.978 -1.0325 -1.3468  2.1475
   60SAPC     P 4584   6.100   2.356  10.947 -0.2364 -0.2034  0.5007
   60SAPC   O13 4585   6.010   2.239  10.929 -1.0320  0.6062  0.4719
   60SAPC   O14 4586   6.056   2.472  11.017 -0.1433 -0.6488 -0.2658
   60SAPC   O12 4587   6.242   2.310  11.004  0.0090  0.0300 -0.1761
   60SAPC   O11 4588   6.141   2.403  10.805 -0.3514  0.1095  0.0570
   60SAPC    C1 4589   6.048   2.394  10.697 -0.4946 -0.0164  0.7173
   60SAPC    HA 4590   5.946   2.355  10.721 -0.2893 -2.5378 -1.9114
   60SAPC    HB 4591   6.032   2.499  10.664  0.3165 -0.4316 -1.1247
   60SAPC    C2 4592   6.098   2.297  10.585 -0.3557  0.2350  0.3935
   60SAPC    HS 4593   6.206   2.314  10.567 -0.5926  1.3493 -0.0200
   60SAPC   O21 4594   6.019   2.324  10.469 -0.0045 -0.2794  0.0007
   60SAPC   C21 4595   6.089   2.388  10.376  0.1179 -0.1494 -0.3185
   60SAPC   O22 4596   6.210   2.420  10.374  0.4678 -0.0331  0.0443
   60SAPC   C22 4597   5.982   2.431  10.269 -0.5651 -0.0045  0.2105
   60SAPC   H2R 4598   5.916   2.346  10.244 -0.6398  0.4336 -1.1260
   60SAPC   H2S 4599   5.930   2.521  10.309  1.7172  1.5109 -0.0480
   60SAPC    C3 4600   6.072   2.151  10.620 -0.1345 -0.2992  0.4941
   60SAPC    HX 4601   5.972   2.126  10.660 -0.7705  0.1714 -0.7518
   60SAPC    HY 4602   6.143   2.121  10.700  1.2871 -2.3217 -1.4239
   60SAPC   O31 4603   6.098   2.068  10.495  0.8079 -0.1031 -0.4193
   60SAPC   C31 4604   5.987   2.019  10.441 -0.4473 -0.1458  0.5683
   60SAPC   O32 4605   5.876   2.025  10.478 -0.3465 -0.0952 -0.0686
   60SAPC   C32 4606   6.018   1.923  10.330 -0.9073  0.0391  0.4735
   60SAPC   H2X 4607   5.961   1.828  10.336 -0.6774 -0.5972 -4.0770
   60SAPC   H2Y 4608   6.124   1.891  10.341  0.1586  2.5342 -1.3968
   60SAPC   C23 4609   6.064   2.470  10.150 -0.3619  0.1805  0.3963
   60SAPC   H3R 4610   6.136   2.549  10.182  0.0860 -0.2191  0.3895
   60SAPC   H3S 4611   5.989   2.512  10.080  0.9186 -0.0219 -1.1727
   60SAPC   C24 4612   6.125   2.349  10.070 -0.9766  0.8755  0.0034
   60SAPC   H4R 4613   6.059   2.262  10.053  1.0861 -0.6852 -0.4369
   60SAPC   H4S 4614   6.209   2.316  10.135 -0.3511  2.9958  0.3759
   60SAPC   C25 4615   6.186   2.419   9.949  0.3988  0.3492 -0.2562
   60SAPC   H5R 4616   6.260   2.497   9.974  1.8342 -0.9978 -0.1643
   60SAPC   C26 4617   6.165   2.404   9.820 -0.6699  0.0692  0.1663
   60SAPC   H6R 4618   6.205   2.487   9.760  1.3854  0.8611  2.4406
   60SAPC   C27 4619   6.064   2.305   9.764 -0.3371 -0.5733 -0.5772
   60SAPC   H7R 4620   6.053   2.220   9.835  0.8491  0.3337  0.7579
   60SAPC   H7S 4621   6.106   2.249   9.677  1.9672 -1.7631  1.2056
   60SAPC   C28 4622   5.926   2.343   9.739 -0.5199 -0.3562 -0.0141
   60SAPC   H8R 4623   5.865   2.365   9.828  2.0411  1.9490  1.3013
   60SAPC   C29 4624   5.882   2.367   9.612  0.0793  0.7715 -0.1741
   60SAPC   H9R 4625   5.774   2.389   9.603  0.3060  1.9302 -0.2367
   60SAPC  C210 4626   5.949   2.339   9.479  0.7527 -0.4830  0.9708
   60SAPC  H10R 4627   5.963   2.232   9.454  1.2265 -0.3574  0.6733
   60SAPC  H10S 4628   6.054   2.373   9.486  0.8281 -0.7295  1.0179
   60SAPC  C211 4629   5.877   2.418   9.364 -0.3781  0.2421  0.3487
   60SAPC  H11R 4630   5.783   2.468   9.390 -0.7406 -1.3200  2.2991
   60SAPC  C212 4631   5.934   2.439   9.243  0.4273 -0.4306  0.4658
   60SAPC  H12R 4632   5.861   2.489   9.177  0.8812  2.0783  1.7468
   60SAPC  C213 4633   6.055   2.381   9.185 -0.7288 -0.0057  0.4194
   60SAPC  H13R 4634   6.101   2.302   9.249  1.9726  0.7716 -0.4426
   60SAPC  H13S 4635   6.131   2.462   9.184  1.4602 -1.9682  0.1652
   60SAPC  C214 4636   6.040   2.332   9.039 -0.3256  0.3120  0.2611
   60SAPC  H14R 4637   5.954   2.269   9.013 -0.0720  0.7293 -1.7142
   60SAPC  C215 4638   6.129   2.365   8.941  0.4486 -0.1447 -0.3250
   60SAPC  H15R 4639   6.125   2.309   8.847  1.8751 -0.7239 -0.0622
   60SAPC  C216 4640   6.257   2.442   8.940  0.2073 -0.4458 -0.0832
   60SAPC  H16R 4641   6.343   2.376   8.915 -0.1818 -0.7180 -0.7268
   60SAPC  H16S 4642   6.280   2.493   9.036 -2.4443  0.6172  0.0564
   60SAPC  C217 4643   6.250   2.546   8.822  0.4725  0.8866 -0.2625
   60SAPC  H17R 4644   6.209   2.496   8.732  2.0634  0.4925 -0.7948
   60SAPC  H17S 4645   6.356   2.570   8.799 -0.6546  3.1718 -4.0431
   60SAPC  C218 4646   6.172   2.678   8.856 -0.0698  0.0412  0.3904
   60SAPC  H18R 4647   6.228   2.729   8.937 -0.8339  0.9276  0.3749
   60SAPC  H18S 4648   6.072   2.645   8.889  0.5825 -2.0863  0.4078
   60SAPC  C219 4649   6.142   2.766   8.733  0.3915  0.2599  0.3006
   60SAPC  H19R 4650   6.062   2.837   8.765 -0.3529 -0.7794  0.7788
   60SAPC  H19S 4651   6.107   2.699   8.652 -0.9523  1.7980 -0.4677
   60SAPC  C220 4652   6.262   2.851   8.691 -0.2395  0.3699  0.2477
   60SAPC  H20R 4653   6.342   2.775   8.699 -1.3568 -0.8386  0.4103
   60SAPC  H20S 4654   6.287   2.927   8.768  0.5295  0.5693 -0.1921
   60SAPC  H20T 4655   6.249   2.893   8.589 -0.0868  1.3413  0.6215
   60SAPC   C33 4656   5.995   1.985  10.192 -0.7223  0.1860 -0.5752
   60SAPC   H3X 4657   6.079   2.051  10.161  2.0299 -2.5312  0.5712
   60SAPC   H3Y 4658   5.908   2.054  10.194  0.9462  2.4333  1.6593
   60SAPC   C34 4659   5.985   1.876  10.080  0.0076  0.2297 -0.9494
   60SAPC   H4X 4660   5.894   1.812  10.084  0.7612 -0.8186 -0.0834
   60SAPC   H4Y 4661   6.068   1.808  10.108  1.1895  1.9856 -0.0443
   60SAPC   C35 4662   6.014   1.936   9.946  0.4451 -0.0863  0.3009
   60SAPC   H5X 4663   6.108   1.995   9.947  0.3827  0.0343 -0.2551
   60SAPC   H5Y 4664   5.933   2.004   9.912  1.9388  1.7447  0.2668
   60SAPC   C36 4665   6.029   1.840   9.830  0.6945  0.4313  0.3098
   60SAPC   H6X 4666   5.932   1.789   9.811  1.3627 -0.0717 -2.0497
   60SAPC   H6Y 4667   6.104   1.760   9.850  0.8164  0.1664 -1.1120
   60SAPC   C37 4668   6.045   1.929   9.693 -0.4823  0.2582 -0.4642
   60SAPC   H7X 4669   6.092   2.029   9.709 -3.1764  1.2826  1.9418
   60SAPC   H7Y 4670   5.942   1.958   9.664  0.1896  0.6904 -2.6189
   60SAPC   C38 4671   6.110   1.853   9.582  0.3764 -0.4601  0.0105
   60SAPC   H8X 4672   6.065   1.752   9.570 -2.8364  0.8495  0.1638
   60SAPC   H8Y 4673   6.220   1.856   9.599  0.7786 -1.9597 -1.9871
   60SAPC   C39 4674   6.097   1.929   9.451  0.6492  0.1219 -0.2304
   60SAPC   H9X 4675   6.130   2.034   9.464  1.4399 -0.1522  0.0144
   60SAPC   H9Y 4676   5.991   1.931   9.419  0.0461 -2.1027  1.3585
   60SAPC  C310 4677   6.178   1.862   9.340 -0.7152 -0.0327  0.5503
   60SAPC  H10X 4678   6.146   1.756   9.338  1.2493 -0.6439 -0.8377
   60SAPC  H10Y 4679   6.281   1.864   9.380 -0.3574 -3.3173  0.0568
   60SAPC  C311 4680   6.156   1.935   9.210 -0.8235  0.0501  0.0888
   60SAPC  H11X 4681   6.220   2.025   9.222 -1.1327  0.4627 -1.0961
   60SAPC  H11Y 4682   6.052   1.957   9.177 -0.2110 -0.0594 -2.0789
   60SAPC  C312 4683   6.221   1.861   9.090 -0.0169  0.0503  0.3702
   60SAPC  H12X 4684   6.230   1.755   9.120 -0.3116 -0.3096 -0.7417
   60SAPC  H12Y 4685   6.328   1.890   9.095 -0.0521  0.0448  1.2051
   60SAPC  C313 4686   6.157   1.895   8.952  0.4286 -0.6208 -1.0020
   60SAPC  H13X 4687   6.217   1.980   8.913  2.0990 -0.9987  0.5951
   60SAPC  H13Y 4688   6.051   1.929   8.952  0.5634 -0.1018 -2.5858
   60SAPC  C314 4689   6.179   1.788   8.843  0.1836 -0.3510 -0.5157
   60SAPC  H14X 4690   6.089   1.790   8.778 -0.5845 -2.4057  0.3890
   60SAPC  H14Y 4691   6.178   1.690   8.895  0.5142  0.0870  0.3361
   60SAPC  C315 4692   6.312   1.773   8.771 -0.8299  0.5632  0.1233
   60SAPC  H15X 4693   6.385   1.767   8.855 -0.6008 -1.5747 -0.1791
   60SAPC  H15Y 4694   6.331   1.861   8.706  0.0438 -1.8223 -3.1403
   60SAPC  C316 4695   6.315   1.643   8.686  0.2672  0.2011 -0.6571
   60SAPC  H16X 4696   6.250   1.657   8.597 -0.3744  1.4833 -0.0250
   60SAPC  H16Y 4697   6.274   1.556   8.743  1.3922  0.0449 -0.0604
   60SAPC  C317 4698   6.451   1.595   8.643 -0.0169 -0.1712  0.3925
   60SAPC  H17X 4699   6.505   1.555   8.732 -1.7228 -0.2160  1.4402
   60SAPC  H17Y 4700   6.508   1.685   8.611 -1.3375  0.2152 -0.9852
   60SAPC  C318 4701   6.461   1.494   8.531 -0.3418 -0.5725  0.1979
   60SAPC  H18X 4702   6.440   1.545   8.435  0.2572  1.5067  1.1052
   60SAPC  H18Y 4703   6.379   1.420   8.538 -0.7113 -0.7323 -3.6530
   60SAPC  H18Z 4704   6.550   1.428   8.527  1.2620  1.4643  0.0129
   61SAPC     N 4705   0.434   0.193  11.202 -0.8228  0.0665 -0.6402
   61SAPC   C12 4706   0.488   0.276  11.086 -0.3648 -0.4581 -0.2660
   61SAPC  H12A 4707   0.568   0.214  11.047  0.7609  0.2442  0.8216
   61SAPC  H12B 4708   0.535   0.365  11.127  1.1658 -0.4087 -2.0014
   61SAPC   C13 4709   0.543   0.142  11.296  0.0000  0.2857  0.1857
   61SAPC  H13A 4710   0.599   0.223  11.340  0.4453  0.1982 -0.2177
   61SAPC  H13B 4711   0.507   0.078  11.375  2.9644 -0.7600  0.8060
   61SAPC  H13C 4712   0.609   0.083  11.234 -0.5411  0.3534 -0.4775
   61SAPC   C14 4713   0.356   0.283  11.292  0.7553  0.8212 -0.1386
   61SAPC  H14A 4714   0.281   0.227  11.346 -0.7009  2.1030 -0.7242
   61SAPC  H14B 4715   0.415   0.338  11.364  0.0975  0.0680  1.0186
   61SAPC  H14C 4716   0.301   0.355  11.233  0.8190  1.9430  1.1099
   61SAPC   C15 4717   0.348   0.073  11.158 -0.1247  0.0777 -0.2738
   61SAPC  H15A 4718   0.265   0.114  11.102  1.1855  1.3354 -1.3442
   61SAPC  H15B 4719   0.400   0.016  11.083 -1.1317  0.2286 -1.1015
   61SAPC  H15C 4720   0.319   0.016  11.245 -1.4193 -0.7380 -1.2073
   61SAPC   C11 4721   0.396   0.319  10.970  0.2760  0.0593 -0.1519
   61SAPC  H11A 4722   0.382   0.231  10.903  0.3669 -2.9403  3.4277
   61SAPC  H11B 4723   0.464   0.385  10.912  1.5054 -1.5489 -0.6398
   61SAPC     P 4724   0.274   0.540  11.041 -0.4610 -0.2877  0.3830
   61SAPC   O13 4725   0.234   0.549  11.179 -0.8787  0.5438  0.7454
   61SAPC   O14 4726   0.398   0.612  11.000 -0.2955  0.2372 -0.1220
   61SAPC   O12 4727   0.272   0.389  11.008  0.0420 -0.2265  0.3935
   61SAPC   O11 4728   0.155   0.607  10.958 -0.1241 -0.4539  0.4280
   61SAPC    C1 4729   0.050   0.537  10.890 -0.4540  0.0334 -0.1004
   61SAPC    HA 4730   0.013   0.458  10.959 -3.2551  0.2949 -1.2119
   61SAPC    HB 4731  -0.035   0.608  10.891 -0.0912  0.5326  2.1208
   61SAPC    C2 4732   0.096   0.488  10.745  0.1414  0.2921  0.0082
   61SAPC    HS 4733   0.142   0.388  10.754 -1.6441 -0.5226  0.4984
   61SAPC   O21 4734   0.195   0.582  10.691  0.1864 -0.0265  0.1330
   61SAPC   C21 4735   0.269   0.543  10.589 -0.2597  0.7351 -0.2109
   61SAPC   O22 4736   0.284   0.429  10.560 -0.0857  0.1397  0.3109
   61SAPC   C22 4737   0.318   0.673  10.518 -0.6191  0.5626  0.7819
   61SAPC   H2R 4738   0.237   0.747  10.503 -0.5919  0.1006 -2.3361
   61SAPC   H2S 4739   0.396   0.712  10.587  1.5929 -0.5202 -0.9715
   61SAPC    C3 4740  -0.025   0.465  10.651 -0.1175  0.9396  0.7090
   61SAPC    HX 4741  -0.075   0.564  10.635 -0.6866  0.3713 -1.3632
   61SAPC    HY 4742  -0.091   0.400  10.712 -0.2211 -0.4435 -0.8246
   61SAPC   O31 4743   0.015   0.414  10.527 -0.1970  0.5569  0.1798
   61SAPC   C31 4744   0.031   0.284  10.512 -0.3247 -0.4184  0.3967
   61SAPC   O32 4745   0.032   0.203  10.608 -0.1422 -0.1477  0.8236
   61SAPC   C32 4746   0.041   0.248  10.368 -0.6785 -0.0921 -0.3559
   61SAPC   H2X 4747   0.007   0.143  10.359  1.6351 -1.3665  3.3522
   61SAPC   H2Y 4748   0.146   0.247  10.332 -1.4284  0.6551 -2.7987
   61SAPC   C23 4749   0.399   0.632  10.392  0.6976 -0.0825  0.2093
   61SAPC   H3R 4750   0.479   0.565  10.429  0.6259  0.0823  0.6654
   61SAPC   H3S 4751   0.443   0.722  10.344 -0.6964  0.9471  0.7737
   61SAPC   C24 4752   0.322   0.564  10.277 -0.0671  0.0985 -0.1264
   61SAPC   H4R 4753   0.256   0.481  10.310  0.3100 -1.0940 -2.1915
   61SAPC   H4S 4754   0.383   0.532  10.190  1.8594  1.3643  0.6728
   61SAPC   C25 4755   0.236   0.660  10.208 -0.2852 -0.7616 -0.2554
   61SAPC   H5R 4756   0.181   0.711  10.288 -1.5152 -0.3602 -1.3164
   61SAPC   C26 4757   0.217   0.692  10.077  0.0333 -0.3395 -0.4024
   61SAPC   H6R 4758   0.147   0.772  10.049 -0.7045 -0.5070  0.8606
   61SAPC   C27 4759   0.290   0.630   9.964  0.6380  0.0894 -0.2601
   61SAPC   H7R 4760   0.214   0.584   9.897  1.3946 -1.5241 -0.0498
   61SAPC   H7S 4761   0.354   0.543   9.989 -1.1237 -1.1805 -0.0024
   61SAPC   C28 4762   0.371   0.734   9.893 -0.6864  0.4001 -0.3558
   61SAPC   H8R 4763   0.470   0.750   9.937 -0.6107 -1.4787  0.2248
   61SAPC   C29 4764   0.342   0.797   9.776  0.1799  0.5719  0.0732
   61SAPC   H9R 4765   0.423   0.863   9.740  0.1824  0.2747 -0.4837
   61SAPC  C210 4766   0.218   0.766   9.693  0.3272  0.9631 -0.5959
   61SAPC  H10R 4767   0.132   0.830   9.722 -1.0111 -1.5055  1.2326
   61SAPC  H10S 4768   0.172   0.667   9.712  1.1323  0.5348 -0.8451
   61SAPC  C211 4769   0.225   0.778   9.544  0.4478  0.6667  0.0703
   61SAPC  H11R 4770   0.265   0.875   9.510  0.1348  0.2390 -1.5648
   61SAPC  C212 4771   0.171   0.700   9.450 -0.0120  0.3772  0.2297
   61SAPC  H12R 4772   0.183   0.721   9.343 -0.0677  1.6328  0.4555
   61SAPC  C213 4773   0.089   0.572   9.471  0.7420 -0.1274  0.4063
   61SAPC  H13R 4774  -0.004   0.571   9.411  1.0235  0.2792 -0.0456
   61SAPC  H13S 4775   0.042   0.573   9.572  0.0026 -0.3426  0.0634
   61SAPC  C214 4776   0.153   0.440   9.456  0.6329  0.0668  0.0695
   61SAPC  H14R 4777   0.194   0.403   9.551  0.6558  0.2027  0.1128
   61SAPC  C215 4778   0.142   0.352   9.346  0.6781 -0.6980  0.5535
   61SAPC  H15R 4779   0.198   0.259   9.365  1.3254 -0.7218 -1.3259
   61SAPC  C216 4780   0.086   0.364   9.202  0.6223 -0.4117 -0.3527
   61SAPC  H16R 4781   0.049   0.468   9.185  1.2209  0.0945  1.1899
   61SAPC  H16S 4782  -0.001   0.296   9.194 -0.0143 -0.0737  2.5343
   61SAPC  C217 4783   0.203   0.316   9.100  0.4481 -0.5795 -0.1293
   61SAPC  H17R 4784   0.147   0.326   9.005  1.4250 -1.8621 -0.8510
   61SAPC  H17S 4785   0.236   0.211   9.116 -0.7035 -1.0349 -0.6745
   61SAPC  C218 4786   0.325   0.404   9.092  0.7977  0.0819  0.1286
   61SAPC  H18R 4787   0.385   0.383   9.184 -1.5402  1.3323  2.0393
   61SAPC  H18S 4788   0.282   0.506   9.103 -1.6436 -0.9764  1.1583
   61SAPC  C219 4789   0.410   0.384   8.966  0.4848 -0.2564  0.3930
   61SAPC  H19R 4790   0.379   0.285   8.925  0.5671  0.1922 -0.7996
   61SAPC  H19S 4791   0.514   0.396   9.005 -0.6016  2.3819  2.8287
   61SAPC  C220 4792   0.402   0.483   8.852  0.2731 -0.3768  0.5434
   61SAPC  H20R 4793   0.391   0.583   8.899  0.1742  0.2257 -0.7282
   61SAPC  H20S 4794   0.310   0.460   8.795 -0.5416  2.1903  0.7155
   61SAPC  H20T 4795   0.492   0.480   8.786  1.1145  0.1788  1.6233
   61SAPC   C33 4796  -0.054   0.335  10.284  0.0932 -0.6329 -0.4341
   61SAPC   H3X 4797  -0.022   0.441  10.281 -1.4432 -0.1053  0.5536
   61SAPC   H3Y 4798  -0.157   0.342  10.326 -0.1862 -0.6935 -1.1005
   61SAPC   C34 4799  -0.060   0.285  10.139 -0.7878 -0.4403  0.5955
   61SAPC   H4X 4800  -0.167   0.269  10.114 -0.6458 -1.4757  0.6172
   61SAPC   H4Y 4801  -0.015   0.184  10.141  1.3032  0.3860 -0.6918
   61SAPC   C35 4802   0.010   0.378  10.036 -0.0594  0.2460 -0.1576
   61SAPC   H5X 4803   0.107   0.412  10.078 -0.4365 -1.6793  2.5556
   61SAPC   H5Y 4804  -0.048   0.473  10.033  1.9900  1.5776  0.7018
   61SAPC   C36 4805  -0.007   0.318   9.902 -0.4007  0.3460  0.1548
   61SAPC   H6X 4806   0.012   0.397   9.826 -1.0315  0.9479  0.6156
   61SAPC   H6Y 4807  -0.112   0.282   9.901  0.4418 -2.6033  2.4641
   61SAPC   C37 4808   0.091   0.198   9.865  0.4211  0.2346 -0.6657
   61SAPC   H7X 4809   0.056   0.106   9.916  0.4878  1.2324  1.2819
   61SAPC   H7Y 4810   0.190   0.229   9.905 -0.6000  2.2293  0.4619
   61SAPC   C38 4811   0.093   0.176   9.715  0.1506 -0.3052  1.0378
   61SAPC   H8X 4812   0.192   0.143   9.679  1.1442  2.2851  1.1915
   61SAPC   H8Y 4813   0.090   0.275   9.664  2.2523  0.2615  1.9134
   61SAPC   C39 4814  -0.025   0.087   9.674 -0.0822  0.4832 -0.8765
   61SAPC   H9X 4815  -0.114   0.124   9.729  1.4037 -0.2913  2.2859
   61SAPC   H9Y 4816  -0.012  -0.019   9.703 -0.7941  1.0951  1.9481
   61SAPC  C310 4817  -0.064   0.079   9.527  0.6032 -0.4375  0.1877
   61SAPC  H10X 4818   0.009   0.010   9.480 -1.3501 -1.3724 -1.6335
   61SAPC  H10Y 4819  -0.051   0.179   9.480  3.3431 -1.8432 -2.3973
   61SAPC  C311 4820  -0.209   0.020   9.502 -0.4668 -0.3478 -0.4928
   61SAPC  H11X 4821  -0.288   0.073   9.560 -0.5772 -0.6615 -0.3590
   61SAPC  H11Y 4822  -0.206  -0.083   9.541  0.9527 -0.4344 -0.7651
   61SAPC  C312 4823  -0.233   0.025   9.354 -0.3534 -0.4141  0.5996
   61SAPC  H12X 4824  -0.267   0.128   9.333  0.7310  0.0436  1.0012
   61SAPC  H12Y 4825  -0.322  -0.039   9.338 -0.4990  0.1390 -0.9646
   61SAPC  C313 4826  -0.121  -0.028   9.263  0.2839 -0.1233  0.5797
   61SAPC  H13X 4827  -0.066  -0.109   9.314 -1.2033 -0.4309  1.7678
   61SAPC  H13Y 4828  -0.051   0.050   9.226  0.2103 -0.6750 -0.7550
   61SAPC  C314 4829  -0.167  -0.117   9.141 -0.4449  0.0757  0.5828
   61SAPC  H14X 4830  -0.084  -0.140   9.071  0.1399 -1.4333  1.7192
   61SAPC  H14Y 4831  -0.236  -0.055   9.080  1.1570 -1.4851 -3.1260
   61SAPC  C315 4832  -0.232  -0.243   9.193  0.2409 -0.8583  0.2051
   61SAPC  H15X 4833  -0.300  -0.231   9.281 -0.2602 -0.9762 -0.1584
   61SAPC  H15Y 4834  -0.157  -0.315   9.234  2.2342  1.1442  0.2441
   61SAPC  C316 4835  -0.317  -0.309   9.086 -0.1330 -0.2015  0.4531
   61SAPC  H16X 4836  -0.246  -0.328   9.004 -2.7810  1.5381 -2.4623
   61SAPC  H16Y 4837  -0.391  -0.233   9.053  0.2708  1.0277  2.1971
   61SAPC  C317 4838  -0.390  -0.438   9.127  0.3573 -0.2024  0.4915
   61SAPC  H17X 4839  -0.472  -0.415   9.198 -0.0764 -0.8198  0.1989
   61SAPC  H17Y 4840  -0.310  -0.508   9.160  0.9884 -0.4756 -1.4905
   61SAPC  C318 4841  -0.461  -0.502   9.008 -0.3114 -0.1868  0.8213
   61SAPC  H18X 4842  -0.546  -0.440   8.971  0.2092 -1.3988 -2.8536
   61SAPC  H18Y 4843  -0.499  -0.603   9.034 -3.3471 -0.1269 -2.5887
   61SAPC  H18Z 4844  -0.389  -0.511   8.924 -0.0655  4.6435  0.2248
   62SAPC     N 4845   6.652   5.956  11.055  0.5550 -0.7026  0.5092
   62SAPC   C12 4846   6.668   6.023  10.912  0.1437  0.2585  0.1683
   62SAPC  H12A 4847   6.748   5.967  10.867  1.5667  0.1302  2.6512
   62SAPC  H12B 4848   6.712   6.119  10.932  0.1772  0.1531  0.6374
   62SAPC   C13 4849   6.559   6.036  11.139 -0.5785 -0.0800  0.4826
   62SAPC  H13A 4850   6.552   5.987  11.235  0.1097  0.8846  1.0403
   62SAPC  H13B 4851   6.601   6.134  11.153  0.4470 -0.6497  1.5032
   62SAPC  H13C 4852   6.457   6.041  11.103 -0.2261  0.2974 -0.5028
   62SAPC   C14 4853   6.589   5.820  11.051  0.3021  0.3204 -0.3986
   62SAPC  H14A 4854   6.658   5.748  11.010 -0.6559 -0.2644 -1.0434
   62SAPC  H14B 4855   6.579   5.775  11.148  5.2448  0.6657  0.5264
   62SAPC  H14C 4856   6.496   5.821  10.996  1.6010  0.9227 -2.7220
   62SAPC   C15 4857   6.786   5.944  11.129  0.1223  0.4482  0.0446
   62SAPC  H15A 4858   6.819   6.041  11.165  0.4052 -0.1813  1.5550
   62SAPC  H15B 4859   6.767   5.908  11.229  2.2425  1.4416  0.8713
   62SAPC  H15C 4860   6.863   5.900  11.068  1.1819  0.6833  1.1811
   62SAPC   C11 4861   6.542   6.029  10.823  0.0986 -0.2578  0.0985
   62SAPC  H11A 4862   6.500   5.926  10.822  2.4217 -1.3260  1.5137
   62SAPC  H11B 4863   6.555   6.044  10.714  1.8842 -1.4634  0.1011
   62SAPC     P 4864   6.468   6.276  10.872 -0.6797 -0.2792  0.0017
   62SAPC   O13 4865   6.340   6.339  10.921  0.0349 -0.3149  0.1418
   62SAPC   O14 4866   6.588   6.304  10.954 -0.2329 -0.4916  0.2219
   62SAPC   O12 4867   6.444   6.119  10.875 -0.9854  0.3684 -0.7225
   62SAPC   O11 4868   6.495   6.311  10.720  0.3404  0.1014  0.1429
   62SAPC    C1 4869   6.388   6.285  10.620  0.2093  0.2188 -0.3958
   62SAPC    HA 4870   6.382   6.175  10.603 -0.7484  0.2570 -0.3401
   62SAPC    HB 4871   6.288   6.314  10.659  0.4171  2.7592 -1.5359
   62SAPC    C2 4872   6.403   6.355  10.482  0.0295 -0.4798  0.3020
   62SAPC    HS 4873   6.330   6.321  10.405 -1.3408 -1.7910  2.0903
   62SAPC   O21 4874   6.537   6.336  10.432  0.1176 -0.4604  0.1450
   62SAPC   C21 4875   6.554   6.220  10.372  0.1284 -0.1266  0.2876
   62SAPC   O22 4876   6.463   6.138  10.351  0.2101 -0.0532 -0.0805
   62SAPC   C22 4877   6.692   6.222  10.318 -0.0892  0.4238 -0.3799
   62SAPC   H2R 4878   6.765   6.236  10.401  0.0935 -1.3675 -0.1981
   62SAPC   H2S 4879   6.726   6.125  10.276 -2.9327 -0.9367  0.2061
   62SAPC    C3 4880   6.390   6.502  10.491  0.3376  0.0625 -0.0424
   62SAPC    HX 4881   6.466   6.540  10.562 -0.4588  1.3142  0.1655
   62SAPC    HY 4882   6.296   6.528  10.545  0.6486 -0.9705  1.0315
   62SAPC   O31 4883   6.388   6.568  10.362 -0.1094 -0.4128 -0.0905
   62SAPC   C31 4884   6.491   6.644  10.329 -0.2728 -0.3519 -0.3850
   62SAPC   O32 4885   6.588   6.678  10.397 -0.5709  0.0366  0.2050
   62SAPC   C32 4886   6.468   6.683  10.176 -0.0346 -0.6053 -0.2408
   62SAPC   H2X 4887   6.559   6.650  10.121  1.3797  0.3781  1.4196
   62SAPC   H2Y 4888   6.471   6.794  10.172  0.9211 -0.6231 -0.1669
   62SAPC   C23 4889   6.710   6.341  10.216  0.0434  0.4683  0.3290
   62SAPC   H3R 4890   6.805   6.319  10.162 -0.2083  0.4052 -0.0959
   62SAPC   H3S 4891   6.712   6.436  10.273  1.8657  1.1506 -0.7830
   62SAPC   C24 4892   6.602   6.356  10.104 -0.2766  0.7341  0.0208
   62SAPC   H4R 4893   6.524   6.424  10.142  1.2579  1.3439  2.2584
   62SAPC   H4S 4894   6.551   6.262  10.072 -2.4543  0.6494  3.3063
   62SAPC   C25 4895   6.659   6.434   9.987  0.3724  0.0221 -0.0310
   62SAPC   H5R 4896   6.698   6.534  10.011 -1.1414  0.1754  2.0764
   62SAPC   C26 4897   6.669   6.387   9.865 -0.0262  0.3287  0.3244
   62SAPC   H6R 4898   6.715   6.455   9.791 -2.8250  2.2378  0.2023
   62SAPC   C27 4899   6.635   6.249   9.814  0.2648 -0.3339 -0.0628
   62SAPC   H7R 4900   6.634   6.173   9.895  1.6195  1.1570  1.4339
   62SAPC   H7S 4901   6.714   6.203   9.751  0.2497 -0.3625 -0.0621
   62SAPC   C28 4902   6.498   6.240   9.745 -1.0149  0.0452  0.0550
   62SAPC   H8R 4903   6.413   6.224   9.813 -0.5906  1.3632  0.9251
   62SAPC   C29 4904   6.472   6.269   9.616 -0.3203 -0.2132  0.0236
   62SAPC   H9R 4905   6.370   6.279   9.577 -0.2167  0.6643 -0.0511
   62SAPC  C210 4906   6.584   6.314   9.521  0.2551 -0.4682 -0.0950
   62SAPC  H10R 4907   6.681   6.325   9.572  1.5878  0.5161 -2.6580
   62SAPC  H10S 4908   6.559   6.417   9.486 -1.1114 -0.8523 -0.3127
   62SAPC  C211 4909   6.588   6.214   9.413  0.7508  0.3240 -0.1236
   62SAPC  H11R 4910   6.486   6.185   9.383  0.0885  1.9705  0.4594
   62SAPC  C212 4911   6.693   6.176   9.343 -0.2850 -0.1188  0.3799
   62SAPC  H12R 4912   6.667   6.113   9.257  0.4590 -0.6092  0.5017
   62SAPC  C213 4913   6.840   6.218   9.361  0.2222  0.3553  0.8797
   62SAPC  H13R 4914   6.865   6.204   9.469  0.8022  2.7962  1.1147
   62SAPC  H13S 4915   6.838   6.328   9.349 -2.3012  0.1153 -2.3887
   62SAPC  C214 4916   6.945   6.143   9.278  0.3593  0.0761 -0.0109
   62SAPC  H14R 4917   6.925   6.035   9.265 -0.2631 -0.1127  2.0476
   62SAPC  C215 4918   7.038   6.205   9.203  0.3139  0.2126  0.1321
   62SAPC  H15R 4919   7.097   6.131   9.146 -0.1742  0.2463 -0.4268
   62SAPC  C216 4920   7.066   6.349   9.181  0.0806 -0.0696 -0.3116
   62SAPC  H16R 4921   7.176   6.363   9.186  0.2813 -1.7374  1.4103
   62SAPC  H16S 4922   7.017   6.413   9.257 -0.2066  0.5834 -1.0429
   62SAPC  C217 4923   7.023   6.394   9.037 -0.3660 -0.3748 -1.1000
   62SAPC  H17R 4924   6.912   6.401   9.047 -0.4744 -0.5348 -2.0955
   62SAPC  H17S 4925   7.066   6.327   8.960  1.0115 -2.6508  1.4756
   62SAPC  C218 4926   7.074   6.534   9.017  1.4206  0.3999  0.4611
   62SAPC  H18R 4927   7.180   6.518   9.049  1.8668  0.6423 -0.8434
   62SAPC  H18S 4928   7.031   6.599   9.096  2.8891  1.2532  0.5881
   62SAPC  C219 4929   7.067   6.582   8.879  0.3910  0.0167 -0.0983
   62SAPC  H19R 4930   6.963   6.570   8.843  0.9321 -1.3819 -1.2892
   62SAPC  H19S 4931   7.135   6.531   8.807  1.8851  2.1269 -0.2667
   62SAPC  C220 4932   7.095   6.724   8.865  1.3244  0.4942  0.2277
   62SAPC  H20R 4933   7.055   6.761   8.768  0.3499  0.9662  0.7882
   62SAPC  H20S 4934   7.199   6.759   8.875  0.9298  2.0307 -0.7865
   62SAPC  H20T 4935   7.032   6.779   8.939  0.2200 -1.2746  0.6917
   62SAPC   C33 4936   6.346   6.618  10.102 -0.4124  0.1825 -0.1027
   62SAPC   H3X 4937   6.254   6.651  10.154 -0.4753  0.0190 -0.1092
   62SAPC   H3Y 4938   6.334   6.508  10.111 -0.1842  0.1774  0.1734
   62SAPC   C34 4939   6.331   6.648   9.953 -0.5004  0.1275 -0.2082
   62SAPC   H4X 4940   6.432   6.635   9.909 -0.9719  2.5105 -2.2562
   62SAPC   H4Y 4941   6.305   6.755   9.937  0.2228  0.2638 -0.5445
   62SAPC   C35 4942   6.222   6.573   9.878 -0.0572  0.7045 -0.0490
   62SAPC   H5X 4943   6.127   6.589   9.932  0.4349  0.4127  0.9320
   62SAPC   H5Y 4944   6.259   6.468   9.884 -0.9058  0.1211 -3.1470
   62SAPC   C36 4945   6.216   6.621   9.732  0.0066 -0.1270 -0.4565
   62SAPC   H6X 4946   6.318   6.635   9.691 -0.2193 -1.1219 -1.3851
   62SAPC   H6Y 4947   6.167   6.721   9.740 -3.1683 -1.4983 -1.0986
   62SAPC   C37 4948   6.118   6.540   9.650 -0.6810  0.7983 -0.0277
   62SAPC   H7X 4949   6.016   6.561   9.691 -1.6995 -1.6187 -1.1231
   62SAPC   H7Y 4950   6.145   6.434   9.664 -0.2994  1.2381  3.5509
   62SAPC   C38 4951   6.108   6.564   9.503  0.4561 -0.1434  0.0783
   62SAPC   H8X 4952   6.197   6.533   9.445 -1.8426 -1.9831 -2.7802
   62SAPC   H8Y 4953   6.079   6.667   9.471  1.3155 -0.3472 -1.4448
   62SAPC   C39 4954   6.014   6.468   9.429  0.5132 -0.3961  0.1414
   62SAPC   H9X 4955   5.914   6.475   9.477  0.2946 -0.3855 -0.3177
   62SAPC   H9Y 4956   6.047   6.363   9.445 -0.2993 -0.8804 -1.1826
   62SAPC  C310 4957   6.000   6.517   9.286  0.3020 -0.0819 -0.2067
   62SAPC  H10X 4958   6.103   6.504   9.246  0.9218 -0.0278  1.3101
   62SAPC  H10Y 4959   5.969   6.623   9.280  2.6251  0.5952 -1.3930
   62SAPC  C311 4960   5.916   6.424   9.205  0.3294  0.6657  0.0780
   62SAPC  H11X 4961   5.817   6.407   9.251  0.7873 -1.6790  0.3411
   62SAPC  H11Y 4962   5.957   6.320   9.208 -1.0778 -0.0480 -2.4083
   62SAPC  C312 4963   5.904   6.471   9.059 -0.0774  0.0320  0.1926
   62SAPC  H12X 4964   6.004   6.455   9.014  0.6218  0.9215  1.3595
   62SAPC  H12Y 4965   5.892   6.581   9.072 -0.9616  0.0962 -0.9582
   62SAPC  C313 4966   5.790   6.406   8.987  0.3077 -0.0034  0.3938
   62SAPC  H13X 4967   5.698   6.404   9.049  0.8928 -0.6902  1.2633
   62SAPC  H13Y 4968   5.827   6.305   8.963  0.6378  0.4830 -1.3015
   62SAPC  C314 4969   5.760   6.492   8.857 -1.1015 -0.4784 -0.6633
   62SAPC  H14X 4970   5.846   6.497   8.786 -0.3082  0.1588  0.3100
   62SAPC  H14Y 4971   5.733   6.597   8.881 -1.9649 -0.5633 -1.2078
   62SAPC  C315 4972   5.640   6.435   8.779  0.6990 -0.1098  0.5202
   62SAPC  H15X 4973   5.561   6.420   8.856  0.1749  1.5155  0.3345
   62SAPC  H15Y 4974   5.679   6.338   8.740 -1.3191 -1.3017  1.2810
   62SAPC  C316 4975   5.591   6.513   8.655 -0.0090 -0.4547 -0.4235
   62SAPC  H16X 4976   5.503   6.467   8.605 -2.1393  1.9656  0.8319
   62SAPC  H16Y 4977   5.678   6.531   8.588 -0.0691 -2.4331 -1.0897
   62SAPC  C317 4978   5.561   6.662   8.682 -0.0618 -0.4415 -0.3519
   62SAPC  H17X 4979   5.655   6.714   8.709 -0.8495  0.8101  0.0492
   62SAPC  H17Y 4980   5.505   6.666   8.778  3.3887 -1.5075  1.8609
   62SAPC  C318 4981   5.493   6.746   8.568 -0.1861  0.3089  0.3988
   62SAPC  H18X 4982   5.495   6.854   8.594 -0.5371  0.4022  0.0488
   62SAPC  H18Y 4983   5.389   6.714   8.549 -0.8676  2.5549  0.0523
   62SAPC  H18Z 4984   5.551   6.750   8.473  0.3593  2.7172  0.7572
   63SAPC     N 4985   2.931   6.251   5.975  0.0820  0.1267 -0.7078
   63SAPC   C12 4986   2.846   6.187   6.081 -0.1981  0.3970  0.2029
   63SAPC  H12A 4987   2.820   6.088   6.044  0.5613  0.4244 -0.4307
   63SAPC  H12B 4988   2.751   6.238   6.082 -0.6994 -0.4674  2.3802
   63SAPC   C13 4989   2.879   6.214   5.839  0.5102 -0.3270 -0.1089
   63SAPC  H13A 4990   2.861   6.107   5.832 -0.5696 -0.3821  2.4624
   63SAPC  H13B 4991   2.787   6.268   5.822  0.5964 -0.3637 -0.7001
   63SAPC  H13C 4992   2.947   6.245   5.762 -0.9844 -0.0999 -1.3807
   63SAPC   C14 4993   2.935   6.403   5.983 -0.5580  0.3801 -0.3167
   63SAPC  H14A 4994   2.963   6.444   5.886  1.3655 -1.5166 -0.6392
   63SAPC  H14B 4995   2.842   6.447   6.015  0.1126  1.4579  0.2042
   63SAPC  H14C 4996   3.018   6.430   6.047 -1.4468  0.7790  0.6832
   63SAPC   C15 4997   3.068   6.195   5.979  0.2321  0.1011 -0.0419
   63SAPC  H15A 4998   3.114   6.230   6.071 -0.6823 -0.8403  0.7917
   63SAPC  H15B 4999   3.064   6.087   5.972 -1.3471  0.2693 -4.2694
   63SAPC  H15C 5000   3.125   6.220   5.891  1.0357 -1.3522  0.0242
   63SAPC   C11 5001   2.887   6.187   6.222 -0.3854 -0.7337  0.2951
   63SAPC  H11A 5002   2.932   6.286   6.245 -0.2010 -0.6190 -0.5504
   63SAPC  H11B 5003   2.965   6.110   6.235  0.9205 -0.0465 -2.6498
   63SAPC     P 5004   2.746   6.040   6.399  0.1193  0.0067  0.3081
   63SAPC   O13 5005   2.621   6.068   6.481 -0.2361  0.1315 -0.2370
   63SAPC   O14 5006   2.730   5.931   6.304 -0.5614 -0.5066 -0.5138
   63SAPC   O12 5007   2.773   6.172   6.310 -0.0358  0.9199 -0.0059
   63SAPC   O11 5008   2.866   6.020   6.493 -0.7012 -0.0125  0.0230
   63SAPC    C1 5009   2.945   6.127   6.542  0.4966 -0.4031  0.3237
   63SAPC    HA 5010   3.044   6.117   6.491  0.9045  5.2302 -0.6735
   63SAPC    HB 5011   2.908   6.228   6.515  3.0233  0.0797 -1.7542
   63SAPC    C2 5012   2.971   6.120   6.695  0.7078 -0.0782 -0.0530
   63SAPC    HS 5013   3.034   6.031   6.715 -1.7468 -1.6249  1.3576
   63SAPC   O21 5014   2.851   6.107   6.776 -0.3330 -0.5118 -0.1469
   63SAPC   C21 5015   2.810   5.975   6.782 -0.3500 -0.9213 -0.2403
   63SAPC   O22 5016   2.882   5.885   6.751 -0.7365  0.2228 -0.2167
   63SAPC   C22 5017   2.667   5.962   6.834  0.0436 -0.5260  0.9290
   63SAPC   H2R 5018   2.592   5.978   6.754 -1.8455 -0.3893  2.6355
   63SAPC   H2S 5019   2.656   5.857   6.870  1.9616 -0.9169  0.4849
   63SAPC    C3 5020   3.048   6.256   6.734  0.7647 -0.1341  1.0204
   63SAPC    HX 5021   2.969   6.331   6.710 -0.2310 -1.3349  0.4348
   63SAPC    HY 5022   3.134   6.269   6.666  0.3622 -1.8315  0.1379
   63SAPC   O31 5023   3.094   6.246   6.865 -0.1351  0.2195 -0.4208
   63SAPC   C31 5024   3.012   6.295   6.959 -0.0625  0.4208  0.0059
   63SAPC   O32 5025   2.905   6.351   6.935  0.6054  0.2235 -0.3723
   63SAPC   C32 5026   3.075   6.292   7.098 -0.4365  0.0564 -0.4009
   63SAPC   H2X 5027   3.181   6.269   7.074 -0.4834 -0.5082 -0.0681
   63SAPC   H2Y 5028   3.032   6.213   7.162 -0.7048  1.2119  0.8941
   63SAPC   C23 5029   2.648   6.057   6.963  0.2347  0.1238  0.3192
   63SAPC   H3R 5030   2.545   6.049   7.003 -0.3052 -0.6655 -1.1278
   63SAPC   H3S 5031   2.649   6.164   6.935 -1.8344  0.7123  2.2919
   63SAPC   C24 5032   2.746   6.040   7.083  0.0386 -0.2277  0.1379
   63SAPC   H4R 5033   2.711   6.127   7.143  2.9877  0.1006  1.5609
   63SAPC   H4S 5034   2.847   6.058   7.041 -0.1120  0.3337  0.0047
   63SAPC   C25 5035   2.740   5.911   7.170 -0.5423  0.2706 -0.1169
   63SAPC   H5R 5036   2.712   5.822   7.112  1.2565  0.5192 -1.4645
   63SAPC   C26 5037   2.770   5.900   7.301  0.1690  0.2599 -0.5889
   63SAPC   H6R 5038   2.786   5.800   7.344  2.0181  0.7268 -0.1211
   63SAPC   C27 5039   2.804   6.015   7.400 -0.6927  0.3890  0.1715
   63SAPC   H7R 5040   2.801   6.107   7.338 -2.3810 -1.1369 -2.1821
   63SAPC   H7S 5041   2.911   5.997   7.422 -0.4162 -0.2378 -1.5826
   63SAPC   C28 5042   2.711   6.014   7.525  0.3406 -0.6937  0.5288
   63SAPC   H8R 5043   2.624   5.949   7.513  0.3629 -0.6346  0.0248
   63SAPC   C29 5044   2.739   6.070   7.640 -0.2088  0.1437 -0.2244
   63SAPC   H9R 5045   2.669   6.058   7.725  1.3604 -1.7813  0.8723
   63SAPC  C210 5046   2.866   6.142   7.678 -0.4275 -0.8521 -0.1096
   63SAPC  H10R 5047   2.851   6.248   7.704  0.0204 -0.6740 -0.5496
   63SAPC  H10S 5048   2.934   6.153   7.590 -0.0747  0.2700  0.2964
   63SAPC  C211 5049   2.931   6.057   7.781  0.8491 -0.3409  0.6559
   63SAPC  H11R 5050   2.955   5.955   7.748 -0.1892  0.3120 -2.4845
   63SAPC  C212 5051   2.941   6.073   7.908 -0.5906  0.9547 -0.4105
   63SAPC  H12R 5052   2.986   5.986   7.959 -1.9031 -1.2668 -2.8255
   63SAPC  C213 5053   2.892   6.188   7.993  0.3681 -0.2849 -0.7965
   63SAPC  H13R 5054   2.899   6.283   7.936  0.2547 -1.3985 -2.7534
   63SAPC  H13S 5055   2.960   6.201   8.079  0.5633  1.3922 -1.1730
   63SAPC  C214 5056   2.748   6.188   8.039 -0.2619  0.6951 -0.4539
   63SAPC  H14R 5057   2.692   6.120   7.972  2.4446 -1.6749 -0.5028
   63SAPC  C215 5058   2.695   6.238   8.155 -0.1937 -0.2073 -0.1319
   63SAPC  H15R 5059   2.587   6.221   8.164  0.0295 -2.0242 -0.4806
   63SAPC  C216 5060   2.772   6.312   8.264  0.2271  0.0585 -0.3465
   63SAPC  H16R 5061   2.850   6.239   8.294  0.1080  0.1852  0.2872
   63SAPC  H16S 5062   2.698   6.333   8.344  0.3928  3.1960 -0.8899
   63SAPC  C217 5063   2.844   6.442   8.229  0.3496 -0.0787 -0.1855
   63SAPC  H17R 5064   2.766   6.518   8.207 -1.1430 -1.8775 -1.4841
   63SAPC  H17S 5065   2.885   6.434   8.126  0.3995 -1.4278 -0.0774
   63SAPC  C218 5066   2.964   6.476   8.321 -0.0946  0.2577  0.1275
   63SAPC  H18R 5067   2.999   6.571   8.275  1.1905 -0.7655 -1.1067
   63SAPC  H18S 5068   3.033   6.391   8.298  0.4726  0.2054  1.8612
   63SAPC  C219 5069   2.948   6.495   8.475  0.4609 -0.3342 -0.2778
   63SAPC  H19R 5070   2.905   6.404   8.522 -0.1191  0.9327  1.7902
   63SAPC  H19S 5071   2.876   6.580   8.478 -0.0502 -0.7798  1.5059
   63SAPC  C220 5072   3.074   6.546   8.548  0.3278 -0.6423  0.8223
   63SAPC  H20R 5073   3.107   6.629   8.481 -2.1557 -2.2684 -2.7370
   63SAPC  H20S 5074   3.157   6.473   8.551  0.3119 -0.6394  1.5079
   63SAPC  H20T 5075   3.054   6.592   8.647 -3.7324  0.2581 -0.2014
   63SAPC   C33 5076   3.044   6.426   7.170 -0.1934 -0.0479 -0.4689
   63SAPC   H3X 5077   2.937   6.454   7.159 -0.3295 -0.6120 -0.6104
   63SAPC   H3Y 5078   3.100   6.504   7.114 -0.0422  0.9546  1.0310
   63SAPC   C34 5079   3.088   6.431   7.313 -0.0279 -0.0138 -0.4952
   63SAPC   H4X 5080   3.183   6.375   7.328  0.3000  0.6097 -0.2038
   63SAPC   H4Y 5081   3.021   6.385   7.389  0.4044  2.3642  1.4447
   63SAPC   C35 5082   3.114   6.566   7.376  0.5358 -0.0528  1.3190
   63SAPC   H5X 5083   3.023   6.628   7.387  0.3195 -0.4429  1.7386
   63SAPC   H5Y 5084   3.180   6.629   7.312 -0.6268 -2.8176 -3.0702
   63SAPC   C36 5085   3.166   6.551   7.517 -0.5485 -0.0909  0.0981
   63SAPC   H6X 5086   3.277   6.543   7.517 -0.5171  0.2989 -0.0407
   63SAPC   H6Y 5087   3.122   6.460   7.562 -0.6500 -0.7054 -1.1899
   63SAPC   C37 5088   3.132   6.665   7.602  0.5403  0.2268 -0.0145
   63SAPC   H7X 5089   3.022   6.684   7.600  0.7842  1.9452  0.8085
   63SAPC   H7Y 5090   3.176   6.753   7.550  0.6052  1.2692  1.7399
   63SAPC   C38 5091   3.192   6.656   7.736  0.4127  0.2730 -0.2368
   63SAPC   H8X 5092   3.300   6.634   7.723  0.2203 -1.0656  0.2686
   63SAPC   H8Y 5093   3.148   6.567   7.786  2.1113 -1.1163 -1.1137
   63SAPC   C39 5094   3.182   6.786   7.826 -0.3252  0.3355  0.5466
   63SAPC   H9X 5095   3.082   6.835   7.830 -0.0012  0.8925  2.8973
   63SAPC   H9Y 5096   3.249   6.861   7.780 -1.5024  0.8486 -0.3940
   63SAPC  C310 5097   3.229   6.751   7.968  0.0208 -0.2418  0.3154
   63SAPC  H10X 5098   3.332   6.709   7.976  0.3583  0.1917 -1.2904
   63SAPC  H10Y 5099   3.164   6.671   8.009  0.3399 -0.9957 -0.6065
   63SAPC  C311 5100   3.221   6.881   8.042 -0.5829  0.2426 -0.1231
   63SAPC  H11X 5101   3.126   6.933   8.021  0.9451  2.8240 -1.1718
   63SAPC  H11Y 5102   3.303   6.947   8.004 -0.5532  0.8868  1.0349
   63SAPC  C312 5103   3.252   6.860   8.193  0.2694  0.0059  0.2871
   63SAPC  H12X 5104   3.358   6.830   8.206  0.1690 -1.6164 -1.8984
   63SAPC  H12Y 5105   3.200   6.767   8.224  0.6257 -0.6265 -0.9253
   63SAPC  C313 5106   3.212   6.978   8.278  0.7426 -0.4824  0.3440
   63SAPC  H13X 5107   3.104   6.997   8.261  0.4477 -1.1262  1.3603
   63SAPC  H13Y 5108   3.268   7.067   8.243  0.1437  0.1280  0.9003
   63SAPC  C314 5109   3.228   6.961   8.430  0.5217  0.2254  0.5405
   63SAPC  H14X 5110   3.328   6.916   8.447  1.4268  2.4255  1.3692
   63SAPC  H14Y 5111   3.150   6.897   8.476  0.2736  0.0135 -0.1571
   63SAPC  C315 5112   3.224   7.098   8.490 -0.0183  0.1235  0.5573
   63SAPC  H15X 5113   3.133   7.156   8.463  0.9482  0.3633 -2.5690
   63SAPC  H15Y 5114   3.312   7.153   8.449  1.9566 -0.9188  3.0630
   63SAPC  C316 5115   3.220   7.083   8.644  0.1440  0.1908 -0.9148
   63SAPC  H16X 5116   3.287   7.005   8.685 -0.6425 -0.7580 -1.4059
   63SAPC  H16Y 5117   3.118   7.069   8.684  0.6196 -0.0992  0.2210
   63SAPC  C317 5118   3.271   7.215   8.707 -0.0789  0.5242 -0.6212
   63SAPC  H17X 5119   3.210   7.296   8.661 -0.0540  0.5481 -0.6114
   63SAPC  H17Y 5120   3.376   7.232   8.677  0.5683 -0.6518  0.8943
   63SAPC  C318 5121   3.259   7.224   8.854  0.1505 -0.0681  0.2246
   63SAPC  H18X 5122   3.344   7.171   8.903  0.1877 -0.1135  0.1116
   63SAPC  H18Y 5123   3.161   7.185   8.889  0.4207 -1.0102 -0.0224
   63SAPC  H18Z 5124   3.267   7.330   8.886 -1.3564  1.0805 -2.7910
   64SAPC     N 5125   5.274   0.309   5.817  0.0356  0.1112 -0.2988
   64SAPC   C12 5126   5.224   0.404   5.933 -0.3459  0.0057 -0.0307
   64SAPC  H12A 5127   5.182   0.495   5.891  1.2255  0.0521 -1.6303
   64SAPC  H12B 5128   5.312   0.431   5.989  0.0910  0.8016 -1.0707
   64SAPC   C13 5129   5.389   0.367   5.742  0.7128 -0.7461 -0.5534
   64SAPC  H13A 5130   5.452   0.292   5.697  1.0631 -0.6977 -0.1466
   64SAPC  H13B 5131   5.349   0.441   5.673  0.0461 -2.1862 -1.7796
   64SAPC  H13C 5132   5.455   0.418   5.810  0.4679  1.0603 -1.6027
   64SAPC   C14 5133   5.324   0.174   5.863 -0.5174  0.2275  0.6904
   64SAPC  H14A 5134   5.336   0.111   5.776  1.1427 -0.4011  1.3294
   64SAPC  H14B 5135   5.423   0.166   5.905 -0.1080  0.6179 -0.1697
   64SAPC  H14C 5136   5.250   0.124   5.923 -2.2100 -0.4146 -1.7892
   64SAPC   C15 5137   5.156   0.274   5.728  0.2664  0.2321 -0.5253
   64SAPC  H15A 5138   5.074   0.226   5.779  1.0055 -0.1510  0.3357
   64SAPC  H15B 5139   5.116   0.362   5.680  0.0573  0.0093 -0.7521
   64SAPC  H15C 5140   5.186   0.203   5.653  0.1142  1.6886 -2.0239
   64SAPC   C11 5141   5.128   0.345   6.042  0.9935 -0.1132  0.1474
   64SAPC  H11A 5142   5.039   0.320   5.981  1.6968 -1.3518 -0.4184
   64SAPC  H11B 5143   5.111   0.432   6.109  0.4405 -0.2627  0.2068
   64SAPC     P 5144   5.278   0.244   6.222  0.5352 -0.1036 -0.1953
   64SAPC   O13 5145   5.384   0.147   6.191  0.0679  0.2411 -0.7811
   64SAPC   O14 5146   5.325   0.382   6.243  0.0171 -0.0879  0.2077
   64SAPC   O12 5147   5.173   0.227   6.109 -0.4075  0.0623 -0.8281
   64SAPC   O11 5148   5.192   0.201   6.347  0.2237 -0.0712  0.2815
   64SAPC    C1 5149   5.055   0.257   6.356  0.6482  0.0838 -0.0598
   64SAPC    HA 5150   5.052   0.367   6.343  2.7362  0.1401 -0.3102
   64SAPC    HB 5151   4.984   0.196   6.296  2.1736 -1.9782  0.1286
   64SAPC    C2 5152   4.990   0.236   6.495 -0.1422 -0.3032  0.6113
   64SAPC    HS 5153   4.894   0.292   6.488  0.5181  0.6491 -2.8847
   64SAPC   O21 5154   5.073   0.279   6.595  0.4773  0.1351  0.1813
   64SAPC   C21 5155   5.090   0.408   6.604 -0.4914  0.0815  0.9695
   64SAPC   O22 5156   5.036   0.488   6.532 -0.6071 -0.1869  0.1502
   64SAPC   C22 5157   5.181   0.449   6.715 -0.0708  0.5369 -0.9112
   64SAPC   H2R 5158   5.271   0.386   6.695 -1.3322 -1.2153 -1.3187
   64SAPC   H2S 5159   5.207   0.557   6.709 -0.1441  0.7028  1.0936
   64SAPC    C3 5160   4.946   0.088   6.522 -0.2992  0.8294 -0.2982
   64SAPC    HX 5161   5.028   0.016   6.498 -0.9161 -0.0533  0.1804
   64SAPC    HY 5162   4.860   0.055   6.460  0.0801 -0.6677 -0.0892
   64SAPC   O31 5163   4.889   0.068   6.650 -0.1937  0.4907 -0.0433
   64SAPC   C31 5164   4.982   0.024   6.743 -0.3275  0.2346 -0.3755
   64SAPC   O32 5165   5.075  -0.047   6.713  0.0088 -0.9111  0.2340
   64SAPC   C32 5166   4.945   0.062   6.889  0.5842  0.5903 -0.0238
   64SAPC   H2X 5167   4.854   0.005   6.917  0.5163 -1.3221 -3.5778
   64SAPC   H2Y 5168   4.912   0.168   6.884 -2.6555 -0.3504 -0.7375
   64SAPC   C23 5169   5.116   0.407   6.846  0.0325 -0.9277 -0.4158
   64SAPC   H3R 5170   5.197   0.404   6.922  2.5132  0.4471 -2.8389
   64SAPC   H3S 5171   5.074   0.304   6.843 -0.4374 -0.7135 -2.2135
   64SAPC   C24 5172   5.015   0.520   6.895 -0.3258  0.1082  0.6504
   64SAPC   H4R 5173   5.056   0.622   6.880  3.0826 -1.2039  0.3405
   64SAPC   H4S 5174   5.012   0.520   7.006  2.5775 -1.4137  0.8065
   64SAPC   C25 5175   4.876   0.500   6.834  0.3651 -0.4844 -0.2200
   64SAPC   H5R 5176   4.866   0.523   6.727  2.3788  2.7038  0.1678
   64SAPC   C26 5177   4.761   0.469   6.906  0.3954  0.4562 -0.2630
   64SAPC   H6R 5178   4.666   0.451   6.855  0.3847 -0.6918  0.1446
   64SAPC   C27 5179   4.752   0.440   7.054 -0.0649  0.1106  0.2723
   64SAPC   H7R 5180   4.856   0.423   7.088 -0.4399 -0.1224  1.3400
   64SAPC   H7S 5181   4.695   0.346   7.069 -1.3316  1.0427  1.6506
   64SAPC   C28 5182   4.676   0.554   7.122  0.1920 -0.1445 -0.3292
   64SAPC   H8R 5183   4.667   0.655   7.079 -1.0084  0.2303  0.7239
   64SAPC   C29 5184   4.626   0.546   7.247  0.3631 -0.7153 -0.5644
   64SAPC   H9R 5185   4.559   0.625   7.282  0.8611 -0.2961 -0.5430
   64SAPC  C210 5186   4.644   0.427   7.343  0.0356  0.2898  0.6085
   64SAPC  H10R 5187   4.715   0.351   7.304 -2.7620 -3.3341  2.0348
   64SAPC  H10S 5188   4.548   0.374   7.360  0.8681 -0.9690  1.5384
   64SAPC  C211 5189   4.697   0.453   7.480 -0.7128  0.7415  0.2023
   64SAPC  H11R 5190   4.617   0.470   7.553 -0.1720  0.1673  0.9453
   64SAPC  C212 5191   4.820   0.452   7.533 -0.0533 -0.4027 -0.6719
   64SAPC  H12R 5192   4.830   0.460   7.642 -2.7060 -1.8514 -0.2299
   64SAPC  C213 5193   4.955   0.425   7.468  0.4676  0.1835  0.0661
   64SAPC  H13R 5194   4.999   0.524   7.443 -0.7013  0.9074  0.7936
   64SAPC  H13S 5195   4.945   0.357   7.381 -0.2355 -1.1301  1.1424
   64SAPC  C214 5196   5.056   0.360   7.559 -0.5194  0.6657  0.0334
   64SAPC  H14R 5197   5.034   0.347   7.666 -0.4375 -1.6010 -0.1641
   64SAPC  C215 5198   5.176   0.314   7.525 -0.0131  0.1061  0.5079
   64SAPC  H15R 5199   5.242   0.278   7.605  0.8204 -2.4786 -1.2256
   64SAPC  C216 5200   5.233   0.295   7.382  0.9267 -0.6994 -0.9699
   64SAPC  H16R 5201   5.156   0.322   7.306 -1.6934  0.5035  1.9282
   64SAPC  H16S 5202   5.245   0.185   7.374 -0.0869 -0.8195 -0.9259
   64SAPC  C217 5203   5.365   0.372   7.348 -0.6524 -0.1307 -0.6846
   64SAPC  H17R 5204   5.445   0.353   7.422 -0.8695 -2.3585 -0.9531
   64SAPC  H17S 5205   5.350   0.481   7.331  1.2461 -0.0018 -1.8260
   64SAPC  C218 5206   5.417   0.326   7.215  0.1188 -0.5953 -0.8115
   64SAPC  H18R 5207   5.348   0.361   7.135  1.4899  0.7278 -1.4424
   64SAPC  H18S 5208   5.402   0.216   7.209 -0.3586 -0.8595  2.7644
   64SAPC  C219 5209   5.565   0.371   7.184  0.6566  0.0970  0.8578
   64SAPC  H19R 5210   5.621   0.359   7.279  1.2331  1.4868  0.7295
   64SAPC  H19S 5211   5.558   0.475   7.145 -1.0838  0.3293  1.6896
   64SAPC  C220 5212   5.629   0.289   7.073 -0.1733  0.4580  0.8180
   64SAPC  H20R 5213   5.649   0.187   7.111 -2.6429 -1.1617 -1.8092
   64SAPC  H20S 5214   5.726   0.335   7.046 -0.1271 -0.4096 -0.5898
   64SAPC  H20T 5215   5.569   0.269   6.982  0.6652 -1.3163  0.6303
   64SAPC   C33 5216   5.061   0.028   6.979 -0.7042  0.2585 -1.1567
   64SAPC   H3X 5217   5.158   0.075   6.953 -0.6880 -0.0357 -1.6389
   64SAPC   H3Y 5218   5.084  -0.080   6.975  1.4995  0.7113 -2.1185
   64SAPC   C34 5219   5.023   0.047   7.134 -0.4826  0.0886 -0.2717
   64SAPC   H4X 5220   4.980   0.147   7.154 -2.3716 -0.5302 -1.0464
   64SAPC   H4Y 5221   5.122   0.040   7.185 -0.4475  0.3664 -0.2987
   64SAPC   C35 5222   4.922  -0.061   7.178  0.2798  0.2695 -0.5458
   64SAPC   H5X 5223   4.979  -0.156   7.170  1.9102  1.0262  1.3003
   64SAPC   H5Y 5224   4.824  -0.067   7.125 -0.4918  0.0025  0.8560
   64SAPC   C36 5225   4.886  -0.037   7.326 -0.3848 -0.1947 -0.3384
   64SAPC   H6X 5226   4.831  -0.126   7.363  2.0997 -1.8056 -0.3179
   64SAPC   H6Y 5227   4.823   0.055   7.330  1.5486  1.3356 -2.2617
   64SAPC   C37 5228   4.994  -0.010   7.429  0.4149  0.1206 -0.3234
   64SAPC   H7X 5229   5.048   0.083   7.400 -0.1290 -0.0178 -1.8799
   64SAPC   H7Y 5230   5.063  -0.098   7.434 -1.6120 -1.5918 -0.9628
   64SAPC   C38 5231   4.942   0.004   7.573 -0.7692 -0.1333 -0.1935
   64SAPC   H8X 5232   4.868  -0.077   7.588 -0.3463 -0.4701  0.1000
   64SAPC   H8Y 5233   4.896   0.103   7.597 -0.3884 -0.7580  3.7083
   64SAPC   C39 5234   5.053  -0.010   7.677 -0.0210  0.8220  0.6595
   64SAPC   H9X 5235   5.145   0.043   7.646 -0.5912  1.4344 -0.0240
   64SAPC   H9Y 5236   5.074  -0.119   7.688 -0.9413  0.1106 -3.3259
   64SAPC  C310 5237   5.011   0.042   7.816  0.1405 -0.6647 -0.5227
   64SAPC  H10X 5238   4.925  -0.018   7.854  0.1159 -0.2761  0.0503
   64SAPC  H10Y 5239   4.958   0.139   7.811  0.9853 -0.2591 -2.3357
   64SAPC  C311 5240   5.129   0.045   7.918  0.2889  0.0524 -0.0390
   64SAPC  H11X 5241   5.220   0.095   7.879  0.6436  0.3030  1.0824
   64SAPC  H11Y 5242   5.171  -0.057   7.931 -0.1855 -0.0380  0.8571
   64SAPC  C312 5243   5.083   0.073   8.061 -0.5116 -0.3682  0.5999
   64SAPC  H12X 5244   4.981   0.028   8.062  0.3285 -2.3964  2.3467
   64SAPC  H12Y 5245   5.081   0.184   8.055 -1.5364 -0.4352 -1.8899
   64SAPC  C313 5246   5.178   0.014   8.168 -0.4882 -0.1560 -0.2868
   64SAPC  H13X 5247   5.202  -0.093   8.152  0.2483 -0.2539  1.3272
   64SAPC  H13Y 5248   5.130   0.015   8.269  0.3050 -2.7112  0.1685
   64SAPC  C314 5249   5.299   0.106   8.196 -0.3907 -0.4880  0.2193
   64SAPC  H14X 5250   5.353   0.142   8.106  1.2217 -2.3377  0.3722
   64SAPC  H14Y 5251   5.359   0.049   8.270 -1.0140 -0.1185  1.0319
   64SAPC  C315 5252   5.250   0.237   8.267  0.5346 -0.0059 -0.3661
   64SAPC  H15X 5253   5.174   0.221   8.346  0.5534  3.0967  0.4137
   64SAPC  H15Y 5254   5.207   0.293   8.181  1.3583  0.8903 -0.2214
   64SAPC  C316 5255   5.363   0.323   8.328  0.3634 -0.7240 -0.0269
   64SAPC  H16X 5256   5.452   0.336   8.262 -0.8033 -0.6301 -1.6360
   64SAPC  H16Y 5257   5.401   0.263   8.413 -1.2461 -0.0799  1.1985
   64SAPC  C317 5258   5.322   0.458   8.376  0.4406 -0.8956 -0.4822
   64SAPC  H17X 5259   5.225   0.437   8.426 -1.2201  1.6673 -2.4130
   64SAPC  H17Y 5260   5.297   0.530   8.295  1.7041 -0.8289 -0.8317
   64SAPC  C318 5261   5.423   0.527   8.475  0.2701  0.1305  0.1537
   64SAPC  H18X 5262   5.437   0.462   8.565 -0.8962 -0.8966 -0.3705
   64SAPC  H18Y 5263   5.384   0.623   8.512  2.1386  0.9353  0.1675
   64SAPC  H18Z 5264   5.518   0.537   8.418  0.0912 -0.4451 -0.2531
   65SAPC     N 5265   4.468   2.710   6.150 -0.8115  0.9571 -0.4094
   65SAPC   C12 5266   4.573   2.625   6.087 -0.0615  0.4549 -0.8635
   65SAPC  H12A 5267   4.665   2.671   6.121 -1.5634  2.4055  0.8189
   65SAPC  H12B 5268   4.572   2.645   5.981  2.5654  0.9733 -0.8509
   65SAPC   C13 5269   4.509   2.853   6.123  0.5214 -0.6313 -0.2592
   65SAPC  H13A 5270   4.512   2.869   6.016  2.0085  1.1149 -0.0171
   65SAPC  H13B 5271   4.428   2.916   6.157  1.0921  0.8674 -1.5688
   65SAPC  H13C 5272   4.602   2.896   6.159 -2.3723  4.0961  2.6237
   65SAPC   C14 5273   4.337   2.689   6.087  0.2933 -0.4845  0.3314
   65SAPC  H14A 5274   4.295   2.591   6.106 -0.2244 -0.4014 -0.3441
   65SAPC  H14B 5275   4.272   2.766   6.126  0.5387  0.6966 -1.5082
   65SAPC  H14C 5276   4.330   2.691   5.979 -0.1705 -1.0761  0.3401
   65SAPC   C15 5277   4.461   2.682   6.299  0.4253 -0.6414 -0.2174
   65SAPC  H15A 5278   4.418   2.585   6.314 -2.9698  0.5255 -1.3701
   65SAPC  H15B 5279   4.558   2.667   6.344 -0.5304  0.2585  2.2999
   65SAPC  H15C 5280   4.408   2.756   6.357  0.8711 -1.2506  0.9955
   65SAPC   C11 5281   4.580   2.469   6.115 -0.1200  0.2457 -0.1691
   65SAPC  H11A 5282   4.628   2.417   6.030 -2.3712  0.0054 -1.3602
   65SAPC  H11B 5283   4.479   2.422   6.117 -1.3579  2.6749 -1.0017
   65SAPC     P 5284   4.803   2.501   6.264 -0.0567 -0.2967  0.2902
   65SAPC   O13 5285   4.895   2.471   6.153 -0.3404 -0.8442  0.1174
   65SAPC   O14 5286   4.798   2.645   6.300 -0.3066 -0.1349 -0.4261
   65SAPC   O12 5287   4.652   2.449   6.239  0.1876 -0.2560  0.9957
   65SAPC   O11 5288   4.827   2.419   6.399 -0.3106 -0.7427 -0.5272
   65SAPC    C1 5289   4.780   2.284   6.396  0.4238  0.1241 -0.1125
   65SAPC    HA 5290   4.676   2.263   6.362  0.2039  0.3430  0.4109
   65SAPC    HB 5291   4.846   2.231   6.324 -0.1242  1.3657 -1.5816
   65SAPC    C2 5292   4.804   2.215   6.536 -0.3084  0.5585 -0.3091
   65SAPC    HS 5293   4.712   2.159   6.562  0.5498 -0.0512  1.5427
   65SAPC   O21 5294   4.844   2.310   6.639 -0.1283 -0.1351  0.3167
   65SAPC   C21 5295   4.742   2.379   6.690  0.3474 -0.2855  0.2031
   65SAPC   O22 5296   4.625   2.356   6.663  0.5868  0.2346  0.0205
   65SAPC   C22 5297   4.793   2.473   6.796  0.7668  0.5818 -0.7014
   65SAPC   H2R 5298   4.869   2.412   6.849 -0.7436 -2.4850 -1.8153
   65SAPC   H2S 5299   4.838   2.566   6.756  5.3415  0.6122  3.5419
   65SAPC    C3 5300   4.909   2.101   6.536 -0.6099 -0.1628  0.3444
   65SAPC    HX 5301   5.008   2.143   6.511 -0.2741 -0.7862  0.6003
   65SAPC    HY 5302   4.887   2.032   6.452 -1.9468 -0.3461  0.8145
   65SAPC   O31 5303   4.897   2.025   6.662  0.5988  0.1694  0.3486
   65SAPC   C31 5304   4.978   2.060   6.755 -0.0108  0.5101 -0.4002
   65SAPC   O32 5305   5.063   2.142   6.744  0.1517 -0.5242 -0.0424
   65SAPC   C32 5306   4.960   1.969   6.879 -0.3619  0.2663  0.2927
   65SAPC   H2X 5307   5.008   1.869   6.863 -0.0858  0.4789 -0.2246
   65SAPC   H2Y 5308   4.852   1.959   6.904 -0.2287  1.5270  1.4696
   65SAPC   C23 5309   4.682   2.508   6.914  0.0311 -0.0001  0.2553
   65SAPC   H3R 5310   4.590   2.551   6.869  1.3944  0.9083 -1.7992
   65SAPC   H3S 5311   4.721   2.597   6.968  0.3944 -0.3049  0.5040
   65SAPC   C24 5312   4.655   2.399   7.026 -0.0218  0.2905 -0.3287
   65SAPC   H4R 5313   4.735   2.404   7.102 -1.2231 -1.3014  1.1360
   65SAPC   H4S 5314   4.667   2.302   6.972  0.0246  1.3740 -2.3365
   65SAPC   C25 5315   4.521   2.415   7.092  0.6022  0.5452  0.4883
   65SAPC   H5R 5316   4.438   2.414   7.019 -0.3056  0.4555  1.5009
   65SAPC   C26 5317   4.495   2.440   7.222 -0.0264  0.0621  0.4865
   65SAPC   H6R 5318   4.392   2.461   7.254 -0.5465 -2.9259  1.0894
   65SAPC   C27 5319   4.608   2.446   7.327  0.4327 -0.8002  0.3322
   65SAPC   H7R 5320   4.685   2.518   7.293 -0.3180 -0.4037 -0.5780
   65SAPC   H7S 5321   4.667   2.353   7.335  1.0115 -0.3396  1.8352
   65SAPC   C28 5322   4.556   2.487   7.460  1.1195  0.4533 -0.3930
   65SAPC   H8R 5323   4.492   2.576   7.453 -0.6592 -0.7816 -0.5684
   65SAPC   C29 5324   4.539   2.415   7.572  0.0669  0.3736  0.6727
   65SAPC   H9R 5325   4.500   2.463   7.663 -0.2760  1.1944  0.1083
   65SAPC  C210 5326   4.582   2.272   7.582 -0.5100  0.8061 -0.6014
   65SAPC  H10R 5327   4.550   2.207   7.498  0.6205 -0.6682  0.0582
   65SAPC  H10S 5328   4.533   2.229   7.673 -0.9005 -1.6744 -1.8930
   65SAPC  C211 5329   4.728   2.241   7.606 -0.7368  0.3354  0.3965
   65SAPC  H11R 5330   4.788   2.235   7.513 -0.1009  1.3869  0.7236
   65SAPC  C212 5331   4.790   2.241   7.719  0.0453 -0.2665 -0.1901
   65SAPC  H12R 5332   4.896   2.211   7.722  0.1254  0.0876  1.6179
   65SAPC  C213 5333   4.741   2.258   7.862 -0.4047 -0.0700  0.2803
   65SAPC  H13R 5334   4.630   2.252   7.873 -0.4547 -0.6065 -0.4188
   65SAPC  H13S 5335   4.769   2.361   7.893 -1.8639  0.6957 -0.7687
   65SAPC  C214 5336   4.800   2.155   7.955 -0.2341 -0.1371  0.1352
   65SAPC  H14R 5337   4.909   2.148   7.948 -0.3555 -2.6388  0.0217
   65SAPC  C215 5338   4.740   2.060   8.032  0.8466 -0.2984 -0.3423
   65SAPC  H15R 5339   4.798   1.999   8.103  0.4902 -0.7690 -0.4454
   65SAPC  C216 5340   4.593   2.031   8.043 -0.1982  0.6235 -0.4150
   65SAPC  H16R 5341   4.588   1.922   8.065  2.2392  0.6312  0.4905
   65SAPC  H16S 5342   4.538   2.064   7.952  0.7180  1.4657 -0.6770
   65SAPC  C217 5343   4.543   2.110   8.162  0.1707  0.4252 -0.1375
   65SAPC  H17R 5344   4.435   2.089   8.172  0.5071 -1.8805 -0.7875
   65SAPC  H17S 5345   4.563   2.218   8.144  1.7642  0.5042  1.8588
   65SAPC  C218 5346   4.617   2.087   8.294  0.0622  0.3927 -0.4825
   65SAPC  H18R 5347   4.725   2.110   8.278  0.5078 -0.4033  1.1661
   65SAPC  H18S 5348   4.610   1.982   8.329 -0.3886  0.4628 -0.3594
   65SAPC  C219 5349   4.588   2.185   8.409  0.1137 -0.0767 -0.5326
   65SAPC  H19R 5350   4.478   2.189   8.420  0.1718  2.1443 -0.2577
   65SAPC  H19S 5351   4.611   2.290   8.380  2.0204 -0.7818 -1.7498
   65SAPC  C220 5352   4.657   2.155   8.542  0.0001 -0.0346  0.5099
   65SAPC  H20R 5353   4.766   2.168   8.523  0.0016 -1.9544 -1.1488
   65SAPC  H20S 5354   4.640   2.051   8.577 -0.1491  0.8509  3.2682
   65SAPC  H20T 5355   4.635   2.226   8.624 -1.4098  1.2083 -0.8818
   65SAPC   C33 5356   5.029   2.050   6.998 -0.0662  0.6993  0.1123
   65SAPC   H3X 5357   5.003   2.157   7.009 -1.4106  0.6788 -2.2201
   65SAPC   H3Y 5358   5.137   2.049   6.974 -0.2398 -0.5642 -0.6911
   65SAPC   C34 5359   4.995   1.981   7.127  0.1134  0.7903  0.2549
   65SAPC   H4X 5360   5.015   1.872   7.123  0.7679  0.8517  1.2604
   65SAPC   H4Y 5361   4.886   1.989   7.147 -0.1467 -1.6233  0.0556
   65SAPC   C35 5362   5.056   2.046   7.255 -0.6334  0.5068 -0.2855
   65SAPC   H5X 5363   5.024   2.152   7.251 -1.0273  0.5055  1.7089
   65SAPC   H5Y 5364   5.166   2.034   7.260 -0.7010  0.2788  3.2187
   65SAPC   C36 5365   5.009   1.969   7.386 -0.3731  0.2441 -1.3080
   65SAPC   H6X 5366   5.043   1.864   7.378  4.0121  0.8050  4.0192
   65SAPC   H6Y 5367   4.898   1.974   7.401 -0.1729 -0.8466  1.0341
   65SAPC   C37 5368   5.068   2.015   7.527 -0.4964  0.2697 -0.4086
   65SAPC   H7X 5369   5.066   2.123   7.553  2.6752 -0.1679  2.2814
   65SAPC   H7Y 5370   5.177   1.993   7.534 -0.2371  1.7206  0.6447
   65SAPC   C38 5371   5.019   1.940   7.646  0.8612 -0.1941 -0.1056
   65SAPC   H8X 5372   5.029   1.830   7.635  0.7719 -0.4540  2.1230
   65SAPC   H8Y 5373   4.913   1.966   7.669  0.7455 -0.9760  0.2713
   65SAPC   C39 5374   5.098   1.974   7.780  0.0215  0.2310 -0.5869
   65SAPC   H9X 5375   5.070   2.076   7.811  0.0924  0.1490 -0.2442
   65SAPC   H9Y 5376   5.209   1.972   7.773  0.1411  0.2410  0.9078
   65SAPC  C310 5377   5.055   1.874   7.884  0.0303 -0.3035  0.2137
   65SAPC  H10X 5378   5.112   1.780   7.871  0.9735  0.3518 -0.4836
   65SAPC  H10Y 5379   4.945   1.858   7.883  0.0770 -0.6325  0.3832
   65SAPC  C311 5380   5.092   1.925   8.024 -0.0218  0.1638 -0.7332
   65SAPC  H11X 5381   5.054   2.028   8.041 -2.6679 -0.9806  1.0006
   65SAPC  H11Y 5382   5.203   1.931   8.027 -0.0931  1.7053  2.2053
   65SAPC  C312 5383   5.037   1.837   8.138 -0.0781  0.2498 -0.0335
   65SAPC  H12X 5384   5.092   1.740   8.135  1.3997  0.9994  1.2972
   65SAPC  H12Y 5385   4.929   1.812   8.145  0.5668 -2.4111  2.4985
   65SAPC  C313 5386   5.077   1.903   8.269  0.2228 -0.4244 -0.5520
   65SAPC  H13X 5387   4.990   1.964   8.302 -0.8259 -1.2860 -1.5957
   65SAPC  H13Y 5388   5.159   1.978   8.269  0.8227 -1.0281 -2.2221
   65SAPC  C314 5389   5.121   1.808   8.385 -0.1707 -0.4190  0.4912
   65SAPC  H14X 5390   5.202   1.742   8.345 -0.0827 -0.7842  1.2612
   65SAPC  H14Y 5391   5.044   1.733   8.413 -1.5339  1.0051  0.6298
   65SAPC  C315 5392   5.149   1.887   8.513 -0.1714 -0.1175  0.2157
   65SAPC  H15X 5393   5.057   1.945   8.535  1.0965  1.7823  0.6987
   65SAPC  H15Y 5394   5.236   1.953   8.494 -0.7930  0.0541 -2.3417
   65SAPC  C316 5395   5.193   1.791   8.629 -0.1484 -0.1104 -0.0400
   65SAPC  H16X 5396   5.280   1.731   8.593 -0.6316 -0.6717 -0.2908
   65SAPC  H16Y 5397   5.121   1.708   8.641  0.3911 -0.7341 -0.9423
   65SAPC  C317 5398   5.231   1.867   8.755 -0.1136 -0.1914  0.0961
   65SAPC  H17X 5399   5.144   1.928   8.786  0.1266  0.9125 -1.3184
   65SAPC  H17Y 5400   5.311   1.939   8.727 -1.2965  1.1553  0.1032
   65SAPC  C318 5401   5.287   1.780   8.868 -0.4762 -0.0766 -0.4853
   65SAPC  H18X 5402   5.361   1.708   8.828 -1.4286 -0.5517 -1.4327
   65SAPC  H18Y 5403   5.204   1.730   8.921  1.3849 -1.3951  1.3201
   65SAPC  H18Z 5404   5.348   1.848   8.932  0.1587  0.4165 -1.5760
   66SAPC     N 5405   2.738   1.596   6.213 -0.0319  0.4948 -0.2944
   66SAPC   C12 5406   2.745   1.467   6.122  0.3037 -0.1959 -0.0671
   66SAPC  H12A 5407   2.805   1.509   6.043  0.2527 -0.0595 -0.0332
   66SAPC  H12B 5408   2.646   1.439   6.091 -0.0056 -2.0563  2.3063
   66SAPC   C13 5409   2.671   1.708   6.145  0.0770  0.1666 -0.7109
   66SAPC  H13A 5410   2.657   1.797   6.205  0.9538 -1.0503  1.4199
   66SAPC  H13B 5411   2.711   1.718   6.045 -0.6871 -0.4984 -1.0920
   66SAPC  H13C 5412   2.572   1.680   6.114  0.0049 -0.2011 -0.1748
   66SAPC   C14 5413   2.678   1.563   6.342 -0.3974 -0.2755 -0.4138
   66SAPC  H14A 5414   2.732   1.477   6.379 -0.6183  0.1207  0.8820
   66SAPC  H14B 5415   2.665   1.647   6.408  2.1132 -1.1875  1.3970
   66SAPC  H14C 5416   2.580   1.519   6.327 -0.9100  0.6089  0.2150
   66SAPC   C15 5417   2.879   1.649   6.237  0.2093  0.1426 -0.9327
   66SAPC  H15A 5418   2.936   1.678   6.150  0.8051 -0.9408 -0.9088
   66SAPC  H15B 5419   2.871   1.734   6.304  0.2037 -0.3732 -0.2675
   66SAPC  H15C 5420   2.929   1.564   6.281 -0.9107  0.6697  1.5369
   66SAPC   C11 5421   2.815   1.338   6.177  0.3441  0.4985  0.9231
   66SAPC  H11A 5422   2.915   1.373   6.208  0.2657  3.0102 -1.2693
   66SAPC  H11B 5423   2.819   1.257   6.100  1.2122  1.1471  0.2661
   66SAPC     P 5424   2.598   1.214   6.275 -0.4027 -0.3869  0.3017
   66SAPC   O13 5425   2.503   1.298   6.350 -0.0007 -0.2897  0.1790
   66SAPC   O14 5426   2.578   1.194   6.131  0.0995 -0.0929  0.2104
   66SAPC   O12 5427   2.749   1.281   6.284  0.0659  0.4534  0.3845
   66SAPC   O11 5428   2.615   1.072   6.341  0.4344 -0.4559 -1.0717
   66SAPC    C1 5429   2.696   1.039   6.456 -0.2549  0.4409 -0.4094
   66SAPC    HA 5430   2.730   0.934   6.461  0.9836  0.7985 -0.8507
   66SAPC    HB 5431   2.793   1.094   6.461 -0.2681  0.3224  1.6645
   66SAPC    C2 5432   2.628   1.067   6.596  0.5251 -0.2880 -0.1363
   66SAPC    HS 5433   2.538   1.002   6.595 -1.3127  1.8266  3.7647
   66SAPC   O21 5434   2.603   1.204   6.608 -0.7415 -0.1546 -0.0994
   66SAPC   C21 5435   2.480   1.240   6.662  0.0876  0.5993  0.6144
   66SAPC   O22 5436   2.388   1.158   6.691 -0.5494 -0.3016 -1.0114
   66SAPC   C22 5437   2.476   1.383   6.685 -0.1868 -0.3825 -0.6526
   66SAPC   H2R 5438   2.583   1.410   6.704 -0.9091  1.7632  0.8053
   66SAPC   H2S 5439   2.431   1.430   6.595  0.4794  1.5234 -0.0521
   66SAPC    C3 5440   2.719   1.034   6.714 -0.4314 -0.2733 -0.2751
   66SAPC    HX 5441   2.790   1.116   6.693  0.8551 -1.5608 -1.1201
   66SAPC    HY 5442   2.763   0.934   6.697 -0.7527 -0.8013  1.7033
   66SAPC   O31 5443   2.666   1.050   6.845  0.0935 -0.7877  0.4872
   66SAPC   C31 5444   2.598   0.950   6.886  0.0342  0.1692  0.0665
   66SAPC   O32 5445   2.558   0.857   6.822  0.7101 -0.0827  0.1425
   66SAPC   C32 5446   2.589   0.953   7.034  0.4031 -0.9146  0.2653
   66SAPC   H2X 5447   2.659   1.028   7.077 -2.0824  0.9835  1.2947
   66SAPC   H2Y 5448   2.623   0.853   7.068  0.6734 -0.5994  0.9422
   66SAPC   C23 5449   2.387   1.424   6.809  0.2070  0.4892  0.9753
   66SAPC   H3R 5450   2.412   1.356   6.893  1.0694 -1.2566 -0.6253
   66SAPC   H3S 5451   2.280   1.401   6.789  0.1840  1.9254 -0.7423
   66SAPC   C24 5452   2.418   1.571   6.851  1.5791 -0.6301 -0.2782
   66SAPC   H4R 5453   2.426   1.632   6.759 -1.7643 -1.0756 -0.9912
   66SAPC   H4S 5454   2.519   1.583   6.896 -0.1682 -0.0672  3.9285
   66SAPC   C25 5455   2.336   1.635   6.958  0.1965  0.5782  0.1618
   66SAPC   H5R 5456   2.242   1.677   6.919  0.4682 -0.4798 -1.8109
   66SAPC   C26 5457   2.352   1.643   7.089 -0.9264 -0.1010  0.1675
   66SAPC   H6R 5458   2.291   1.710   7.152 -0.4268 -0.5173  1.1144
   66SAPC   C27 5459   2.462   1.579   7.168  0.1559 -0.0500  0.1162
   66SAPC   H7R 5460   2.517   1.655   7.227  0.3539  0.8005 -1.1215
   66SAPC   H7S 5461   2.544   1.526   7.115  0.7139  0.9356 -0.0201
   66SAPC   C28 5462   2.398   1.467   7.254  0.3170 -0.4506  0.3525
   66SAPC   H8R 5463   2.405   1.365   7.213  3.1652 -0.6567  1.1135
   66SAPC   C29 5464   2.370   1.474   7.387 -0.4681  0.3945 -0.2249
   66SAPC   H9R 5465   2.321   1.390   7.439  1.1102 -1.0531 -0.9695
   66SAPC  C210 5466   2.381   1.591   7.482 -0.1873  0.1753 -0.5022
   66SAPC  H10R 5467   2.446   1.669   7.437 -1.4362  0.4231 -1.9735
   66SAPC  H10S 5468   2.423   1.550   7.576 -1.6286 -1.6470 -0.6135
   66SAPC  C211 5469   2.244   1.649   7.494 -0.6313  0.1691  0.1405
   66SAPC  H11R 5470   2.179   1.636   7.406 -1.9243  0.2111  1.0642
   66SAPC  C212 5471   2.184   1.694   7.602  0.1821 -0.0496  0.5214
   66SAPC  H12R 5472   2.084   1.737   7.590  1.2925  2.3643 -0.7632
   66SAPC  C213 5473   2.233   1.690   7.740 -0.0805 -0.7932 -0.1665
   66SAPC  H13R 5474   2.245   1.581   7.756 -1.4176 -0.9434 -0.1083
   66SAPC  H13S 5475   2.153   1.731   7.806 -0.7739 -2.2302 -0.0770
   66SAPC  C214 5476   2.364   1.766   7.757 -1.1053 -0.6727 -0.2309
   66SAPC  H14R 5477   2.428   1.755   7.668 -1.0301 -0.4163 -0.2102
   66SAPC  C215 5478   2.406   1.830   7.869  0.2239  0.4302  0.1807
   66SAPC  H15R 5479   2.497   1.892   7.863 -0.1881  0.9548 -1.1305
   66SAPC  C216 5480   2.318   1.844   7.993 -0.2683  0.0802  0.2062
   66SAPC  H16R 5481   2.297   1.742   8.033  0.2235 -0.4010 -0.7253
   66SAPC  H16S 5482   2.218   1.887   7.973 -1.8515 -2.7142  1.4509
   66SAPC  C217 5483   2.390   1.930   8.097 -0.1815  1.1019  0.0765
   66SAPC  H17R 5484   2.439   2.015   8.044 -0.4786  0.8508 -0.6173
   66SAPC  H17S 5485   2.478   1.868   8.125  0.0202 -0.8966 -4.1887
   66SAPC  C218 5486   2.308   1.981   8.218 -0.7005  0.3547 -0.1988
   66SAPC  H18R 5487   2.292   1.905   8.298 -1.2273  1.5286  0.8533
   66SAPC  H18S 5488   2.207   2.017   8.189 -0.5207  0.2538 -0.9616
   66SAPC  C219 5489   2.379   2.099   8.285 -0.2843 -0.6709 -0.1948
   66SAPC  H19R 5490   2.406   2.169   8.203  1.7096 -1.6079 -0.3829
   66SAPC  H19S 5491   2.477   2.083   8.335  1.0826  0.4723 -2.3434
   66SAPC  C220 5492   2.286   2.169   8.381 -0.0344 -0.1590  0.4585
   66SAPC  H20R 5493   2.326   2.268   8.411 -1.6406  0.9256 -0.7840
   66SAPC  H20S 5494   2.275   2.117   8.479  0.0072  0.8978  1.0410
   66SAPC  H20T 5495   2.185   2.186   8.337 -0.7744 -2.7001  0.9725
   66SAPC   C33 5496   2.446   0.994   7.078  0.3059 -0.2336 -0.2476
   66SAPC   H3X 5497   2.388   0.901   7.056  0.7674 -0.5019 -0.3504
   66SAPC   H3Y 5498   2.408   1.068   7.004 -2.3659 -1.2165  0.0285
   66SAPC   C34 5499   2.438   1.061   7.218 -0.1663  0.3103  0.5789
   66SAPC   H4X 5500   2.335   1.102   7.228  0.5518  1.8698  2.1538
   66SAPC   H4Y 5501   2.501   1.152   7.226  0.6169 -0.1908  0.2287
   66SAPC   C35 5502   2.468   0.957   7.329 -0.3358  0.3993 -0.5324
   66SAPC   H5X 5503   2.575   0.942   7.353 -0.0654  1.3059 -1.0847
   66SAPC   H5Y 5504   2.426   0.859   7.296 -0.0298  0.0653  0.0726
   66SAPC   C36 5505   2.409   1.007   7.466 -0.5993  0.1970 -0.5315
   66SAPC   H6X 5506   2.396   0.928   7.543 -0.3346 -0.3114 -1.0018
   66SAPC   H6Y 5507   2.316   1.065   7.448 -1.6552 -1.6114 -1.0584
   66SAPC   C37 5508   2.504   1.113   7.531 -0.2058  0.0802 -0.7051
   66SAPC   H7X 5509   2.505   1.203   7.466 -1.6164  0.7881  0.2015
   66SAPC   H7Y 5510   2.609   1.078   7.526  0.1027  0.9216 -0.2977
   66SAPC   C38 5511   2.463   1.164   7.673 -0.1842  0.1229 -0.6854
   66SAPC   H8X 5512   2.453   1.076   7.740  1.0621 -1.4763 -2.4776
   66SAPC   H8Y 5513   2.361   1.206   7.661 -0.5494 -0.7932 -0.9313
   66SAPC   C39 5514   2.565   1.266   7.734  0.1119 -0.4860  0.2092
   66SAPC   H9X 5515   2.568   1.357   7.672 -0.6544 -0.8961 -0.4389
   66SAPC   H9Y 5516   2.669   1.228   7.740 -0.0051 -0.5705  2.6764
   66SAPC  C310 5517   2.523   1.310   7.877  0.2423  0.9091 -0.5734
   66SAPC  H10X 5518   2.500   1.221   7.938  2.1131  1.3427  0.8648
   66SAPC  H10Y 5519   2.429   1.369   7.874  0.2680  1.0177  0.4196
   66SAPC  C311 5520   2.625   1.407   7.943  0.5417 -0.9533 -0.0165
   66SAPC  H11X 5521   2.628   1.500   7.883  1.5014 -0.7854  0.2698
   66SAPC  H11Y 5522   2.725   1.359   7.947  1.2405  0.5325  1.0060
   66SAPC  C312 5523   2.582   1.442   8.087 -0.1883  0.0751  0.0475
   66SAPC  H12X 5524   2.577   1.348   8.147 -0.0899  0.1544  0.1804
   66SAPC  H12Y 5525   2.478   1.481   8.081 -0.6843 -1.0228  1.0214
   66SAPC  C313 5526   2.661   1.546   8.163  0.3614  0.3333 -0.2263
   66SAPC  H13X 5527   2.626   1.640   8.116 -0.3670  0.1154 -0.1255
   66SAPC  H13Y 5528   2.771   1.534   8.152  0.4799  1.8252 -0.8871
   66SAPC  C314 5529   2.637   1.563   8.321  0.2211 -0.5347  0.2976
   66SAPC  H14X 5530   2.691   1.483   8.375 -0.4906 -0.7851  0.6557
   66SAPC  H14Y 5531   2.531   1.555   8.353  0.5201 -2.4737  0.9592
   66SAPC  C315 5532   2.695   1.697   8.359  0.3030 -0.0382 -0.4354
   66SAPC  H15X 5533   2.623   1.763   8.306 -0.6672  1.0129  2.0683
   66SAPC  H15Y 5534   2.792   1.701   8.304  1.5470 -0.0887  1.6419
   66SAPC  C316 5535   2.714   1.717   8.509 -0.0044 -0.4232  0.3710
   66SAPC  H16X 5536   2.802   1.663   8.550  1.2976  1.2843 -0.0607
   66SAPC  H16Y 5537   2.621   1.673   8.551 -0.9649  0.0332 -1.1925
   66SAPC  C317 5538   2.717   1.857   8.571  0.3943  0.0662  0.4226
   66SAPC  H17X 5539   2.692   1.836   8.677 -1.4236  1.5283  0.3262
   66SAPC  H17Y 5540   2.633   1.918   8.531 -0.1976  0.1072  1.6917
   66SAPC  C318 5541   2.844   1.942   8.542  0.1185  0.2942 -0.0397
   66SAPC  H18X 5542   2.933   1.876   8.541  0.2119  0.3679 -2.4350
   66SAPC  H18Y 5543   2.853   2.019   8.622 -0.5525 -0.2138  0.5439
   66SAPC  H18Z 5544   2.831   1.970   8.436  0.1881 -0.6761 -0.3145
   67SAPC     N 5545   4.907   3.570   6.260 -0.0858 -0.6430  0.5559
   67SAPC   C12 5546   4.922   3.613   6.406  0.3125 -0.1385  0.4083
   67SAPC  H12A 5547   4.854   3.696   6.421 -0.4557 -0.4281 -1.1899
   67SAPC  H12B 5548   5.019   3.661   6.406  1.3322 -2.0895  0.5378
   67SAPC   C13 5549   5.012   3.472   6.217 -0.3011 -0.0460  0.7990
   67SAPC  H13A 5550   5.032   3.409   6.302 -1.1639  0.1538  1.1589
   67SAPC  H13B 5551   4.978   3.412   6.134 -0.4457  3.6797 -2.0950
   67SAPC  H13C 5552   5.104   3.526   6.198 -1.6207  2.3959  0.9543
   67SAPC   C14 5553   4.775   3.504   6.240  0.5238 -0.0133 -0.3619
   67SAPC  H14A 5554   4.747   3.438   6.321  0.6445 -1.5843 -1.5585
   67SAPC  H14B 5555   4.700   3.581   6.223  2.1673  1.0280 -3.6605
   67SAPC  H14C 5556   4.778   3.452   6.145 -2.9782 -0.5368 -0.3456
   67SAPC   C15 5557   4.919   3.689   6.165  0.0079 -0.0332 -0.0094
   67SAPC  H15A 5558   5.013   3.742   6.170  1.5764 -2.7011  0.7932
   67SAPC  H15B 5559   4.889   3.662   6.065 -2.4567 -2.1555  1.1947
   67SAPC  H15C 5560   4.846   3.763   6.194  0.0492 -0.5552  1.5122
   67SAPC   C11 5561   4.897   3.511   6.521  0.9949 -0.0320  0.2690
   67SAPC  H11A 5562   4.793   3.473   6.509  1.2203  0.0746 -2.5413
   67SAPC  H11B 5563   4.901   3.573   6.613  0.2904  1.0945 -0.4270
   67SAPC     P 5564   5.146   3.423   6.564  0.5119  0.0865 -0.0940
   67SAPC   O13 5565   5.229   3.321   6.492 -0.1118  0.2195  0.3037
   67SAPC   O14 5566   5.184   3.568   6.551  0.0710  0.0783 -0.0265
   67SAPC   O12 5567   4.994   3.412   6.510  0.1228  0.2265  0.0389
   67SAPC   O11 5568   5.145   3.397   6.722  0.2066  0.8354  0.5092
   67SAPC    C1 5569   5.042   3.322   6.779  0.1649 -0.0615 -0.3051
   67SAPC    HA 5570   5.038   3.353   6.885  1.3796 -0.5841 -0.0849
   67SAPC    HB 5571   4.942   3.341   6.734  0.5384 -0.9497 -1.5715
   67SAPC    C2 5572   5.068   3.166   6.782  0.2822  0.0047  1.1179
   67SAPC    HS 5573   5.054   3.130   6.677 -0.9756 -0.3143  1.3847
   67SAPC   O21 5574   4.979   3.113   6.886  0.2113  0.2396  0.1275
   67SAPC   C21 5575   4.902   3.012   6.838 -0.5120  0.8145 -0.2417
   67SAPC   O22 5576   4.906   2.966   6.724 -0.4923  0.1706 -0.0205
   67SAPC   C22 5577   4.812   2.956   6.951 -0.0384  0.1451  0.2847
   67SAPC   H2R 5578   4.833   2.847   6.954 -1.7359 -0.2051  0.1440
   67SAPC   H2S 5579   4.830   3.010   7.047 -1.0567 -0.1385  0.6476
   67SAPC    C3 5580   5.219   3.145   6.813 -0.3451  0.3070  0.1765
   67SAPC    HX 5581   5.254   3.188   6.910 -1.2969 -1.8946  1.5778
   67SAPC    HY 5582   5.278   3.194   6.733  1.0810  1.1994  1.6996
   67SAPC   O31 5583   5.258   3.001   6.833  0.2502  0.4361  0.5150
   67SAPC   C31 5584   5.275   2.932   6.716  0.5597  0.1455  0.3941
   67SAPC   O32 5585   5.276   2.975   6.602  0.3119 -0.0829  0.4020
   67SAPC   C32 5586   5.301   2.784   6.740  0.2351 -0.5560  0.0512
   67SAPC   H2X 5587   5.387   2.780   6.810 -0.0417  2.1066  0.6627
   67SAPC   H2Y 5588   5.340   2.749   6.643  0.2863  1.0053 -0.5147
   67SAPC   C23 5589   4.662   2.983   6.924  0.6382 -0.5736 -0.0019
   67SAPC   H3R 5590   4.616   2.914   6.849 -2.4744  1.9233 -0.6398
   67SAPC   H3S 5591   4.649   3.087   6.887 -2.3813 -1.0077 -0.4235
   67SAPC   C24 5592   4.555   2.978   7.036 -0.4474  0.8823 -0.0288
   67SAPC   H4R 5593   4.457   3.006   6.993 -0.6999  1.5277  0.9471
   67SAPC   H4S 5594   4.595   3.060   7.100  1.4360  0.1564 -0.2086
   67SAPC   C25 5595   4.560   2.842   7.100 -0.2858  0.4050 -0.1139
   67SAPC   H5R 5596   4.489   2.769   7.058 -1.2081  0.0836  1.8969
   67SAPC   C26 5597   4.620   2.803   7.214  0.3787 -0.5584 -0.1978
   67SAPC   H6R 5598   4.583   2.707   7.253 -2.2963  0.4726 -0.0039
   67SAPC   C27 5599   4.688   2.894   7.314 -0.2603  0.7176  0.6123
   67SAPC   H7R 5600   4.721   2.987   7.262  0.1414  1.7061  2.5235
   67SAPC   H7S 5601   4.782   2.842   7.342 -0.3301  0.9253  1.2395
   67SAPC   C28 5602   4.596   2.921   7.432 -0.4704  0.0538 -0.6819
   67SAPC   H8R 5603   4.493   2.950   7.405 -0.2293  0.9020 -0.6992
   67SAPC   C29 5604   4.632   2.928   7.566  0.3106  0.6099 -0.4419
   67SAPC   H9R 5605   4.561   2.950   7.647 -1.0161  2.2156 -1.9642
   67SAPC  C210 5606   4.772   2.914   7.631 -0.6807 -0.1169  0.1510
   67SAPC  H10R 5607   4.823   3.012   7.619 -1.8405  0.7759  2.0230
   67SAPC  H10S 5608   4.831   2.836   7.578 -1.6585  2.0857 -4.8244
   67SAPC  C211 5609   4.762   2.887   7.778 -0.4152 -0.1990 -0.6020
   67SAPC  H11R 5610   4.726   2.789   7.811 -1.6802  0.2551 -0.5975
   67SAPC  C212 5611   4.766   2.982   7.881 -0.7851  0.0532  0.6349
   67SAPC  H12R 5612   4.777   2.948   7.985  0.2813  1.4345  0.9970
   67SAPC  C213 5613   4.796   3.129   7.859  0.1715 -0.2591  0.3305
   67SAPC  H13R 5614   4.882   3.141   7.790  0.2509  0.2352  0.5106
   67SAPC  H13S 5615   4.837   3.162   7.956  0.1796  3.3723 -0.7842
   67SAPC  C214 5616   4.682   3.222   7.824 -0.5346 -0.5703  0.4130
   67SAPC  H14R 5617   4.594   3.208   7.888 -0.4503 -0.8417  0.4742
   67SAPC  C215 5618   4.669   3.302   7.714  0.6077  0.3137  0.2788
   67SAPC  H15R 5619   4.581   3.367   7.714  0.4793  0.1410  0.3716
   67SAPC  C216 5620   4.764   3.330   7.598  0.4522 -0.0941 -0.0639
   67SAPC  H16R 5621   4.851   3.262   7.611  0.8660  0.6221  1.0797
   67SAPC  H16S 5622   4.799   3.435   7.593  0.1285  0.1050  1.5253
   67SAPC  C217 5623   4.697   3.293   7.459 -0.2767  0.0587 -0.5113
   67SAPC  H17R 5624   4.602   3.348   7.447  0.1407  1.1847  0.9838
   67SAPC  H17S 5625   4.664   3.187   7.461  1.3421 -0.4828  1.0154
   67SAPC  C218 5626   4.791   3.312   7.335 -0.1129  0.3517  0.5345
   67SAPC  H18R 5627   4.817   3.418   7.316  1.4165  0.3636  2.3928
   67SAPC  H18S 5628   4.720   3.283   7.255 -0.4970 -3.2185  1.9784
   67SAPC  C219 5629   4.903   3.220   7.325 -0.3163 -0.4000  0.0277
   67SAPC  H19R 5630   4.875   3.118   7.359  2.4545 -0.5722  2.0896
   67SAPC  H19S 5631   4.973   3.241   7.408 -0.4310 -1.1901  0.3330
   67SAPC  C220 5632   4.977   3.216   7.190  0.2271 -0.0912 -0.4603
   67SAPC  H20R 5633   5.060   3.143   7.203 -0.3894 -0.7630 -0.2543
   67SAPC  H20S 5634   5.023   3.317   7.178  0.9549 -0.5488 -1.6989
   67SAPC  H20T 5635   4.899   3.189   7.117 -2.1421 -1.9449  2.5114
   67SAPC   C33 5636   5.181   2.699   6.786 -0.1962 -0.4355 -0.9661
   67SAPC   H3X 5637   5.190   2.597   6.742  0.1084 -0.3910 -1.0118
   67SAPC   H3Y 5638   5.084   2.740   6.750  0.0587  0.5925 -0.5006
   67SAPC   C34 5639   5.183   2.686   6.939  0.5823 -0.3388 -0.1159
   67SAPC   H4X 5640   5.185   2.789   6.981  1.2784 -0.2981 -0.2302
   67SAPC   H4Y 5641   5.284   2.647   6.963 -0.0897 -2.3621 -0.4461
   67SAPC   C35 5642   5.064   2.617   7.008 -0.4747  0.1318  0.2884
   67SAPC   H5X 5643   5.037   2.526   6.950  1.4794 -1.1796  1.3183
   67SAPC   H5Y 5644   4.973   2.680   7.005  0.2299  1.1356 -1.4535
   67SAPC   C36 5645   5.109   2.567   7.137 -0.4640 -0.1664  0.5891
   67SAPC   H6X 5646   5.154   2.656   7.187 -1.0652  0.8318 -0.5803
   67SAPC   H6Y 5647   5.197   2.501   7.123  0.5648  1.3906 -0.7408
   67SAPC   C37 5648   5.002   2.492   7.222  0.0058 -0.1367  0.0537
   67SAPC   H7X 5649   4.965   2.401   7.171 -0.1631 -0.0384 -0.0023
   67SAPC   H7Y 5650   4.913   2.560   7.222 -0.6200 -0.7965 -3.2932
   67SAPC   C38 5651   5.042   2.450   7.367 -0.0729  0.3677 -0.1149
   67SAPC   H8X 5652   5.153   2.459   7.374  0.1967 -1.6944 -1.0889
   67SAPC   H8Y 5653   5.015   2.344   7.381 -1.4279  0.5511 -1.1148
   67SAPC   C39 5654   4.970   2.539   7.474  0.0841 -0.7102 -0.0414
   67SAPC   H9X 5655   4.862   2.511   7.477 -0.4583  1.1794  2.4284
   67SAPC   H9Y 5656   4.984   2.647   7.452  0.8209 -1.1263 -1.7090
   67SAPC  C310 5657   5.027   2.502   7.609 -0.0484  0.5901  0.2540
   67SAPC  H10X 5658   5.137   2.517   7.613  0.2748 -1.6567  2.2777
   67SAPC  H10Y 5659   5.018   2.392   7.627  0.8698  0.5919  0.7533
   67SAPC  C311 5660   4.965   2.581   7.726  0.0079 -0.2785  0.1912
   67SAPC  H11X 5661   4.856   2.558   7.720 -0.1466  0.7498 -1.7694
   67SAPC  H11Y 5662   4.966   2.690   7.707 -0.5535 -0.1599  0.8011
   67SAPC  C312 5663   5.024   2.545   7.863 -0.8658  0.2903  0.1984
   67SAPC  H12X 5664   5.132   2.568   7.876 -0.8334 -0.3158  1.0904
   67SAPC  H12Y 5665   5.014   2.436   7.883  0.2557  0.2077  0.3956
   67SAPC  C313 5666   4.950   2.599   7.987  0.1436 -0.0574 -0.5351
   67SAPC  H13X 5667   4.843   2.572   7.975  0.0781  0.4983 -1.2710
   67SAPC  H13Y 5668   4.957   2.708   8.007 -0.7119  0.2426 -1.7315
   67SAPC  C314 5669   4.995   2.525   8.116 -0.2258 -0.2126 -0.1212
   67SAPC  H14X 5670   5.106   2.523   8.111 -0.2367  0.4928 -0.8160
   67SAPC  H14Y 5671   4.970   2.417   8.113  0.9061 -0.4907  0.0585
   67SAPC  C315 5672   4.965   2.594   8.253  0.2656 -0.2907  0.3890
   67SAPC  H15X 5673   4.856   2.618   8.257 -0.1207 -2.0513  1.3416
   67SAPC  H15Y 5674   5.020   2.691   8.252 -0.4299  0.1049 -0.3572
   67SAPC  C316 5675   4.999   2.525   8.385 -0.4828 -0.1160  0.4654
   67SAPC  H16X 5676   4.918   2.449   8.393  0.5942 -1.2539  0.8380
   67SAPC  H16Y 5677   4.987   2.600   8.466 -0.9415  0.3835 -0.0539
   67SAPC  C317 5678   5.140   2.455   8.380  0.8872 -0.3255 -0.5022
   67SAPC  H17X 5679   5.156   2.393   8.290  2.4325 -2.0177  0.8631
   67SAPC  H17Y 5680   5.134   2.384   8.466  0.0218  2.1325  1.6135
   67SAPC  C318 5681   5.253   2.549   8.413  0.0991  0.1795 -0.1729
   67SAPC  H18X 5682   5.352   2.530   8.366 -0.8370  0.5009 -2.3657
   67SAPC  H18Y 5683   5.260   2.547   8.524 -3.0463 -0.3426  0.1035
   67SAPC  H18Z 5684   5.231   2.655   8.391 -0.6106  0.3574  1.2746
   68SAPC     N 5685   4.068   1.263   6.319 -1.0374 -1.0621 -0.2030
   68SAPC   C12 5686   3.968   1.160   6.368  0.5484 -0.0332  0.2322
   68SAPC  H12A 5687   4.027   1.086   6.419 -2.3319 -3.0170 -0.4409
   68SAPC  H12B 5688   3.935   1.101   6.284  0.6909 -0.9249  0.7853
   68SAPC   C13 5689   4.149   1.331   6.429  0.5123  0.3686  0.5705
   68SAPC  H13A 5690   4.080   1.381   6.496 -2.7029 -0.9837 -1.4952
   68SAPC  H13B 5691   4.212   1.260   6.480 -2.0969 -0.3503  3.0517
   68SAPC  H13C 5692   4.214   1.402   6.381 -0.4574  0.5983 -0.4613
   68SAPC   C14 5693   4.150   1.192   6.214  0.1698  0.3989 -0.3065
   68SAPC  H14A 5694   4.193   1.102   6.256 -1.4195  0.1816  0.9474
   68SAPC  H14B 5695   4.084   1.159   6.135  1.1442  0.9777 -1.3990
   68SAPC  H14C 5696   4.239   1.243   6.180  0.9158  1.0074  2.3464
   68SAPC   C15 5697   4.003   1.377   6.247 -0.0135  0.7099 -0.1123
   68SAPC  H15A 5698   4.068   1.459   6.220 -0.2657  0.6528 -0.9171
   68SAPC  H15B 5699   3.959   1.338   6.157  0.5414 -1.9056  0.6563
   68SAPC  H15C 5700   3.918   1.403   6.308 -0.5240 -0.6979 -0.1864
   68SAPC   C11 5701   3.853   1.203   6.465  0.0308 -0.2823 -0.1111
   68SAPC  H11A 5702   3.903   1.249   6.553 -0.5170 -0.7148  0.4380
   68SAPC  H11B 5703   3.798   1.118   6.511  0.2127 -0.2395  0.1865
   68SAPC     P 5704   3.652   1.246   6.310 -0.0478  0.0861 -0.4814
   68SAPC   O13 5705   3.611   1.353   6.213  0.2740  0.5857 -0.1027
   68SAPC   O14 5706   3.698   1.118   6.262 -0.4822  0.3980  0.1053
   68SAPC   O12 5707   3.761   1.298   6.405 -0.2226 -0.0420 -0.1963
   68SAPC   O11 5708   3.533   1.224   6.413  0.4948  0.2208  0.0852
   68SAPC    C1 5709   3.485   1.332   6.494  0.0655  0.1636  0.1237
   68SAPC    HA 5710   3.536   1.431   6.488  1.2093 -0.2293  2.2251
   68SAPC    HB 5711   3.378   1.347   6.466  0.1698 -0.9047 -0.9015
   68SAPC    C2 5712   3.492   1.285   6.641  0.3579  0.2055 -0.7854
   68SAPC    HS 5713   3.432   1.356   6.701  0.0932 -1.7108  1.3378
   68SAPC   O21 5714   3.631   1.280   6.683 -0.5397  0.4951 -0.3445
   68SAPC   C21 5715   3.648   1.321   6.806  0.1311 -0.0443 -0.7859
   68SAPC   O22 5716   3.569   1.382   6.878 -0.2358 -0.5992 -0.2915
   68SAPC   C22 5717   3.801   1.307   6.842  0.2569 -0.3456  0.2650
   68SAPC   H2R 5718   3.834   1.206   6.808 -0.1522 -0.8638  1.3363
   68SAPC   H2S 5719   3.846   1.384   6.777 -2.8038  0.9990 -0.4449
   68SAPC    C3 5720   3.421   1.151   6.664  0.0690  0.0309  0.4101
   68SAPC    HX 5721   3.486   1.071   6.623  3.1713  0.7086  3.5869
   68SAPC    HY 5722   3.337   1.167   6.593  1.3904 -2.1004 -1.8333
   68SAPC   O31 5723   3.392   1.122   6.804 -0.5601  0.4905 -0.6534
   68SAPC   C31 5724   3.274   1.130   6.834  0.6564  0.6974  0.8209
   68SAPC   O32 5725   3.184   1.160   6.759  0.2502  0.2713 -0.4212
   68SAPC   C32 5726   3.244   1.092   6.985 -0.1668 -0.1479  0.7923
   68SAPC   H2X 5727   3.278   0.988   7.006 -0.6419 -0.5759 -0.4397
   68SAPC   H2Y 5728   3.134   1.092   6.997 -0.0022 -2.1885  3.2181
   68SAPC   C23 5729   3.833   1.344   6.984  0.4491  0.4777 -0.1218
   68SAPC   H3R 5730   3.787   1.275   7.059  1.9483 -0.7377 -0.2555
   68SAPC   H3S 5731   3.791   1.445   7.003  1.6370  1.1918 -1.1171
   68SAPC   C24 5732   3.982   1.356   7.011 -0.2771 -0.1431 -0.2004
   68SAPC   H4R 5733   4.005   1.412   7.104  0.4833 -0.7701  0.0021
   68SAPC   H4S 5734   4.019   1.397   6.914 -0.6403 -2.2041 -1.2593
   68SAPC   C25 5735   4.040   1.216   7.030 -0.1077  0.2193  0.2201
   68SAPC   H5R 5736   4.096   1.165   6.951 -0.9929  0.1934 -0.4104
   68SAPC   C26 5737   4.040   1.155   7.149  0.3067  0.3242 -0.8026
   68SAPC   H6R 5738   4.079   1.053   7.162 -1.7496 -0.7840 -2.6268
   68SAPC   C27 5739   3.998   1.224   7.280  0.2137 -0.2414 -0.3899
   68SAPC   H7R 5740   3.887   1.225   7.277  0.2335 -0.0719 -2.3461
   68SAPC   H7S 5741   4.032   1.329   7.292  0.9468 -0.2755 -1.9343
   68SAPC   C28 5742   4.036   1.145   7.402  0.3978  0.2007 -0.0396
   68SAPC   H8R 5743   4.092   1.053   7.378  2.0186  0.6270  1.8484
   68SAPC   C29 5744   4.006   1.171   7.528  0.1686 -0.6228  0.1194
   68SAPC   H9R 5745   4.045   1.113   7.613  0.1969  1.2720  1.4641
   68SAPC  C210 5746   3.920   1.280   7.580  0.0756  0.3861 -0.4962
   68SAPC  H10R 5747   3.912   1.366   7.510 -2.2486  2.9099  2.4981
   68SAPC  H10S 5748   3.974   1.320   7.669  0.3227 -1.0001 -0.0099
   68SAPC  C211 5749   3.779   1.235   7.607 -0.2749  0.0143 -0.6296
   68SAPC  H11R 5750   3.721   1.210   7.517 -1.5224 -0.8468  0.3815
   68SAPC  C212 5751   3.716   1.220   7.728 -0.6479  0.0665  0.1039
   68SAPC  H12R 5752   3.616   1.175   7.729 -1.4986  1.8486  2.1133
   68SAPC  C213 5753   3.787   1.243   7.861  0.8943 -0.3343 -0.1537
   68SAPC  H13R 5754   3.764   1.345   7.900  1.4055 -0.2677 -0.0202
   68SAPC  H13S 5755   3.896   1.250   7.843  0.5429  1.5841 -1.9548
   68SAPC  C214 5756   3.748   1.149   7.971 -0.4304  0.1577 -0.3590
   68SAPC  H14R 5757   3.754   1.044   7.940  0.3143  0.4050 -1.0689
   68SAPC  C215 5758   3.708   1.178   8.096 -0.0837  0.0611  0.0983
   68SAPC  H15R 5759   3.689   1.099   8.171  1.8434  1.2116  1.9299
   68SAPC  C216 5760   3.693   1.319   8.158 -0.1665 -0.0045  0.4575
   68SAPC  H16R 5761   3.590   1.361   8.164  0.2933  0.9638  2.8359
   68SAPC  H16S 5762   3.743   1.393   8.092 -2.1826 -0.4726 -1.7287
   68SAPC  C217 5763   3.743   1.344   8.302  0.5502 -0.3685  0.1970
   68SAPC  H17R 5764   3.716   1.261   8.370 -0.7611  0.5241  0.8114
   68SAPC  H17S 5765   3.692   1.438   8.333 -0.4978 -0.2422 -1.7668
   68SAPC  C218 5766   3.894   1.370   8.319  0.0466 -0.3270 -0.0458
   68SAPC  H18R 5767   3.926   1.457   8.258 -2.8805  0.0675 -1.1926
   68SAPC  H18S 5768   3.959   1.281   8.302 -0.8739 -1.0267  0.0244
   68SAPC  C219 5769   3.912   1.407   8.469 -0.1558 -0.2417 -0.0434
   68SAPC  H19R 5770   3.895   1.323   8.539  0.9008 -1.1684 -0.8652
   68SAPC  H19S 5771   3.839   1.488   8.494  1.1216  1.9972 -2.9818
   68SAPC  C220 5772   4.039   1.471   8.507  0.0077  0.2791 -0.5231
   68SAPC  H20R 5773   4.028   1.509   8.611  2.5677  0.2569 -0.1744
   68SAPC  H20S 5774   4.047   1.562   8.444 -2.3971 -0.2007 -1.6516
   68SAPC  H20T 5775   4.129   1.409   8.487  0.1771  0.5692 -0.6682
   68SAPC   C33 5776   3.295   1.187   7.095  0.5372  0.1076 -0.3057
   68SAPC   H3X 5777   3.232   1.277   7.112 -0.2373  0.0180 -2.3397
   68SAPC   H3Y 5778   3.395   1.229   7.071  0.6705 -0.3157 -0.5183
   68SAPC   C34 5779   3.307   1.109   7.228 -0.5803 -0.5972 -0.6346
   68SAPC   H4X 5780   3.396   1.044   7.218  1.3984  1.6992  0.9917
   68SAPC   H4Y 5781   3.207   1.060   7.228 -0.9050  0.0498  0.4150
   68SAPC   C35 5782   3.307   1.207   7.346  0.0397  0.2100 -0.4868
   68SAPC   H5X 5783   3.244   1.298   7.337 -1.9404 -0.9605  0.8762
   68SAPC   H5Y 5784   3.411   1.243   7.362 -0.1326  0.7005 -0.4618
   68SAPC   C36 5785   3.260   1.133   7.476  0.1899 -0.3162  0.5297
   68SAPC   H6X 5786   3.301   1.030   7.469  1.6912  0.2208  1.0504
   68SAPC   H6Y 5787   3.149   1.125   7.479 -0.1006  0.8206 -3.1513
   68SAPC   C37 5788   3.304   1.193   7.611  0.1873 -0.4674  0.3557
   68SAPC   H7X 5789   3.291   1.303   7.614 -2.7495 -0.7725  1.9032
   68SAPC   H7Y 5790   3.414   1.178   7.619  0.0542 -2.0445 -0.3897
   68SAPC   C38 5791   3.231   1.132   7.735 -0.5005  0.1892 -0.0826
   68SAPC   H8X 5792   3.230   1.023   7.755  0.2436  0.2445  0.2717
   68SAPC   H8Y 5793   3.125   1.136   7.701 -0.2937  1.8655 -0.6476
   68SAPC   C39 5794   3.252   1.217   7.854  0.8866 -0.7860 -0.1103
   68SAPC   H9X 5795   3.159   1.204   7.913  0.2560  1.0927 -0.6106
   68SAPC   H9Y 5796   3.268   1.325   7.830 -0.7043 -0.5433 -0.1546
   68SAPC  C310 5797   3.376   1.164   7.934 -0.4024  0.1324 -0.0969
   68SAPC  H10X 5798   3.451   1.245   7.951 -1.4603  1.7924 -2.6339
   68SAPC  H10Y 5799   3.439   1.094   7.874  0.5012 -0.2649  1.2764
   68SAPC  C311 5800   3.336   1.098   8.070  0.0267  0.2223 -0.0374
   68SAPC  H11X 5801   3.413   1.024   8.102  0.1973  0.9654  1.3574
   68SAPC  H11Y 5802   3.247   1.036   8.045  1.0371 -1.2151 -0.1557
   68SAPC  C312 5803   3.298   1.196   8.187 -0.1372  0.0832 -0.0713
   68SAPC  H12X 5804   3.223   1.265   8.143  1.9469  1.4034 -1.7288
   68SAPC  H12Y 5805   3.392   1.251   8.209 -1.7394  2.2056  2.0438
   68SAPC  C313 5806   3.240   1.118   8.312 -0.7677 -1.1770 -0.3108
   68SAPC  H13X 5807   3.322   1.052   8.347  1.8170  0.0996 -3.4254
   68SAPC  H13Y 5808   3.144   1.072   8.279 -0.7674 -0.6084 -1.1228
   68SAPC  C314 5809   3.201   1.219   8.427 -0.1923 -0.3934  0.1952
   68SAPC  H14X 5810   3.102   1.256   8.394 -0.8965 -2.8170 -0.6419
   68SAPC  H14Y 5811   3.283   1.294   8.433  1.7041 -2.3145 -0.2503
   68SAPC  C315 5812   3.193   1.139   8.562  0.5848 -0.5032  0.7782
   68SAPC  H15X 5813   3.179   1.194   8.658  0.8887 -1.4270  1.3649
   68SAPC  H15Y 5814   3.289   1.084   8.571  0.6625 -0.4171  0.4635
   68SAPC  C316 5815   3.079   1.028   8.576 -0.0367 -0.7548 -0.0155
   68SAPC  H16X 5816   3.082   0.952   8.495 -3.1497 -0.2192 -0.7530
   68SAPC  H16Y 5817   2.972   1.053   8.560 -1.2063 -3.3020  2.8155
   68SAPC  C317 5818   3.082   0.963   8.711  0.2541 -0.1530 -0.4991
   68SAPC  H17X 5819   3.188   0.936   8.724  0.7408  1.7949 -0.0930
   68SAPC  H17Y 5820   3.016   0.874   8.722 -0.4649  0.7029  3.6916
   68SAPC  C318 5821   3.030   1.052   8.825  0.5593  0.6877  0.5084
   68SAPC  H18X 5822   2.957   1.128   8.789  0.1916 -0.2000 -0.6650
   68SAPC  H18Y 5823   3.116   1.110   8.864  1.1746  0.6115 -0.7080
   68SAPC  H18Z 5824   2.982   0.990   8.905  3.1029 -1.9105  0.1760
   69SLPC     N 5825   1.894   5.607  11.093 -0.3052  0.3806 -0.5118
   69SLPC   C13 5826   1.803   5.645  11.208 -0.6164  0.1002 -0.3540
   69SLPC  H13A 5827   1.704   5.666  11.169 -1.7895 -1.5035  1.5115
   69SLPC  H13B 5828   1.792   5.559  11.272 -0.4736  0.8871  0.7607
   69SLPC  H13C 5829   1.836   5.734  11.260 -2.2059  1.0721 -0.9442
   69SLPC   C14 5830   2.025   5.552  11.138  0.0969 -0.0391 -0.4717
   69SLPC  H14A 5831   2.011   5.456  11.185  0.5713 -0.3484 -0.9534
   69SLPC  H14B 5832   2.088   5.527  11.054  0.8458 -0.3490  0.1719
   69SLPC  H14C 5833   2.065   5.627  11.206 -0.8226  0.0672 -0.0241
   69SLPC   C15 5834   1.909   5.727  11.010  0.1260  0.3478  0.2320
   69SLPC  H15A 5835   1.820   5.746  10.952  0.3155  1.6953  0.3635
   69SLPC  H15B 5836   1.938   5.812  11.069 -1.1917 -0.4124  2.0501
   69SLPC  H15C 5837   1.991   5.711  10.941  0.7710  0.7508  0.8833
   69SLPC   C12 5838   1.838   5.499  11.009  0.5342  0.6707  0.4151
   69SLPC  H12A 5839   1.829   5.406  11.063 -0.5078 -0.4096 -1.5034
   69SLPC  H12B 5840   1.900   5.468  10.926 -0.8852 -0.1733 -0.3723
   69SLPC   C11 5841   1.688   5.512  10.946 -0.0932  0.2524  0.1819
   69SLPC  H11A 5842   1.673   5.454  10.852 -0.6420  1.1509 -0.3079
   69SLPC  H11B 5843   1.680   5.617  10.909 -2.7627  0.1005  0.1337
   69SLPC     P 5844   1.450   5.544  11.050 -0.0237  0.0624 -0.0120
   69SLPC   O13 5845   1.348   5.447  11.097 -0.0777 -0.2274 -0.0209
   69SLPC   O14 5846   1.472   5.663  11.130  0.7482  0.1504 -0.9442
   69SLPC   O12 5847   1.591   5.471  11.043 -0.2771  0.2897  0.1616
   69SLPC   O11 5848   1.430   5.593  10.903  0.2964 -0.1861 -0.0824
   69SLPC    C1 5849   1.320   5.566  10.820  0.4902 -0.3609  0.0998
   69SLPC    HA 5850   1.232   5.516  10.864 -1.3340  2.1221 -0.4828
   69SLPC    HB 5851   1.288   5.670  10.795  1.5943  0.4272  1.7276
   69SLPC    C2 5852   1.351   5.488  10.691 -0.5412 -0.3766 -0.6528
   69SLPC    HS 5853   1.262   5.473  10.626  0.1243  0.6594 -1.8487
   69SLPC   O21 5854   1.416   5.369  10.747 -0.4799  0.3497  0.3886
   69SLPC   C21 5855   1.330   5.279  10.785  0.3204  0.2179 -0.0259
   69SLPC   O22 5856   1.209   5.284  10.763 -0.4501 -0.1843 -1.1652
   69SLPC   C22 5857   1.400   5.163  10.857  0.6723 -0.5205 -0.0187
   69SLPC   H2R 5858   1.511   5.164  10.850  0.6975 -0.5235  0.3777
   69SLPC   H2S 5859   1.367   5.168  10.963  0.2158 -0.3970 -0.1622
   69SLPC    C3 5860   1.451   5.558  10.590 -0.0248  0.1366 -0.0592
   69SLPC    HX 5861   1.476   5.500  10.498 -0.7559  0.2823 -0.3544
   69SLPC    HY 5862   1.538   5.582  10.655  0.3278  0.3100 -0.5853
   69SLPC   O31 5863   1.378   5.679  10.550  0.7088 -0.3361  0.1677
   69SLPC   C31 5864   1.456   5.787  10.533  0.0706  0.1138 -0.2323
   69SLPC   O32 5865   1.575   5.791  10.541 -0.8066  0.4242 -0.8182
   69SLPC   C32 5866   1.379   5.914  10.506  0.0725  0.3334 -0.1360
   69SLPC   H2X 5867   1.442   6.002  10.531 -2.0042  1.2592  2.3066
   69SLPC   H2Y 5868   1.299   5.916  10.584  0.0769 -1.2340 -0.0731
   69SLPC   C23 5869   1.355   5.023  10.787 -0.5766 -0.4835 -0.1225
   69SLPC   H3R 5870   1.245   5.013  10.777 -0.5370 -0.5526 -0.5295
   69SLPC   H3S 5871   1.377   4.940  10.858 -1.1978  0.2332  0.9215
   69SLPC   C24 5872   1.428   4.983  10.653 -0.3543  0.2265  0.8109
   69SLPC   H4R 5873   1.385   4.887  10.620 -1.5369  0.7529  0.7770
   69SLPC   H4S 5874   1.537   4.959  10.658  0.0174  1.5004 -0.4563
   69SLPC   C25 5875   1.410   5.083  10.536 -0.3208  0.3641 -0.7016
   69SLPC   H5R 5876   1.456   5.177  10.571  1.3014 -0.2767 -1.0533
   69SLPC   H5S 5877   1.299   5.090  10.532 -0.7127 -2.0871  2.2106
   69SLPC   C26 5878   1.476   5.021  10.412 -0.1485  0.7803 -0.3673
   69SLPC   H6R 5879   1.431   4.920  10.406  1.4185  0.0794 -0.8594
   69SLPC   H6S 5880   1.587   5.019  10.416 -0.1862 -0.6424  1.3077
   69SLPC   C27 5881   1.437   5.100  10.285 -0.0540  0.1076  0.1691
   69SLPC   H7R 5882   1.426   5.206  10.316 -1.7268 -0.3439  1.2157
   69SLPC   H7S 5883   1.335   5.060  10.265  0.4751 -1.8719  1.1302
   69SLPC   C28 5884   1.534   5.085  10.170  0.1430  0.0993  0.1776
   69SLPC   H8R 5885   1.639   5.094  10.205 -0.3393  0.7162  1.5467
   69SLPC   H8S 5886   1.513   5.168  10.099  0.5962  0.4814  0.4882
   69SLPC   C29 5887   1.515   4.948  10.106 -0.7369  0.0691  0.1819
   69SLPC   H9R 5888   1.543   4.863  10.171  1.6184  0.6796  0.0430
   69SLPC  C210 5889   1.477   4.923   9.980  0.2711  0.8297  0.0177
   69SLPC  H10R 5890   1.467   4.817   9.953  3.6716 -0.1439  2.0403
   69SLPC  C211 5891   1.437   5.012   9.865  0.5214  0.3999 -0.7618
   69SLPC  H11R 5892   1.463   4.970   9.766 -1.9287  3.7643 -3.0709
   69SLPC  H11S 5893   1.493   5.107   9.878  2.1212 -0.6238  0.2366
   69SLPC  C212 5894   1.287   5.027   9.870  0.1299  0.4400 -0.5608
   69SLPC  H12R 5895   1.235   4.931   9.858  1.1207 -0.6630  2.6927
   69SLPC  C213 5896   1.218   5.137   9.896  0.3233 -0.0806  0.7838
   69SLPC  H13R 5897   1.108   5.131   9.890  0.3270 -1.6803  1.6101
   69SLPC  C214 5898   1.270   5.276   9.918  0.0641 -0.1736 -0.6613
   69SLPC  H14R 5899   1.245   5.321   9.820  1.2511 -0.4029 -1.0810
   69SLPC  H14S 5900   1.380   5.279   9.934 -0.2030  1.8625  1.3115
   69SLPC  C215 5901   1.212   5.343  10.042 -0.2641 -0.1462  0.2047
   69SLPC  H15R 5902   1.270   5.316  10.132 -0.4688  0.0667  0.4029
   69SLPC  H15S 5903   1.114   5.299  10.070 -1.5437  1.1947 -1.8896
   69SLPC  C216 5904   1.201   5.490  10.024  0.1324  0.0613  0.5384
   69SLPC  H16R 5905   1.175   5.524   9.921 -1.3958  0.1023  0.9115
   69SLPC  H16S 5906   1.306   5.525  10.035 -0.2705  1.6497 -0.2617
   69SLPC  C217 5907   1.124   5.568  10.139  0.1087  0.3567  0.6672
   69SLPC  H17R 5908   1.014   5.561  10.135  0.2270 -1.2959 -1.2050
   69SLPC  H17S 5909   1.140   5.676  10.119 -0.0465  0.6076  1.8080
   69SLPC  C218 5910   1.189   5.527  10.271 -0.8208 -0.6932 -0.3020
   69SLPC  H18R 5911   1.300   5.521  10.272 -0.7056  0.7782  1.3376
   69SLPC  H18S 5912   1.157   5.427  10.306 -0.2565 -0.1348  1.9970
   69SLPC  H18T 5913   1.152   5.600  10.346  1.6837 -0.6931  1.0701
   69SLPC   C33 5914   1.320   5.915  10.363  0.1235 -1.1172  0.1228
   69SLPC   H3X 5915   1.268   6.010  10.344  1.6666 -0.5201 -1.3599
   69SLPC   H3Y 5916   1.257   5.824  10.351 -0.7729 -0.5102  0.1979
   69SLPC   C34 5917   1.427   5.911  10.255 -0.0783  0.3411  0.3372
   69SLPC   H4X 5918   1.499   5.827  10.260  0.6605  0.8143 -1.6580
   69SLPC   H4Y 5919   1.486   6.005  10.253 -1.4358  1.2206 -1.7460
   69SLPC   C35 5920   1.370   5.907  10.120 -0.7152 -0.8223  0.6820
   69SLPC   H5X 5921   1.325   6.007  10.103 -1.3958 -1.4724 -1.8058
   69SLPC   H5Y 5922   1.282   5.840  10.115 -1.3859 -0.0352  1.6770
   69SLPC   C36 5923   1.482   5.882  10.008  0.8131  0.3341 -0.3136
   69SLPC   H6X 5924   1.522   5.779  10.023  1.5653  0.5383 -0.8318
   69SLPC   H6Y 5925   1.569   5.951  10.009  1.0282  0.0836  1.4544
   69SLPC   C37 5926   1.421   5.898   9.862 -0.3568  0.3130  0.1952
   69SLPC   H7X 5927   1.386   6.003   9.863 -0.1813  0.3696  0.6949
   69SLPC   H7Y 5928   1.336   5.828   9.850  0.4345 -0.3945 -1.6794
   69SLPC   C38 5929   1.525   5.876   9.750 -0.6767 -0.4982  0.1609
   69SLPC   H8X 5930   1.576   5.777   9.762 -0.1859 -0.4914 -1.6422
   69SLPC   H8Y 5931   1.600   5.958   9.743 -0.1929 -1.0224 -1.0611
   69SLPC   C39 5932   1.460   5.877   9.608  0.0756 -0.5423  0.3267
   69SLPC   H9X 5933   1.398   5.969   9.607  0.3554 -0.3124 -2.1723
   69SLPC   H9Y 5934   1.393   5.794   9.579 -1.0583  0.2796  0.5334
   69SLPC  C310 5935   1.556   5.904   9.494 -0.8212  0.6931  0.5775
   69SLPC  H10X 5936   1.626   5.818   9.487 -0.7791  0.7518  0.2935
   69SLPC  H10Y 5937   1.623   5.989   9.520 -1.4175  0.9277  1.3850
   69SLPC  C311 5938   1.489   5.938   9.364 -0.7567  0.0737  0.1997
   69SLPC  H11X 5939   1.441   6.038   9.369  3.0410  2.1268 -0.7290
   69SLPC  H11Y 5940   1.409   5.866   9.336 -0.7171  0.0584  0.1259
   69SLPC  C312 5941   1.592   5.932   9.248 -0.0039 -0.3988  0.4155
   69SLPC  H12X 5942   1.638   5.833   9.227  0.0021 -0.4657  0.7402
   69SLPC  H12Y 5943   1.678   5.999   9.269 -0.8145  1.0243 -0.6345
   69SLPC  C313 5944   1.532   6.000   9.124 -0.0369 -0.2486  0.2664
   69SLPC  H13X 5945   1.504   6.105   9.150 -1.5167 -0.9749  1.8080
   69SLPC  H13Y 5946   1.442   5.950   9.083 -1.7691  2.4003  0.5308
   69SLPC  C314 5947   1.636   5.999   9.015  0.0175  0.6597 -0.1856
   69SLPC  H14X 5948   1.648   5.903   8.961  0.6316  2.4138 -3.4155
   69SLPC  H14Y 5949   1.737   6.015   9.057  1.5106 -2.4636 -2.2458
   69SLPC  C315 5950   1.621   6.118   8.916  0.0216 -0.4003 -0.4274
   69SLPC  H15X 5951   1.711   6.108   8.851  0.8152 -0.2486  0.6268
   69SLPC  H15Y 5952   1.635   6.212   8.974  0.3080  0.2186 -1.4760
   69SLPC  C316 5953   1.498   6.128   8.830  1.2306  0.1973 -0.4877
   69SLPC  H16X 5954   1.425   6.156   8.910 -0.7066  0.3322 -2.2300
   69SLPC  H16Y 5955   1.455   6.029   8.807  0.7976  0.0482  0.8371
   69SLPC  C317 5956   1.507   6.244   8.733  0.1726  0.1634  0.1309
   69SLPC  H17X 5957   1.567   6.205   8.648 -1.4055 -2.0594 -0.0544
   69SLPC  H17Y 5958   1.565   6.326   8.780  0.6915  0.2886 -0.7097
   69SLPC  C318 5959   1.370   6.313   8.700 -0.6607  0.0223 -0.2572
   69SLPC  H18X 5960   1.378   6.395   8.626 -0.1107  1.5242  1.4144
   69SLPC  H18Y 5961   1.336   6.353   8.797  1.0022  1.3688 -0.1847
   69SLPC  H18Z 5962   1.290   6.247   8.660 -1.6132  1.4501 -0.7497
   70SLPC     N 5963   2.598   3.747  11.099  0.9352  0.1297  0.3945
   70SLPC   C13 5964   2.691   3.630  11.079 -0.3562 -0.0485 -0.1723
   70SLPC  H13A 5965   2.752   3.609  11.166 -2.5352 -0.6282  1.2855
   70SLPC  H13B 5966   2.636   3.544  11.046  0.8337 -1.0648  0.3993
   70SLPC  H13C 5967   2.759   3.661  11.001 -0.7234  1.3864  0.0453
   70SLPC   C14 5968   2.552   3.796  10.961 -0.3936  0.2333  0.2527
   70SLPC  H14A 5969   2.485   3.880  10.968  1.9150  2.3083 -1.0640
   70SLPC  H14B 5970   2.633   3.829  10.898 -1.8516  3.0475 -0.2770
   70SLPC  H14C 5971   2.506   3.710  10.915  3.3929 -1.6791 -0.3166
   70SLPC   C15 5972   2.668   3.862  11.163  0.6050  0.5544 -0.1345
   70SLPC  H15A 5973   2.719   3.827  11.252 -1.1172 -0.5267  0.4813
   70SLPC  H15B 5974   2.739   3.901  11.092 -0.3241  0.2226 -1.2848
   70SLPC  H15C 5975   2.597   3.938  11.193 -2.3184 -2.3147  0.8539
   70SLPC   C12 5976   2.488   3.696  11.186  0.0960 -0.4556 -0.2175
   70SLPC  H12A 5977   2.525   3.641  11.272  0.4689 -1.2570 -0.8816
   70SLPC  H12B 5978   2.425   3.630  11.128 -0.6866  1.1980 -1.3348
   70SLPC   C11 5979   2.381   3.804  11.236  0.1210  0.5775 -0.7869
   70SLPC  H11A 5980   2.436   3.881  11.295 -0.1585  0.4626 -0.3741
   70SLPC  H11B 5981   2.303   3.764  11.304 -3.0410  2.8975 -2.7996
   70SLPC     P 5982   2.302   4.018  11.117  0.1872 -0.2667  0.0437
   70SLPC   O13 5983   2.241   4.092  11.228  0.0548  0.1112  0.4838
   70SLPC   O14 5984   2.432   4.061  11.074 -0.4344 -0.3927 -0.1179
   70SLPC   O12 5985   2.304   3.863  11.131  0.2657 -0.0463 -0.1272
   70SLPC   O11 5986   2.191   4.022  11.007 -0.1082  0.1965  0.8893
   70SLPC    C1 5987   2.219   4.050  10.867  0.0742 -0.4249  0.2925
   70SLPC    HA 5988   2.126   4.095  10.824 -0.9356 -1.7790  0.9600
   70SLPC    HB 5989   2.304   4.121  10.865 -0.3005  0.1388  2.2040
   70SLPC    C2 5990   2.254   3.921  10.785 -0.8268 -0.2425 -0.2056
   70SLPC    HS 5991   2.284   3.848  10.864  1.2981  1.1559  0.3832
   70SLPC   O21 5992   2.373   3.951  10.709  0.1372 -0.0706 -0.2342
   70SLPC   C21 5993   2.421   3.831  10.651  0.3646 -0.6208  0.2961
   70SLPC   O22 5994   2.406   3.726  10.697 -0.4404  0.7264 -0.2300
   70SLPC   C22 5995   2.522   3.879  10.544 -0.3003  0.4535  0.0047
   70SLPC   H2R 5996   2.477   3.965  10.490 -0.5914  0.3652  0.1064
   70SLPC   H2S 5997   2.612   3.911  10.602  1.1140  1.4675 -2.6113
   70SLPC    C3 5998   2.138   3.865  10.694  0.1014  0.1040  0.3545
   70SLPC    HX 5999   2.058   3.842  10.768  0.4052  0.3467  0.7569
   70SLPC    HY 6000   2.163   3.768  10.647  0.1713  0.1833  0.2303
   70SLPC   O31 6001   2.092   3.963  10.598  0.1371 -0.1061  0.3492
   70SLPC   C31 6002   2.108   3.932  10.464 -0.2220  0.1929 -0.0879
   70SLPC   O32 6003   2.163   3.826  10.425  0.5187 -0.2982 -0.0910
   70SLPC   C32 6004   2.085   4.059  10.379  0.3855 -0.6451  1.1023
   70SLPC   H2X 6005   2.186   4.085  10.341 -0.0593 -1.4407 -0.7628
   70SLPC   H2Y 6006   2.039   4.126  10.455 -0.3834  0.8356 -0.5849
   70SLPC   C23 6007   2.580   3.766  10.452  0.0484 -0.3578  0.0216
   70SLPC   H3R 6008   2.622   3.679  10.506  3.3589  2.1203  1.7882
   70SLPC   H3S 6009   2.664   3.811  10.395  0.1682 -0.1023  0.4001
   70SLPC   C24 6010   2.480   3.723  10.343  0.4570  0.5951 -0.1098
   70SLPC   H4R 6011   2.395   3.673  10.394  2.1519 -2.4818 -0.0710
   70SLPC   H4S 6012   2.527   3.637  10.291 -0.4824 -1.6705  2.5354
   70SLPC   C25 6013   2.435   3.837  10.249 -0.2981 -0.3821 -0.1138
   70SLPC   H5R 6014   2.525   3.886  10.207 -0.7136 -1.6546 -2.6935
   70SLPC   H5S 6015   2.371   3.908  10.306 -0.7798 -1.3195  0.5454
   70SLPC   C26 6016   2.341   3.785  10.140 -0.1534  0.1686  0.3769
   70SLPC   H6R 6017   2.242   3.763  10.186 -1.1298  2.7600 -0.3087
   70SLPC   H6S 6018   2.386   3.691  10.102 -0.8513 -0.7985  1.8271
   70SLPC   C27 6019   2.328   3.894  10.025  0.1180  0.8545  0.4351
   70SLPC   H7R 6020   2.312   3.991  10.075  1.2065  1.0874  0.3453
   70SLPC   H7S 6021   2.242   3.878   9.956  0.3783 -0.4800  0.3790
   70SLPC   C28 6022   2.469   3.896   9.954  0.2398 -0.3240 -0.1199
   70SLPC   H8R 6023   2.488   3.808   9.889  1.6998  0.8333 -1.3180
   70SLPC   H8S 6024   2.554   3.911  10.023  0.1882  0.0022 -0.1235
   70SLPC   C29 6025   2.467   4.014   9.858 -0.3971  0.0369 -0.4985
   70SLPC   H9R 6026   2.415   4.105   9.891 -2.8285 -1.8409  1.1854
   70SLPC  C210 6027   2.514   4.002   9.727 -0.0727 -0.6471  0.1053
   70SLPC  H10R 6028   2.509   4.088   9.660  0.5610  1.9115  3.1199
   70SLPC  C211 6029   2.580   3.878   9.665  1.4295  0.5131 -0.0705
   70SLPC  H11R 6030   2.614   3.809   9.744 -0.3468 -1.4197 -0.9099
   70SLPC  H11S 6031   2.670   3.903   9.604  0.9796  0.4705 -0.7572
   70SLPC  C212 6032   2.474   3.812   9.568 -0.8883 -0.2337 -0.8170
   70SLPC  H12R 6033   2.423   3.724   9.609  0.0229  0.3654  1.8100
   70SLPC  C213 6034   2.449   3.837   9.439 -0.2054 -0.3729  0.0295
   70SLPC  H13R 6035   2.367   3.785   9.387  0.8234 -0.1717 -1.8991
   70SLPC  C214 6036   2.526   3.937   9.361 -0.8193  0.2231  0.0508
   70SLPC  H14R 6037   2.604   3.983   9.425 -1.2297 -1.4070  1.8250
   70SLPC  H14S 6038   2.457   4.021   9.339 -0.4253  1.0630  1.8510
   70SLPC  C215 6039   2.587   3.883   9.238  0.6803 -0.0892  0.2382
   70SLPC  H15R 6040   2.629   3.967   9.179 -3.9379  1.2321 -1.5826
   70SLPC  H15S 6041   2.508   3.842   9.172  0.3318 -0.2890  0.7689
   70SLPC  C216 6042   2.688   3.769   9.270  0.7596  0.0405 -0.2600
   70SLPC  H16R 6043   2.716   3.752   9.376 -0.3022  0.5045  0.1005
   70SLPC  H16S 6044   2.781   3.797   9.215 -0.3544 -0.7513 -2.6672
   70SLPC  C217 6045   2.644   3.633   9.201 -0.6667 -0.3047 -0.5609
   70SLPC  H17R 6046   2.635   3.649   9.091 -1.4931  2.8012 -0.1248
   70SLPC  H17S 6047   2.548   3.598   9.244  0.5335 -0.5447  2.1006
   70SLPC  C218 6048   2.747   3.519   9.224  0.6085  1.1714  0.2223
   70SLPC  H18R 6049   2.754   3.486   9.330 -0.4575  1.7678  0.4879
   70SLPC  H18S 6050   2.848   3.553   9.194 -0.4199  3.6227 -0.6858
   70SLPC  H18T 6051   2.709   3.434   9.164 -1.0433  1.3526  0.9514
   70SLPC   C33 6052   1.994   4.054  10.254 -0.8010 -0.3375  0.6116
   70SLPC   H3X 6053   1.901   4.004  10.285 -0.0309 -0.9773  1.9394
   70SLPC   H3Y 6054   2.039   3.991  10.175 -0.1220  0.8526  0.0085
   70SLPC   C34 6055   1.968   4.188  10.184  0.2875  0.1715 -0.5621
   70SLPC   H4X 6056   2.049   4.263  10.196  0.2797  0.2245 -0.8248
   70SLPC   H4Y 6057   1.882   4.224  10.244  0.7625 -2.1412  1.6635
   70SLPC   C35 6058   1.931   4.183  10.037 -0.5748 -0.3090  0.7700
   70SLPC   H5X 6059   1.906   4.287  10.008 -0.4900 -0.9485 -1.8373
   70SLPC   H5Y 6060   1.850   4.110  10.014  0.0842 -0.1810 -2.3715
   70SLPC   C36 6061   2.046   4.145   9.947 -0.3306  0.5517 -0.5973
   70SLPC   H6X 6062   2.045   4.035   9.961 -0.5072  0.7866  1.5649
   70SLPC   H6Y 6063   2.144   4.176   9.988 -1.9683  2.3044  2.3320
   70SLPC   C37 6064   2.020   4.187   9.806  0.0217 -0.3014  0.7391
   70SLPC   H7X 6065   2.008   4.296   9.793 -1.0766 -0.5010 -0.0375
   70SLPC   H7Y 6066   1.926   4.141   9.768  0.0723  2.3067 -3.0500
   70SLPC   C38 6067   2.123   4.135   9.702  0.2358  0.3085 -0.2525
   70SLPC   H8X 6068   2.148   4.029   9.722  0.3555  0.3882  0.0407
   70SLPC   H8Y 6069   2.203   4.195   9.751 -2.2846  0.0233  4.9343
   70SLPC   C39 6070   2.086   4.157   9.559 -0.6648 -1.1874 -0.3775
   70SLPC   H9X 6071   2.072   4.266   9.538 -0.3130 -1.2227 -0.8291
   70SLPC   H9Y 6072   1.985   4.112   9.555 -1.7324  1.1393 -2.5274
   70SLPC  C310 6073   2.177   4.102   9.450  0.2287 -0.4017  0.0190
   70SLPC  H10X 6074   2.198   3.995   9.470 -0.9485 -0.8237 -0.8928
   70SLPC  H10Y 6075   2.271   4.161   9.456 -0.6638  1.1267 -0.4993
   70SLPC  C311 6076   2.111   4.119   9.310 -0.0419  0.7373  0.5327
   70SLPC  H11X 6077   2.088   4.221   9.274  0.5101  0.0263 -2.0435
   70SLPC  H11Y 6078   2.017   4.061   9.317  0.8762 -1.1256 -1.2850
   70SLPC  C312 6079   2.194   4.045   9.203  0.7174  0.2045 -0.0798
   70SLPC  H12X 6080   2.229   3.948   9.246  0.9177  0.2917 -0.0438
   70SLPC  H12Y 6081   2.283   4.109   9.184 -0.3647  2.0430  0.7642
   70SLPC  C313 6082   2.123   4.004   9.074  0.5058 -0.0601  0.6062
   70SLPC  H13X 6083   2.076   4.091   9.025  0.6316 -0.2154  0.2080
   70SLPC  H13Y 6084   2.037   3.935   9.089 -1.7070  2.1709 -1.0891
   70SLPC  C314 6085   2.215   3.938   8.969 -0.1884 -0.3592 -0.2506
   70SLPC  H14X 6086   2.168   3.861   8.904  1.6974 -1.6702 -0.1407
   70SLPC  H14Y 6087   2.288   3.877   9.025 -0.7813 -0.6156  0.2586
   70SLPC  C315 6088   2.294   4.046   8.883 -0.2740 -0.6237  0.1693
   70SLPC  H15X 6089   2.373   4.090   8.947  0.1278 -0.4576 -0.4343
   70SLPC  H15Y 6090   2.232   4.132   8.853 -0.3530 -0.6550  0.2396
   70SLPC  C316 6091   2.360   3.995   8.758  0.4542 -0.1217  0.4400
   70SLPC  H16X 6092   2.435   3.916   8.779 -1.1098 -1.7750  0.0652
   70SLPC  H16Y 6093   2.423   4.071   8.707  1.6573 -1.6581 -0.4478
   70SLPC  C317 6094   2.262   3.955   8.657  0.2030 -0.4201  0.3231
   70SLPC  H17X 6095   2.183   4.032   8.645  0.1427 -0.4459  0.5611
   70SLPC  H17Y 6096   2.210   3.861   8.685 -1.9879  0.7535  0.4801
   70SLPC  C318 6097   2.317   3.937   8.514 -0.2186  0.3538 -0.0494
   70SLPC  H18X 6098   2.347   4.027   8.456 -0.3916 -0.4584 -1.4430
   70SLPC  H18Y 6099   2.240   3.886   8.452  0.0087  1.1844 -1.0306
   70SLPC  H18Z 6100   2.407   3.873   8.517 -0.8204 -0.7214 -2.5970
   71SLPC     N 6101   2.551   2.271  10.820 -0.7178 -0.4743  0.0785
   71SLPC   C13 6102   2.573   2.376  10.713 -0.5681 -0.0448 -0.1740
   71SLPC  H13A 6103   2.498   2.373  10.635 -0.4619 -2.5266 -0.2577
   71SLPC  H13B 6104   2.585   2.470  10.765 -1.4325 -0.2090  0.3398
   71SLPC  H13C 6105   2.668   2.360  10.665 -0.9131  0.9638 -1.2398
   71SLPC   C14 6106   2.412   2.295  10.874  0.4577 -0.2850 -0.1319
   71SLPC  H14A 6107   2.396   2.399  10.900 -0.6206 -0.4324 -0.1276
   71SLPC  H14B 6108   2.336   2.278  10.799 -0.1885  1.0606  0.1822
   71SLPC  H14C 6109   2.394   2.231  10.959  2.5806  0.5183  0.9756
   71SLPC   C15 6110   2.651   2.300  10.926  0.5875  0.8590  0.3926
   71SLPC  H15A 6111   2.630   2.396  10.969  0.7025  0.2905  1.7484
   71SLPC  H15B 6112   2.646   2.223  11.001 -0.6072 -2.8579 -3.0874
   71SLPC  H15C 6113   2.752   2.281  10.891  0.0608  1.6283 -1.7549
   71SLPC   C12 6114   2.573   2.137  10.754 -0.3994 -0.4559 -0.2123
   71SLPC  H12A 6115   2.665   2.142  10.697  1.0219  0.0416  2.0192
   71SLPC  H12B 6116   2.499   2.109  10.680 -1.4369 -0.4064  0.7889
   71SLPC   C11 6117   2.590   2.003  10.836 -0.1819  0.0193  0.0975
   71SLPC  H11A 6118   2.685   1.987  10.891  0.5268 -1.7690 -1.5030
   71SLPC  H11B 6119   2.600   1.922  10.760 -2.0727  2.0198 -2.5016
   71SLPC     P 6120   2.364   1.885  10.893 -0.2217  0.0416  0.1876
   71SLPC   O13 6121   2.404   1.750  10.943  0.4056 -0.5837 -0.6266
   71SLPC   O14 6122   2.234   1.932  10.945  0.8375  0.1849 -0.0860
   71SLPC   O12 6123   2.481   1.990  10.927  0.2376  0.8562  0.0375
   71SLPC   O11 6124   2.362   1.886  10.731  0.4297  0.0004  0.0709
   71SLPC    C1 6125   2.309   1.768  10.668 -0.2990 -0.2975  0.3074
   71SLPC    HA 6126   2.360   1.680  10.713  0.8416 -0.1321 -0.5928
   71SLPC    HB 6127   2.199   1.781  10.669 -0.2598  0.0266  1.3855
   71SLPC    C2 6128   2.333   1.761  10.515  0.8099 -0.1556 -0.4046
   71SLPC    HS 6129   2.443   1.753  10.496  0.4525 -0.2863 -2.6680
   71SLPC   O21 6130   2.282   1.880  10.450 -0.0108  0.5138 -0.4286
   71SLPC   C21 6131   2.360   1.983  10.463  0.0391 -0.7918  0.0248
   71SLPC   O22 6132   2.483   1.982  10.485  0.0355 -0.3863  0.5629
   71SLPC   C22 6133   2.282   2.110  10.414 -0.7220 -0.1036 -0.3863
   71SLPC   H2R 6134   2.191   2.078  10.359 -1.1002 -0.5596  0.4764
   71SLPC   H2S 6135   2.262   2.176  10.501  0.5677 -2.2508  1.6772
   71SLPC    C3 6136   2.280   1.628  10.451 -0.4808 -0.5565 -0.8803
   71SLPC    HX 6137   2.170   1.622  10.458 -0.4602  0.3625  0.5319
   71SLPC    HY 6138   2.315   1.540  10.509  0.0960  0.1929 -0.0621
   71SLPC   O31 6139   2.329   1.633  10.311  0.5666  0.5485  0.5581
   71SLPC   C31 6140   2.445   1.573  10.298 -0.5602 -0.5683  0.5778
   71SLPC   O32 6141   2.518   1.525  10.384  0.4595 -0.0563 -0.6014
   71SLPC   C32 6142   2.481   1.569  10.149  0.2637 -0.2491  0.4395
   71SLPC   H2X 6143   2.404   1.510  10.095 -0.3046 -1.0554  2.0945
   71SLPC   H2Y 6144   2.581   1.521  10.137  2.1560  3.4769 -0.5315
   71SLPC   C23 6145   2.382   2.185  10.320 -0.3181  0.4738  0.9322
   71SLPC   H3R 6146   2.480   2.207  10.367 -0.1531  2.4871 -0.2340
   71SLPC   H3S 6147   2.336   2.284  10.300 -2.7205 -0.8486 -0.5291
   71SLPC   C24 6148   2.396   2.113  10.182 -0.1123 -0.6442 -0.4182
   71SLPC   H4R 6149   2.431   2.009  10.196  1.2952 -0.2613 -0.9617
   71SLPC   H4S 6150   2.485   2.164  10.139 -0.1179  1.4797  1.8560
   71SLPC   C25 6151   2.276   2.119  10.089 -0.0587  0.7160  0.4794
   71SLPC   H5R 6152   2.255   2.222  10.052 -1.1147  0.5804  0.6703
   71SLPC   H5S 6153   2.182   2.101  10.145  0.1590 -3.2909 -0.1793
   71SLPC   C26 6154   2.289   2.023   9.972 -0.0958  0.2098  0.1071
   71SLPC   H6R 6155   2.189   2.010   9.925  0.7683 -1.2253 -1.4668
   71SLPC   H6S 6156   2.308   1.916   9.996 -2.8422 -0.6841 -1.2408
   71SLPC   C27 6157   2.384   2.080   9.865  0.0762  0.4109 -0.2312
   71SLPC   H7R 6158   2.436   1.998   9.811  1.7238  1.6440 -0.6082
   71SLPC   H7S 6159   2.469   2.138   9.908  0.2460  0.0241 -0.0415
   71SLPC   C28 6160   2.303   2.150   9.751 -0.1343  0.1369 -0.3357
   71SLPC   H8R 6161   2.228   2.204   9.813  0.9153  0.9059  0.2974
   71SLPC   H8S 6162   2.255   2.072   9.689  0.5486 -1.5612  1.1646
   71SLPC   C29 6163   2.381   2.249   9.674  0.9712  0.4262 -0.1182
   71SLPC   H9R 6164   2.411   2.336   9.735 -1.5044  1.7467 -0.6495
   71SLPC  C210 6165   2.407   2.258   9.543 -0.2963 -0.2801  0.3880
   71SLPC  H10R 6166   2.470   2.335   9.498  0.2796 -1.3674 -0.7305
   71SLPC  C211 6167   2.371   2.153   9.437  0.7123 -0.1200 -0.5869
   71SLPC  H11R 6168   2.315   2.069   9.483  2.5775 -1.1804 -0.1270
   71SLPC  H11S 6169   2.468   2.115   9.398  1.3940  1.6089 -0.6811
   71SLPC  C212 6170   2.285   2.222   9.332 -0.0342 -0.0349 -0.0868
   71SLPC  H12R 6171   2.178   2.229   9.356 -0.6316 -1.2791 -2.0462
   71SLPC  C213 6172   2.312   2.263   9.211 -0.6619  0.5876  0.6096
   71SLPC  H13R 6173   2.234   2.306   9.146  1.9901  1.4060 -2.2962
   71SLPC  C214 6174   2.446   2.254   9.144  0.0154  0.3038 -0.3785
   71SLPC  H14R 6175   2.522   2.219   9.217 -0.0372  2.3238  0.7012
   71SLPC  H14S 6176   2.489   2.348   9.104  1.4201 -0.3199 -0.3890
   71SLPC  C215 6177   2.445   2.153   9.021  0.3803 -0.0083  0.3250
   71SLPC  H15R 6178   2.385   2.061   9.039 -2.7769  2.0019  1.0533
   71SLPC  H15S 6179   2.547   2.126   8.988  0.7841 -0.4331  1.8221
   71SLPC  C216 6180   2.378   2.225   8.898 -0.3244  0.0590 -0.1294
   71SLPC  H16R 6181   2.430   2.322   8.893 -0.1576  0.0320  0.8200
   71SLPC  H16S 6182   2.280   2.257   8.940  1.7796  4.2648  2.1745
   71SLPC  C217 6183   2.354   2.141   8.772 -0.0113  0.6865  0.0442
   71SLPC  H17R 6184   2.263   2.161   8.711  0.1682  2.0213  0.1931
   71SLPC  H17S 6185   2.329   2.039   8.808 -0.3920  1.2810  1.5185
   71SLPC  C218 6186   2.491   2.130   8.684  0.1091  0.0557 -0.0079
   71SLPC  H18R 6187   2.475   2.067   8.594  2.0063 -1.4521  0.6427
   71SLPC  H18S 6188   2.567   2.080   8.748 -0.8550 -0.5281  0.7080
   71SLPC  H18T 6189   2.513   2.238   8.669 -2.4235  0.8070  1.0351
   71SLPC   C33 6190   2.491   1.719  10.094 -0.0598  0.1740 -0.5719
   71SLPC   H3X 6191   2.569   1.776  10.149 -0.8935  0.0233  0.8140
   71SLPC   H3Y 6192   2.394   1.764  10.122  0.2331 -0.0767  0.9437
   71SLPC   C34 6193   2.527   1.722   9.949 -0.1440  0.2133 -0.0764
   71SLPC   H4X 6194   2.620   1.666   9.924 -0.7829  0.1240 -2.4706
   71SLPC   H4Y 6195   2.541   1.826   9.912  0.7132 -0.0460 -0.5152
   71SLPC   C35 6196   2.419   1.666   9.852  0.2219  0.4178 -0.0605
   71SLPC   H5X 6197   2.318   1.705   9.876  0.4267  2.9785 -2.8108
   71SLPC   H5Y 6198   2.406   1.556   9.861  1.1042  0.2591 -0.5139
   71SLPC   C36 6199   2.453   1.706   9.703 -0.7716  0.1564 -0.1870
   71SLPC   H6X 6200   2.559   1.674   9.691 -1.2117 -1.3355 -0.2952
   71SLPC   H6Y 6201   2.446   1.815   9.685 -1.5496  0.1333 -0.0700
   71SLPC   C37 6202   2.361   1.630   9.617 -0.0952 -0.9873  0.4320
   71SLPC   H7X 6203   2.258   1.666   9.638  0.3623  1.3019 -0.9013
   71SLPC   H7Y 6204   2.371   1.521   9.639 -1.7300 -1.8721 -2.6277
   71SLPC   C38 6205   2.397   1.638   9.466  0.3284 -0.4485  0.6136
   71SLPC   H8X 6206   2.324   1.569   9.418 -0.9546  0.4987  1.1490
   71SLPC   H8Y 6207   2.501   1.600   9.458  1.2193  1.9751 -0.1952
   71SLPC   C39 6208   2.374   1.771   9.411 -0.0055  0.1609 -0.0491
   71SLPC   H9X 6209   2.432   1.848   9.467 -1.4972 -0.0466  1.9095
   71SLPC   H9Y 6210   2.272   1.803   9.442  0.4470  0.0784  1.6719
   71SLPC  C310 6211   2.389   1.769   9.259 -0.6673 -0.4344 -0.5104
   71SLPC  H10X 6212   2.373   1.875   9.232  1.6894 -0.5380 -2.6778
   71SLPC  H10Y 6213   2.303   1.710   9.221 -0.9271 -0.3186 -0.1058
   71SLPC  C311 6214   2.530   1.725   9.217  0.0366 -0.5546 -0.8745
   71SLPC  H11X 6215   2.532   1.615   9.236  2.8894 -0.1799  1.8205
   71SLPC  H11Y 6216   2.599   1.775   9.288  0.6915  0.0302 -1.9041
   71SLPC  C312 6217   2.560   1.773   9.077  0.2651 -0.1572  0.4705
   71SLPC  H12X 6218   2.671   1.778   9.069  0.1546  1.3390 -0.5028
   71SLPC  H12Y 6219   2.525   1.876   9.056  2.5370  0.7637  0.8196
   71SLPC  C313 6220   2.510   1.678   8.965 -0.1471 -0.3178  0.2801
   71SLPC  H13X 6221   2.518   1.744   8.876  0.3893  1.5455  1.6373
   71SLPC  H13Y 6222   2.402   1.652   8.970  0.0676 -1.1423  0.7608
   71SLPC  C314 6223   2.577   1.548   8.938  0.4279 -0.2684 -0.7365
   71SLPC  H14X 6224   2.503   1.480   8.985 -1.2114  0.3078 -2.3687
   71SLPC  H14Y 6225   2.668   1.547   9.003 -1.8885 -1.5353  2.7998
   71SLPC  C315 6226   2.592   1.505   8.795 -0.2085 -0.4117 -0.5459
   71SLPC  H15X 6227   2.654   1.577   8.737 -1.3157  0.5280 -0.6015
   71SLPC  H15Y 6228   2.493   1.521   8.749  0.5753  0.0002 -2.1673
   71SLPC  C316 6229   2.638   1.364   8.771  0.0481  0.2072 -0.7334
   71SLPC  H16X 6230   2.576   1.304   8.841  1.2004 -0.4469 -0.2465
   71SLPC  H16Y 6231   2.744   1.351   8.802 -0.7720  1.0461  2.8876
   71SLPC  C317 6232   2.615   1.307   8.630  0.1975 -0.3540  0.2062
   71SLPC  H17X 6233   2.642   1.386   8.556  0.1725 -1.7853 -1.3837
   71SLPC  H17Y 6234   2.506   1.295   8.616  0.5101 -1.1969 -1.8294
   71SLPC  C318 6235   2.683   1.176   8.604 -0.3845  0.0183 -0.1365
   71SLPC  H18X 6236   2.661   1.100   8.682 -1.0468  0.1765 -0.1697
   71SLPC  H18Y 6237   2.792   1.195   8.591 -0.2585 -0.7105 -0.1819
   71SLPC  H18Z 6238   2.644   1.137   8.508 -0.4746  1.7604 -0.8560
   72SLPC     N 6239   2.626   0.635  11.041  0.6969 -0.0923 -0.5361
   72SLPC   C13 6240   2.637   0.542  10.924  0.6409  0.1072 -0.1642
   72SLPC  H13A 6241   2.694   0.590  10.845 -1.0287 -0.1171 -1.5480
   72SLPC  H13B 6242   2.695   0.456  10.954  0.6035  0.2326  0.2601
   72SLPC  H13C 6243   2.538   0.525  10.885  0.8395  0.9755 -1.0980
   72SLPC   C14 6244   2.762   0.655  11.084 -0.2809 -0.9105 -0.0951
   72SLPC  H14A 6245   2.829   0.692  11.007 -0.0029  0.0011  0.5539
   72SLPC  H14B 6246   2.769   0.723  11.168 -2.3786  0.3781 -0.9025
   72SLPC  H14C 6247   2.794   0.561  11.126  1.6668 -0.3726 -0.2569
   72SLPC   C15 6248   2.538   0.577  11.150 -0.2380 -0.3594  0.1873
   72SLPC  H15A 6249   2.573   0.476  11.166 -0.0011 -0.3493 -0.2370
   72SLPC  H15B 6250   2.555   0.638  11.238  1.5286 -0.3668 -0.0965
   72SLPC  H15C 6251   2.435   0.575  11.119  0.0886 -1.8710 -0.9596
   72SLPC   C12 6252   2.571   0.772  10.993 -0.3080 -0.1682 -0.5963
   72SLPC  H12A 6253   2.642   0.808  10.919  0.0685 -1.4465 -0.8887
   72SLPC  H12B 6254   2.560   0.830  11.083 -1.0616 -1.8160  0.4288
   72SLPC   C11 6255   2.437   0.759  10.916 -0.4720  0.0638 -0.7714
   72SLPC  H11A 6256   2.438   0.689  10.830 -1.9837 -1.8848  0.6761
   72SLPC  H11B 6257   2.421   0.863  10.882 -3.0382 -0.2513 -0.7028
   72SLPC     P 6258   2.197   0.637  10.956  0.1988  0.0981 -0.1033
   72SLPC   O13 6259   2.245   0.497  10.942  0.0528  0.0947 -0.3476
   72SLPC   O14 6260   2.085   0.669  11.047 -0.0077 -0.1251  0.6371
   72SLPC   O12 6261   2.323   0.727  10.995  0.2264  0.2391 -0.1912
   72SLPC   O11 6262   2.173   0.690  10.814 -0.0993 -0.0485 -0.2899
   72SLPC    C1 6263   2.051   0.668  10.741  0.0587  0.5154 -0.9527
   72SLPC    HA 6264   1.994   0.581  10.780 -0.8673  2.0991  1.3795
   72SLPC    HB 6265   1.980   0.753  10.749  0.7046  1.1496 -1.7689
   72SLPC    C2 6266   2.087   0.659  10.594  0.8255  0.2862  0.7222
   72SLPC    HS 6267   1.991   0.670  10.539 -0.0901 -1.7230  1.8325
   72SLPC   O21 6268   2.155   0.535  10.573  0.3600  0.4512 -0.3912
   72SLPC   C21 6269   2.071   0.432  10.537  0.0173 -0.3068 -0.3657
   72SLPC   O22 6270   1.956   0.457  10.509  0.4444  0.2828 -0.1338
   72SLPC   C22 6271   2.152   0.300  10.524 -0.1033  0.4653  0.3389
   72SLPC   H2R 6272   2.201   0.279  10.621  1.4193  0.9541 -0.2994
   72SLPC   H2S 6273   2.086   0.218  10.491  1.7983 -0.0332 -2.5467
   72SLPC    C3 6274   2.184   0.778  10.562  0.3145  0.1014  0.1640
   72SLPC    HX 6275   2.283   0.759  10.608 -0.0858 -2.6242  0.0642
   72SLPC    HY 6276   2.149   0.872  10.610 -1.5902 -0.5659  0.1783
   72SLPC   O31 6277   2.188   0.810  10.422 -0.2927 -0.0922 -0.1421
   72SLPC   C31 6278   2.261   0.746  10.342 -0.0539  0.6393  0.6066
   72SLPC   O32 6279   2.354   0.670  10.366  0.3941  0.4964  0.0895
   72SLPC   C32 6280   2.223   0.779  10.195  0.6446 -0.2508  0.0372
   72SLPC   H2X 6281   2.176   0.690  10.148  0.0101  0.9533 -1.7140
   72SLPC   H2Y 6282   2.319   0.793  10.141  0.2389 -0.7401 -0.8318
   72SLPC   C23 6283   2.258   0.320  10.409  0.6899  0.0215 -0.6677
   72SLPC   H3R 6284   2.322   0.230  10.407 -1.5036 -1.6068 -1.5912
   72SLPC   H3S 6285   2.319   0.406  10.444 -0.2590  0.6516 -0.5345
   72SLPC   C24 6286   2.203   0.339  10.265  0.6347 -0.2911 -0.1021
   72SLPC   H4R 6287   2.149   0.437  10.261  0.8633 -0.1874 -0.6042
   72SLPC   H4S 6288   2.132   0.263  10.226  0.8729  0.2416 -1.6351
   72SLPC   C25 6289   2.323   0.357  10.169  0.4177  0.5645 -0.4369
   72SLPC   H5R 6290   2.371   0.258  10.182  0.7956  1.0959  3.2746
   72SLPC   H5S 6291   2.391   0.436  10.207 -2.3335  1.4412  3.1918
   72SLPC   C26 6292   2.279   0.400  10.025 -0.2397  0.6783  0.0621
   72SLPC   H6R 6293   2.229   0.499  10.031 -0.2755  0.6010  1.3945
   72SLPC   H6S 6294   2.204   0.325   9.992  1.9516 -2.4576  1.6929
   72SLPC   C27 6295   2.393   0.420   9.927  0.7204 -0.4272 -0.7044
   72SLPC   H7R 6296   2.439   0.321   9.907 -0.8214 -0.7801 -2.9539
   72SLPC   H7S 6297   2.470   0.488   9.970  0.2321  0.9391 -1.8969
   72SLPC   C28 6298   2.346   0.469   9.789  0.0942 -0.1115  0.4008
   72SLPC   H8R 6299   2.270   0.397   9.750 -0.0748  0.1188  0.3002
   72SLPC   H8S 6300   2.432   0.437   9.726 -0.2329  2.4216 -1.4889
   72SLPC   C29 6301   2.301   0.606   9.767  0.0361 -0.6262  0.3850
   72SLPC   H9R 6302   2.213   0.645   9.822 -0.9833  0.2563 -1.7443
   72SLPC  C210 6303   2.349   0.683   9.666  0.2518  0.2175  0.0060
   72SLPC  H10R 6304   2.297   0.778   9.648  0.7523  0.3190 -0.9142
   72SLPC  C211 6305   2.450   0.644   9.558 -0.0795 -0.5194  0.3453
   72SLPC  H11R 6306   2.410   0.559   9.498 -0.5252 -0.7242  0.9223
   72SLPC  H11S 6307   2.538   0.602   9.611  0.1165 -0.3063  0.1876
   72SLPC  C212 6308   2.505   0.749   9.473 -0.0999  0.1146 -0.3831
   72SLPC  H12R 6309   2.608   0.776   9.501 -0.4931 -0.0500  1.3181
   72SLPC  C213 6310   2.443   0.823   9.376  0.4722  0.8091 -0.5178
   72SLPC  H13R 6311   2.501   0.900   9.322  0.9139  0.4667 -0.5436
   72SLPC  C214 6312   2.298   0.818   9.330  0.5451 -0.0145  0.5051
   72SLPC  H14R 6313   2.228   0.838   9.413 -0.1104  0.5851 -0.1786
   72SLPC  H14S 6314   2.271   0.719   9.286 -2.5485  0.7141  0.5685
   72SLPC  C215 6315   2.260   0.932   9.230  0.2941  0.1528  0.1353
   72SLPC  H15R 6316   2.333   0.930   9.146  1.9623 -0.1152  1.5146
   72SLPC  H15S 6317   2.265   1.030   9.283 -0.3587 -1.2438  2.9161
   72SLPC  C216 6318   2.117   0.904   9.184 -0.3830  0.1432  0.3505
   72SLPC  H16R 6319   2.051   0.902   9.274 -0.6031 -0.1000  0.1867
   72SLPC  H16S 6320   2.104   0.808   9.130 -3.9613  1.2458 -1.0837
   72SLPC  C217 6321   2.062   1.009   9.091  0.0614 -0.2201 -0.0179
   72SLPC  H17R 6322   2.115   1.017   8.993  0.7391 -0.4980  0.3183
   72SLPC  H17S 6323   2.093   1.106   9.135  1.2052 -0.7442  0.3892
   72SLPC  C218 6324   1.909   0.989   9.066 -0.5023 -0.1382  0.0643
   72SLPC  H18R 6325   1.855   1.017   9.160 -0.8093  3.6627 -1.0769
   72SLPC  H18S 6326   1.882   0.890   9.025 -1.3011 -1.0392  2.5475
   72SLPC  H18T 6327   1.883   1.068   8.992 -2.2732 -0.9560 -0.2469
   72SLPC   C33 6328   2.123   0.901  10.180  0.2113 -0.1823  0.0101
   72SLPC   H3X 6329   2.166   0.988  10.235 -1.4782  0.4553  0.3822
   72SLPC   H3Y 6330   2.023   0.898  10.229  0.0752  2.9054  0.1263
   72SLPC   C34 6331   2.101   0.942  10.036 -0.4939  0.1968  0.3280
   72SLPC   H4X 6332   2.201   0.939   9.987 -0.4612  0.3621  0.3855
   72SLPC   H4Y 6333   2.062   1.045  10.031 -0.1494  0.4266  1.7919
   72SLPC   C35 6334   2.014   0.834   9.955  0.3282  0.3794  0.3518
   72SLPC   H5X 6335   1.908   0.823   9.986  0.0585  1.8233  0.0409
   72SLPC   H5Y 6336   2.063   0.736   9.974 -0.4854 -0.2268 -0.5849
   72SLPC   C36 6337   1.997   0.860   9.803  0.7064  0.2915  0.0746
   72SLPC   H6X 6338   2.098   0.875   9.759  0.0957  0.8058 -1.2186
   72SLPC   H6Y 6339   1.939   0.954   9.790 -0.6342 -0.3953  0.8384
   72SLPC   C37 6340   1.925   0.750   9.725 -0.1052  0.4220  0.0458
   72SLPC   H7X 6341   1.819   0.731   9.749  0.0462 -1.3823 -0.5577
   72SLPC   H7Y 6342   1.964   0.651   9.755 -1.1558 -0.3089 -0.9336
   72SLPC   C38 6343   1.936   0.771   9.576 -0.0193 -0.0812 -0.1505
   72SLPC   H8X 6344   2.042   0.798   9.554  0.5706 -2.4861 -0.4635
   72SLPC   H8Y 6345   1.866   0.849   9.539  1.2549  1.4032  0.4189
   72SLPC   C39 6346   1.906   0.641   9.502  0.3268 -0.1389  0.7801
   72SLPC   H9X 6347   1.800   0.608   9.509  0.3063 -0.3084 -0.1221
   72SLPC   H9Y 6348   1.967   0.555   9.536 -0.3778 -1.3495 -0.8249
   72SLPC  C310 6349   1.918   0.649   9.347 -0.1341  0.1553  0.3762
   72SLPC  H10X 6350   2.025   0.672   9.329 -0.0905  2.0798  2.7321
   72SLPC  H10Y 6351   1.862   0.736   9.307 -0.0653  0.2580  0.5055
   72SLPC  C311 6352   1.876   0.525   9.266 -1.3069  0.3654  0.4902
   72SLPC  H11X 6353   1.771   0.500   9.290 -1.5059 -1.0620 -1.5919
   72SLPC  H11Y 6354   1.934   0.440   9.307 -0.0187  1.5881  1.2844
   72SLPC  C312 6355   1.904   0.533   9.115  0.7823 -0.0576  0.3747
   72SLPC  H12X 6356   2.013   0.542   9.095  1.4926 -1.8464  2.9072
   72SLPC  H12Y 6357   1.847   0.616   9.069 -0.4821 -0.4753  1.1574
   72SLPC  C313 6358   1.868   0.396   9.047 -0.5021 -0.0167  0.1930
   72SLPC  H13X 6359   1.761   0.373   9.069 -1.1220  1.0764 -1.4691
   72SLPC  H13Y 6360   1.929   0.315   9.092  1.2171  0.3745 -1.2981
   72SLPC  C314 6361   1.904   0.393   8.897 -0.2673  0.0988 -0.4127
   72SLPC  H14X 6362   2.013   0.408   8.880  0.3257 -0.2352  2.4743
   72SLPC  H14Y 6363   1.867   0.487   8.850  0.6456  0.2496 -0.8419
   72SLPC  C315 6364   1.839   0.274   8.822 -0.7375  0.5944  0.1832
   72SLPC  H15X 6365   1.734   0.253   8.851 -0.2745 -1.1991  0.6960
   72SLPC  H15Y 6366   1.903   0.184   8.833  1.3964  2.1129  0.7621
   72SLPC  C316 6367   1.836   0.300   8.672 -0.3030 -0.1804  0.6356
   72SLPC  H16X 6368   1.940   0.301   8.631 -0.8595  1.0536 -0.8698
   72SLPC  H16Y 6369   1.797   0.402   8.648  0.2936 -0.4407 -1.7247
   72SLPC  C317 6370   1.757   0.203   8.579  0.3860  0.2644 -0.9044
   72SLPC  H17X 6371   1.652   0.191   8.613  0.6041 -2.4427 -0.9655
   72SLPC  H17Y 6372   1.801   0.101   8.581  0.1683  0.1640 -1.1446
   72SLPC  C318 6373   1.763   0.255   8.434 -0.0033 -0.3988  0.6632
   72SLPC  H18X 6374   1.711   0.352   8.423  1.7769  0.6465  1.1239
   72SLPC  H18Y 6375   1.723   0.185   8.357  1.8810 -0.3450 -0.4279
   72SLPC  H18Z 6376   1.872   0.265   8.420 -0.0657  2.3563  1.5127
   73SLPC     N 6377   3.539   4.935  10.960 -0.1313 -0.4389  0.1811
   73SLPC   C13 6378   3.566   4.913  10.818 -0.7720 -0.4318  0.0853
   73SLPC  H13A 6379   3.473   4.915  10.763 -1.3436  2.1903  1.0183
   73SLPC  H13B 6380   3.633   4.988  10.779 -0.6422  0.3844  1.7789
   73SLPC  H13C 6381   3.627   4.824  10.817 -2.9069 -2.0060  0.6216
   73SLPC   C14 6382   3.671   4.922  11.035 -0.2116  0.3815 -0.1534
   73SLPC  H14A 6383   3.740   4.996  10.998  0.8593 -0.3460  0.3336
   73SLPC  H14B 6384   3.644   4.946  11.137  0.6679  1.3303 -0.1245
   73SLPC  H14C 6385   3.698   4.818  11.029 -2.8826 -0.3172 -1.7206
   73SLPC   C15 6386   3.448   4.823  11.002 -0.4067 -0.2572 -0.4769
   73SLPC  H15A 6387   3.466   4.730  10.951  0.5038 -0.5810  0.3953
   73SLPC  H15B 6388   3.444   4.810  11.109 -4.5608 -3.4642 -0.7935
   73SLPC  H15C 6389   3.347   4.855  10.983 -1.1831 -0.9956  2.0505
   73SLPC   C12 6390   3.471   5.068  10.982 -0.4929 -0.2573  0.6919
   73SLPC  H12A 6391   3.538   5.149  10.956  0.7931 -1.4837  0.0569
   73SLPC  H12B 6392   3.455   5.081  11.088  1.2835  0.8433  0.8681
   73SLPC   C11 6393   3.346   5.102  10.906  0.0758 -0.0658 -0.9107
   73SLPC  H11A 6394   3.357   5.076  10.799 -2.4333  0.2788 -1.3228
   73SLPC  H11B 6395   3.328   5.212  10.897 -2.1718 -0.1749  1.2190
   73SLPC     P 6396   3.163   5.079  11.091  0.1044 -0.5514  0.0494
   73SLPC   O13 6397   3.041   4.992  11.122 -0.7011 -0.7388  0.2957
   73SLPC   O14 6398   3.272   5.099  11.191 -0.1029 -0.2230 -0.5245
   73SLPC   O12 6399   3.229   5.033  10.953 -0.0620  0.8161 -0.1262
   73SLPC   O11 6400   3.104   5.226  11.049 -0.6897 -0.3062  0.2417
   73SLPC    C1 6401   2.986   5.225  10.970 -0.4840  0.2394 -0.3809
   73SLPC    HA 6402   2.953   5.123  10.943 -0.5984 -0.7235  2.9896
   73SLPC    HB 6403   2.905   5.265  11.034  1.3441  1.0112  1.5537
   73SLPC    C2 6404   2.989   5.310  10.838 -0.3499  0.3120  0.6786
   73SLPC    HS 6405   2.885   5.330  10.804  0.0441  0.8881 -0.2191
   73SLPC   O21 6406   3.049   5.241  10.734 -0.2627  0.0521 -1.0063
   73SLPC   C21 6407   2.992   5.132  10.687 -0.1573  0.0749  0.4823
   73SLPC   O22 6408   2.886   5.093  10.723  0.1995  0.2233 -0.1961
   73SLPC   C22 6409   3.076   5.082  10.569 -0.2918 -0.1868 -0.4047
   73SLPC   H2R 6410   3.176   5.128  10.582  0.1091  0.4567 -4.3873
   73SLPC   H2S 6411   3.094   4.973  10.566  0.1463 -0.1271 -0.1108
   73SLPC    C3 6412   3.067   5.438  10.848 -0.0683 -0.7958 -0.2131
   73SLPC    HX 6413   3.171   5.404  10.868  0.8383  1.6486 -0.4716
   73SLPC    HY 6414   3.026   5.485  10.940 -1.0502 -1.6967 -0.1730
   73SLPC   O31 6415   3.063   5.526  10.733  0.0069  0.0177 -0.0363
   73SLPC   C31 6416   2.946   5.601  10.722  0.2215  0.3622  0.4289
   73SLPC   O32 6417   2.852   5.584  10.800  0.5478  0.3875  1.0362
   73SLPC   C32 6418   2.961   5.709  10.623 -1.1373  0.2164 -0.7281
   73SLPC   H2X 6419   3.056   5.693  10.566 -0.0299 -1.3380  1.4115
   73SLPC   H2Y 6420   2.971   5.805  10.678 -1.0165  0.3327 -0.9516
   73SLPC   C23 6421   3.018   5.143  10.438  0.1361 -0.0924  0.6617
   73SLPC   H3R 6422   3.088   5.127  10.354 -0.7180 -1.2773  0.1568
   73SLPC   H3S 6423   2.991   5.251  10.449  1.0732  0.0235  2.1532
   73SLPC   C24 6424   2.888   5.068  10.396 -0.2854  0.3882 -0.6289
   73SLPC   H4R 6425   2.801   5.084  10.463  0.7904  0.3729  0.8233
   73SLPC   H4S 6426   2.908   4.960  10.410 -0.9840  0.5279  1.7174
   73SLPC   C25 6427   2.839   5.095  10.255  0.5575 -0.8722  0.7085
   73SLPC   H5R 6428   2.929   5.096  10.190  0.3349  0.7757  0.3766
   73SLPC   H5S 6429   2.801   5.199  10.245 -1.9092 -1.6339  1.5921
   73SLPC   C26 6430   2.735   4.995  10.208 -0.5572 -0.0689  0.0502
   73SLPC   H6R 6431   2.654   4.998  10.284 -1.5113  4.0071 -0.9112
   73SLPC   H6S 6432   2.782   4.894  10.209  1.3648  0.7726  1.1132
   73SLPC   C27 6433   2.680   5.022  10.066 -0.1229  0.3303 -0.0121
   73SLPC   H7R 6434   2.643   5.125  10.051  0.1711  0.2054 -1.8006
   73SLPC   H7S 6435   2.595   4.952  10.049 -1.0124  1.2951  0.3744
   73SLPC   C28 6436   2.784   4.993   9.952  0.8684 -0.1838 -0.3261
   73SLPC   H8R 6437   2.827   4.891   9.963  0.8312 -0.0641  1.1267
   73SLPC   H8S 6438   2.866   5.067   9.962 -1.8621  3.4557 -2.3870
   73SLPC   C29 6439   2.713   5.013   9.817 -0.5912  0.0216  0.0965
   73SLPC   H9R 6440   2.656   4.930   9.772 -1.2642  0.9608 -0.8287
   73SLPC  C210 6441   2.725   5.121   9.743  0.3022 -0.4659  0.4022
   73SLPC  H10R 6442   2.689   5.123   9.639  0.4951 -1.4394  0.3064
   73SLPC  C211 6443   2.807   5.239   9.780 -0.1649 -0.1019 -0.0058
   73SLPC  H11R 6444   2.807   5.251   9.891 -1.0646  1.5663 -0.1590
   73SLPC  H11S 6445   2.746   5.325   9.746  0.0273 -0.0386 -0.1973
   73SLPC  C212 6446   2.950   5.241   9.733 -0.3865 -0.2181  0.0859
   73SLPC  H12R 6447   3.023   5.215   9.812 -0.0088 -0.0448 -0.2059
   73SLPC  C213 6448   2.997   5.266   9.608 -0.1912  0.0038 -0.1451
   73SLPC  H13R 6449   3.104   5.245   9.595 -0.6157 -2.4208 -0.1186
   73SLPC  C214 6450   2.906   5.299   9.491  0.2117 -0.0636 -0.4810
   73SLPC  H14R 6451   2.933   5.399   9.450 -0.5558 -0.2343 -1.4545
   73SLPC  H14S 6452   2.798   5.307   9.516  0.1196  0.5292 -1.0334
   73SLPC  C215 6453   2.924   5.187   9.384  0.7425  0.0031 -0.1036
   73SLPC  H15R 6454   2.824   5.179   9.336 -0.7920 -1.3356  3.0684
   73SLPC  H15S 6455   2.932   5.091   9.439 -1.2229 -1.5792 -2.3779
   73SLPC  C216 6456   3.035   5.215   9.293 -0.4288  0.0717  0.9073
   73SLPC  H16R 6457   3.143   5.225   9.318  0.0518 -0.0316 -0.9870
   73SLPC  H16S 6458   3.017   5.305   9.232  1.3201 -0.0116  0.2039
   73SLPC  C217 6459   3.048   5.098   9.187 -0.3406  0.3085  0.1562
   73SLPC  H17R 6460   2.961   5.030   9.196 -0.0630  0.2879  3.9464
   73SLPC  H17S 6461   3.134   5.031   9.206 -2.6613 -3.2256 -0.7705
   73SLPC  C218 6462   3.065   5.142   9.042 -0.2043 -0.0240 -0.1052
   73SLPC  H18R 6463   3.139   5.224   9.031  1.8496 -2.0749 -3.2028
   73SLPC  H18S 6464   2.967   5.172   8.997  0.8034  0.9526 -1.7450
   73SLPC  H18T 6465   3.103   5.067   8.969 -1.9848  0.1677 -1.3204
   73SLPC   C33 6466   2.833   5.713  10.534 -0.1393  0.2727 -0.3959
   73SLPC   H3X 6467   2.814   5.815  10.496  0.6534  1.9279  3.2297
   73SLPC   H3Y 6468   2.746   5.682  10.597 -1.6030  0.0807 -2.4051
   73SLPC   C34 6469   2.848   5.617  10.422 -0.0803 -0.6515 -0.4004
   73SLPC   H4X 6470   2.853   5.512  10.459  1.0104 -0.2673  0.5914
   73SLPC   H4Y 6471   2.953   5.636  10.392  0.6881  0.8506  2.8103
   73SLPC   C35 6472   2.744   5.635  10.305 -0.2068  0.2465 -0.5157
   73SLPC   H5X 6473   2.771   5.730  10.254 -0.5127  0.8830  0.4684
   73SLPC   H5Y 6474   2.639   5.659  10.335 -0.2066 -1.3153  0.9224
   73SLPC   C36 6475   2.764   5.522  10.194 -0.2770 -0.3865 -0.2253
   73SLPC   H6X 6476   2.726   5.432  10.246  2.5289 -0.8271  1.2658
   73SLPC   H6Y 6477   2.875   5.522  10.186 -0.3419  1.3716 -2.2787
   73SLPC   C37 6478   2.708   5.553  10.052 -0.5378  0.5205  0.3151
   73SLPC   H7X 6479   2.746   5.471   9.987  0.3402  1.0268  0.1828
   73SLPC   H7Y 6480   2.747   5.643  10.000  0.9887 -0.2495  0.0695
   73SLPC   C38 6481   2.555   5.553  10.054  0.1145 -0.6675 -0.2810
   73SLPC   H8X 6482   2.518   5.627  10.128  2.9601 -0.3363  0.9584
   73SLPC   H8Y 6483   2.532   5.450  10.088  1.4419 -1.8166 -2.5937
   73SLPC   C39 6484   2.491   5.599   9.919 -0.4764  0.5314  0.3348
   73SLPC   H9X 6485   2.512   5.708   9.915  1.5892  0.2096  1.2009
   73SLPC   H9Y 6486   2.381   5.589   9.931 -0.8153  1.7212 -1.4409
   73SLPC  C310 6487   2.549   5.534   9.791  0.1843  0.0602  0.2167
   73SLPC  H10X 6488   2.554   5.423   9.799 -0.8577  0.0315  0.6117
   73SLPC  H10Y 6489   2.656   5.563   9.794  0.4367 -0.8614  0.5903
   73SLPC  C311 6490   2.466   5.575   9.665 -0.4140  0.4806  0.2515
   73SLPC  H11X 6491   2.467   5.686   9.658 -0.0849  0.4730  0.1708
   73SLPC  H11Y 6492   2.357   5.555   9.668 -0.5162  0.8980 -0.4516
   73SLPC  C312 6493   2.515   5.512   9.531 -0.2401  0.5866 -0.4239
   73SLPC  H12X 6494   2.511   5.402   9.543 -3.2690  0.5065 -1.4252
   73SLPC  H12Y 6495   2.617   5.552   9.513  0.1667  1.0744  2.4047
   73SLPC  C313 6496   2.433   5.546   9.406 -0.1682  0.7141  0.4083
   73SLPC  H13X 6497   2.325   5.524   9.418  0.1432 -1.0286  0.3556
   73SLPC  H13Y 6498   2.459   5.474   9.326  0.6696  2.2650 -0.7582
   73SLPC  C314 6499   2.462   5.691   9.361 -0.1523 -0.0841 -0.4271
   73SLPC  H14X 6500   2.565   5.703   9.322  0.0421 -0.4388 -0.0210
   73SLPC  H14Y 6501   2.440   5.751   9.452  0.9573 -0.1522 -0.1067
   73SLPC  C315 6502   2.362   5.741   9.249  0.1753 -0.4774 -0.6834
   73SLPC  H15X 6503   2.350   5.852   9.252 -1.0766 -0.6129  0.5448
   73SLPC  H15Y 6504   2.258   5.705   9.269 -0.0055  0.7840  0.8228
   73SLPC  C316 6505   2.408   5.714   9.103  0.1264  0.9935  0.0885
   73SLPC  H16X 6506   2.507   5.765   9.096  1.6020 -1.2288  2.6156
   73SLPC  H16Y 6507   2.343   5.768   9.031 -0.1927  0.9682  0.3552
   73SLPC  C317 6508   2.439   5.561   9.072  0.2568  0.0358 -0.1093
   73SLPC  H17X 6509   2.352   5.508   9.117 -0.8310  1.8652  0.0860
   73SLPC  H17Y 6510   2.526   5.539   9.137  1.4017  0.9407 -1.2796
   73SLPC  C318 6511   2.459   5.526   8.925  0.8084 -0.1740 -0.4223
   73SLPC  H18X 6512   2.372   5.536   8.857  2.0506 -0.1605 -2.0867
   73SLPC  H18Y 6513   2.483   5.417   8.916 -0.7987 -0.3987 -3.4541
   73SLPC  H18Z 6514   2.547   5.573   8.875  0.5164  0.6146 -0.1995
   74SLPC     N 6515   3.947   0.943  11.054 -0.0971  0.1647  0.0970
   74SLPC   C13 6516   3.838   0.833  11.052 -0.4526  0.3559  0.2771
   74SLPC  H13A 6517   3.777   0.857  10.967  1.8085 -1.4481 -1.9899
   74SLPC  H13B 6518   3.886   0.737  11.046  1.2474  1.2699 -2.7115
   74SLPC  H13C 6519   3.777   0.855  11.139  0.2313 -0.2540  0.9309
   74SLPC   C14 6520   4.048   0.909  11.161  0.1784  1.0143 -0.4918
   74SLPC  H14A 6521   4.091   0.811  11.144 -0.8892 -0.3082  3.3976
   74SLPC  H14B 6522   4.134   0.973  11.160  0.0839  1.1388 -1.0476
   74SLPC  H14C 6523   4.006   0.903  11.261 -0.3345 -0.4604 -0.7695
   74SLPC   C15 6524   3.886   1.073  11.094  0.3090 -0.3295 -0.6925
   74SLPC  H15A 6525   3.862   1.085  11.199  1.0249 -0.0897 -0.5471
   74SLPC  H15B 6526   3.937   1.161  11.056 -1.1266  0.3219 -1.1712
   74SLPC  H15C 6527   3.792   1.086  11.042  0.2409 -0.4808 -0.6084
   74SLPC   C12 6528   4.017   0.954  10.919 -0.2436 -0.0379  0.2129
   74SLPC  H12A 6529   4.057   0.855  10.901 -0.6897 -0.6721  2.3634
   74SLPC  H12B 6530   4.100   1.021  10.933  0.2478 -1.0279  2.5343
   74SLPC   C11 6531   3.936   1.010  10.793  0.1536  0.0000 -0.2149
   74SLPC  H11A 6532   4.004   1.008  10.705 -0.3955  0.6372 -0.6614
   74SLPC  H11B 6533   3.896   1.111  10.814  2.2677  0.9171 -0.3036
   74SLPC     P 6534   3.856   0.790  10.681  0.2344  0.2214  0.1593
   74SLPC   O13 6535   3.815   0.678  10.762 -0.3779 -0.2710  0.1421
   74SLPC   O14 6536   3.783   0.812  10.555 -0.4574  0.1465 -0.9259
   74SLPC   O12 6537   3.831   0.922  10.769  0.1504  0.1962  0.2809
   74SLPC   O11 6538   4.015   0.794  10.662 -0.1793  0.8179  0.2318
   74SLPC    C1 6539   4.080   0.729  10.555 -0.1414  0.1655 -0.0111
   74SLPC    HA 6540   4.159   0.662  10.596  0.5252  1.3004  0.6203
   74SLPC    HB 6541   4.006   0.667  10.500  0.4407  0.0939 -0.7349
   74SLPC    C2 6542   4.143   0.831  10.451 -0.8956  0.2871  0.1494
   74SLPC    HS 6543   4.075   0.911  10.414 -2.3449 -1.4609 -1.1707
   74SLPC   O21 6544   4.184   0.743  10.340  0.0082 -0.1062  0.3761
   74SLPC   C21 6545   4.153   0.795  10.219  0.6147 -0.0499 -0.6108
   74SLPC   O22 6546   4.111   0.908  10.195  0.2874 -0.0329 -0.6150
   74SLPC   C22 6547   4.183   0.695  10.111  0.3236  0.7709 -0.6477
   74SLPC   H2R 6548   4.278   0.740  10.074 -0.0612  0.3228 -2.2559
   74SLPC   H2S 6549   4.209   0.600  10.161  1.5488  2.7428  2.8552
   74SLPC    C3 6550   4.265   0.908  10.510 -0.4742 -0.0425 -0.3278
   74SLPC    HX 6551   4.336   0.833  10.551 -1.1335  0.5044  1.9601
   74SLPC    HY 6552   4.228   0.974  10.591 -0.6870  1.3195 -1.4941
   74SLPC   O31 6553   4.328   0.988  10.409 -0.5049  0.4008  0.2471
   74SLPC   C31 6554   4.461   1.012  10.435  0.7952  0.4740 -0.0621
   74SLPC   O32 6555   4.530   0.950  10.514  0.2436 -0.4517 -0.0052
   74SLPC   C32 6556   4.504   1.134  10.368 -0.0616 -0.0198  0.8395
   74SLPC   H2X 6557   4.601   1.162  10.413  0.3492  0.2919 -0.1896
   74SLPC   H2Y 6558   4.435   1.221  10.371  0.0488  0.0856  0.4235
   74SLPC   C23 6559   4.097   0.679   9.984 -0.1083 -0.4204 -0.9875
   74SLPC   H3R 6560   4.061   0.776   9.945  1.2716  0.9125  0.8747
   74SLPC   H3S 6561   4.005   0.620  10.006  0.2128 -0.8644 -0.8260
   74SLPC   C24 6562   4.159   0.590   9.872  0.3574  0.6029 -0.0908
   74SLPC   H4R 6563   4.169   0.484   9.902  3.0388  0.1637 -2.1058
   74SLPC   H4S 6564   4.264   0.618   9.845  0.1021  1.1922 -0.5123
   74SLPC   C25 6565   4.075   0.590   9.742 -0.1079  0.3873 -0.4163
   74SLPC   H5R 6566   3.983   0.653   9.744  1.0637  2.1947 -0.3284
   74SLPC   H5S 6567   4.037   0.488   9.721 -0.6129  0.2692  0.9810
   74SLPC   C26 6568   4.165   0.613   9.617 -0.1749 -0.0656 -0.3891
   74SLPC   H6R 6569   4.263   0.564   9.637 -1.0990 -2.3569 -1.2346
   74SLPC   H6S 6570   4.199   0.717   9.594 -0.3986 -0.3109 -1.8848
   74SLPC   C27 6571   4.101   0.562   9.485  0.0319 -0.2858 -0.8558
   74SLPC   H7R 6572   3.995   0.594   9.479  0.1254  0.1847 -0.1110
   74SLPC   H7S 6573   4.106   0.451   9.477  3.1879 -0.2144 -1.4148
   74SLPC   C28 6574   4.184   0.612   9.366 -0.3565 -0.1039 -0.1146
   74SLPC   H8R 6575   4.145   0.541   9.291 -0.5233 -1.8584  1.5619
   74SLPC   H8S 6576   4.290   0.584   9.385  0.2866  1.5074 -1.0742
   74SLPC   C29 6577   4.187   0.761   9.315 -0.1669  0.7209 -0.3728
   74SLPC   H9R 6578   4.156   0.827   9.396 -0.0839 -0.2871  0.5057
   74SLPC  C210 6579   4.223   0.807   9.195  0.0214  0.4386  0.4101
   74SLPC  H10R 6580   4.220   0.915   9.171  0.2856  0.2614 -0.4754
   74SLPC  C211 6581   4.261   0.716   9.082 -0.0622 -0.2146  0.2313
   74SLPC  H11R 6582   4.266   0.612   9.120  1.5025 -0.4690 -0.5631
   74SLPC  H11S 6583   4.366   0.744   9.059  0.8906 -2.2634  1.7569
   74SLPC  C212 6584   4.176   0.720   8.960 -0.3264  0.1840 -0.3737
   74SLPC  H12R 6585   4.069   0.708   8.979 -0.2202  2.3761  2.1223
   74SLPC  C213 6586   4.218   0.739   8.834  0.4622  0.6481 -0.5411
   74SLPC  H13R 6587   4.134   0.743   8.764 -0.8701  1.7786  1.0364
   74SLPC  C214 6588   4.357   0.744   8.785 -0.2404 -0.2223  0.5180
   74SLPC  H14R 6589   4.400   0.642   8.785  0.9750  0.2178 -1.5124
   74SLPC  H14S 6590   4.434   0.791   8.850 -0.6189  0.1335  0.7099
   74SLPC  C215 6591   4.366   0.805   8.647 -0.4759 -0.3401 -0.2338
   74SLPC  H15R 6592   4.384   0.914   8.654  2.8804 -0.8353  0.5019
   74SLPC  H15S 6593   4.282   0.782   8.578 -1.5488  0.7305  0.6848
   74SLPC  C216 6594   4.492   0.735   8.581 -0.3798  0.1053 -0.8593
   74SLPC  H16R 6595   4.482   0.624   8.573 -1.7722  0.1785 -0.4275
   74SLPC  H16S 6596   4.582   0.745   8.645 -1.0760 -0.2206  0.1966
   74SLPC  C217 6597   4.537   0.785   8.445  0.3989 -0.7615  0.2685
   74SLPC  H17R 6598   4.564   0.891   8.460  2.7548 -1.0065 -1.6917
   74SLPC  H17S 6599   4.443   0.774   8.386 -0.2931  2.0939  0.6901
   74SLPC  C218 6600   4.646   0.698   8.390  0.0594 -0.0566  0.2859
   74SLPC  H18R 6601   4.667   0.718   8.283 -0.1071  2.0111  0.6054
   74SLPC  H18S 6602   4.610   0.593   8.401  0.0285 -0.1712 -0.8630
   74SLPC  H18T 6603   4.739   0.710   8.450  0.3392 -1.6992  0.2400
   74SLPC   C33 6604   4.533   1.119  10.210 -0.6236  0.0003 -0.8171
   74SLPC   H3X 6605   4.622   1.053  10.207 -0.0149  0.1458  4.4143
   74SLPC   H3Y 6606   4.579   1.210  10.165  0.9393  0.0444  0.7614
   74SLPC   C34 6607   4.409   1.060  10.133  0.1970 -0.5601 -0.6299
   74SLPC   H4X 6608   4.327   1.135  10.142  0.3891 -0.4276  0.0575
   74SLPC   H4Y 6609   4.375   0.966  10.180 -1.8190 -0.5020 -1.8138
   74SLPC   C35 6610   4.428   1.037   9.987  0.2390  0.2662  0.4490
   74SLPC   H5X 6611   4.471   0.937   9.966  0.4694  0.2830  0.8297
   74SLPC   H5Y 6612   4.499   1.107   9.937 -1.3347  0.1122 -2.1666
   74SLPC   C36 6613   4.295   1.037   9.910  0.5747 -0.3426  0.1903
   74SLPC   H6X 6614   4.244   1.135   9.922 -2.3149 -1.7507  0.2708
   74SLPC   H6Y 6615   4.229   0.965   9.963  2.1571 -1.6931  0.4118
   74SLPC   C37 6616   4.306   0.989   9.762  0.7767  0.5306 -1.0226
   74SLPC   H7X 6617   4.200   0.991   9.730  0.3442 -2.0439  0.0062
   74SLPC   H7Y 6618   4.331   0.880   9.765  0.5500  0.4882 -0.2842
   74SLPC   C38 6619   4.404   1.062   9.677  0.5762 -0.2603 -0.8683
   74SLPC   H8X 6620   4.509   1.045   9.709  0.1343 -0.1047  0.8042
   74SLPC   H8Y 6621   4.376   1.169   9.685 -1.0656 -0.7447  0.9047
   74SLPC   C39 6622   4.362   1.035   9.532 -0.4689 -0.1247 -0.2790
   74SLPC   H9X 6623   4.251   1.044   9.526 -0.4562 -0.4719 -1.1038
   74SLPC   H9Y 6624   4.394   0.932   9.506  1.5248  0.3664  0.0532
   74SLPC  C310 6625   4.428   1.123   9.424  0.0315 -0.0465 -0.4654
   74SLPC  H10X 6626   4.539   1.112   9.431  0.1183  0.9401 -0.0800
   74SLPC  H10Y 6627   4.405   1.231   9.438 -0.2063  0.0590 -1.6253
   74SLPC  C311 6628   4.385   1.089   9.284  0.3544  0.4207 -0.4043
   74SLPC  H11X 6629   4.276   1.107   9.274  0.1187 -0.8790 -0.3860
   74SLPC  H11Y 6630   4.404   0.980   9.270 -2.8932 -0.3463  0.3314
   74SLPC  C312 6631   4.448   1.176   9.169  0.8016 -0.3993  0.2998
   74SLPC  H12X 6632   4.554   1.190   9.198 -0.3573  1.1819  4.5521
   74SLPC  H12Y 6633   4.396   1.274   9.167 -1.4832 -1.5437  0.3827
   74SLPC  C313 6634   4.456   1.104   9.037 -0.1083 -0.8490  0.6322
   74SLPC  H13X 6635   4.354   1.082   8.997  0.7828 -0.1764 -2.2256
   74SLPC  H13Y 6636   4.509   1.007   9.050 -0.1794 -0.9207  0.3936
   74SLPC  C314 6637   4.517   1.198   8.934  0.7018  0.0869 -0.2242
   74SLPC  H14X 6638   4.615   1.240   8.965  0.7932 -0.5381  0.3645
   74SLPC  H14Y 6639   4.453   1.288   8.923 -0.6624 -0.9118 -0.7983
   74SLPC  C315 6640   4.531   1.142   8.794  0.5821 -0.2134 -0.5824
   74SLPC  H15X 6641   4.574   1.219   8.727  0.1023  0.7875  0.2323
   74SLPC  H15Y 6642   4.437   1.098   8.754  0.8480 -2.0330  0.6820
   74SLPC  C316 6643   4.623   1.018   8.789 -0.8794 -0.9506 -0.0419
   74SLPC  H16X 6644   4.614   0.986   8.683 -3.8518  0.3274 -0.2686
   74SLPC  H16Y 6645   4.574   0.936   8.845 -0.6081 -1.2873 -0.3005
   74SLPC  C317 6646   4.768   1.045   8.839  0.2319  0.1875 -0.1269
   74SLPC  H17X 6647   4.816   0.945   8.848 -0.2263 -0.3443 -2.8221
   74SLPC  H17Y 6648   4.771   1.093   8.939 -0.5064 -1.0499  0.5103
   74SLPC  C318 6649   4.859   1.127   8.738 -0.6318  0.1919  0.1249
   74SLPC  H18X 6650   4.886   1.063   8.652 -0.6933  0.5573 -0.1684
   74SLPC  H18Y 6651   4.946   1.155   8.802  0.1573 -1.4144 -0.1903
   74SLPC  H18Z 6652   4.803   1.220   8.712  0.5768  0.6994 -0.7417
   75SLPC     N 6653   0.364   5.054   6.387 -0.2812  0.1886 -0.1959
   75SLPC   C13 6654   0.237   4.976   6.371 -0.8121 -0.3732  0.4567
   75SLPC  H13A 6655   0.169   5.017   6.299 -0.4195 -0.9803 -0.2792
   75SLPC  H13B 6656   0.260   4.877   6.334 -0.5237  0.0749 -0.5932
   75SLPC  H13C 6657   0.176   4.969   6.460  0.0752 -3.0398  0.9621
   75SLPC   C14 6658   0.327   5.197   6.423 -0.0460 -0.9878 -0.4573
   75SLPC  H14A 6659   0.265   5.252   6.355  3.6580  2.0307 -1.7554
   75SLPC  H14B 6660   0.302   5.194   6.528  1.8797 -1.2651  0.0304
   75SLPC  H14C 6661   0.422   5.248   6.414  0.0683 -1.3935 -1.7213
   75SLPC   C15 6662   0.440   5.044   6.260  0.3351  0.0373 -0.1698
   75SLPC  H15A 6663   0.400   5.103   6.179 -1.6048  1.2382  1.5723
   75SLPC  H15B 6664   0.544   5.070   6.275  0.6786 -1.9430  1.2921
   75SLPC  H15C 6665   0.431   4.944   6.220  0.9124  0.1658 -0.6513
   75SLPC   C12 6666   0.450   4.982   6.489 -0.9734 -0.2159  0.2233
   75SLPC  H12A 6667   0.409   4.979   6.589 -0.2367 -0.4820  0.5262
   75SLPC  H12B 6668   0.540   5.042   6.495 -1.0403 -0.1737  1.0193
   75SLPC   C11 6669   0.514   4.845   6.449 -0.2392  0.1864 -0.6307
   75SLPC  H11A 6670   0.612   4.863   6.400 -0.2170  1.0427 -0.2903
   75SLPC  H11B 6671   0.448   4.784   6.384 -0.6122  1.3581 -1.3779
   75SLPC     P 6672   0.659   4.758   6.659  0.6949 -0.2310  0.0837
   75SLPC   O13 6673   0.756   4.670   6.587  0.2718  0.3621  0.5453
   75SLPC   O14 6674   0.706   4.896   6.691  0.5721 -0.2828  0.4009
   75SLPC   O12 6675   0.531   4.767   6.569  0.3678  0.4448  0.0935
   75SLPC   O11 6676   0.599   4.683   6.784  0.5819  0.1953 -0.2905
   75SLPC    C1 6677   0.483   4.734   6.850  0.7954 -0.0223 -0.0869
   75SLPC    HA 6678   0.443   4.832   6.813  1.4692  0.8527  1.4144
   75SLPC    HB 6679   0.403   4.659   6.832  0.1898  0.2816  1.2143
   75SLPC    C2 6680   0.505   4.764   7.003  0.5438  0.2659  0.4265
   75SLPC    HS 6681   0.418   4.815   7.050 -1.8146 -2.0651 -1.1461
   75SLPC   O21 6682   0.625   4.844   7.014 -0.2776  0.2169  0.1996
   75SLPC   C21 6683   0.609   4.970   6.990  0.0842  0.8119 -0.6255
   75SLPC   O22 6684   0.504   5.023   6.958 -0.5741  0.4016  0.1912
   75SLPC   C22 6685   0.745   5.040   7.006 -0.0630  0.5346 -0.0113
   75SLPC   H2R 6686   0.822   4.966   6.977  1.4375  0.6763  3.1316
   75SLPC   H2S 6687   0.749   5.134   6.947  1.9369 -0.1847 -1.1035
   75SLPC    C3 6688   0.523   4.632   7.080 -0.0878 -1.3227  0.3881
   75SLPC    HX 6689   0.623   4.598   7.047  0.0813 -0.2883 -0.1963
   75SLPC    HY 6690   0.452   4.559   7.035 -1.8023 -1.4289  3.0282
   75SLPC   O31 6691   0.514   4.653   7.232  0.0236  0.0257  0.4016
   75SLPC   C31 6692   0.551   4.550   7.308 -0.7269 -0.6905 -0.1277
   75SLPC   O32 6693   0.600   4.445   7.269  0.2831 -0.0275 -0.0717
   75SLPC   C32 6694   0.513   4.583   7.453 -0.8130  0.5676 -0.1193
   75SLPC   H2X 6695   0.405   4.559   7.465 -1.1943  1.0651 -2.2730
   75SLPC   H2Y 6696   0.528   4.691   7.476  0.3092  0.1161  1.4528
   75SLPC   C23 6697   0.770   5.080   7.154  0.2979  0.1391 -0.7661
   75SLPC   H3R 6698   0.696   5.160   7.174  0.2171  0.0795 -0.8217
   75SLPC   H3S 6699   0.871   5.125   7.162  0.7103 -1.0432  1.2654
   75SLPC   C24 6700   0.742   4.983   7.264  0.0569  0.3755 -0.2474
   75SLPC   H4R 6701   0.808   4.897   7.237  0.0164 -0.0013  0.8169
   75SLPC   H4S 6702   0.634   4.956   7.268  0.7398 -2.5984  3.1235
   75SLPC   C25 6703   0.779   5.047   7.397  0.3373  0.5214 -0.3091
   75SLPC   H5R 6704   0.732   5.148   7.398  1.3497  1.0169 -1.0588
   75SLPC   H5S 6705   0.886   5.071   7.411 -0.0226  1.8527  0.4118
   75SLPC   C26 6706   0.730   4.978   7.530  0.1074 -0.8534 -0.2404
   75SLPC   H6R 6707   0.772   4.875   7.535 -1.0388 -1.3169  0.0553
   75SLPC   H6S 6708   0.620   4.981   7.515  0.2518 -0.3846 -1.3367
   75SLPC   C27 6709   0.750   5.070   7.656  0.2369  0.0801 -0.2320
   75SLPC   H7R 6710   0.690   5.161   7.638  1.9583  1.1882 -0.5602
   75SLPC   H7S 6711   0.857   5.100   7.652  1.6043 -4.0344  0.3067
   75SLPC   C28 6712   0.722   5.003   7.791  0.1182 -0.1057  0.8823
   75SLPC   H8R 6713   0.614   4.981   7.788 -0.2679  1.7101 -1.3730
   75SLPC   H8S 6714   0.741   5.084   7.866  0.3351 -1.0946  1.9292
   75SLPC   C29 6715   0.795   4.873   7.820  0.0068  0.3771  0.4230
   75SLPC   H9R 6716   0.824   4.811   7.734  2.0775  1.2411  0.4500
   75SLPC  C210 6717   0.844   4.836   7.941  0.1096 -0.2619 -0.2851
   75SLPC  H10R 6718   0.910   4.748   7.942 -1.2394 -1.3211 -1.0348
   75SLPC  C211 6719   0.841   4.926   8.064  0.1174  0.4871 -0.0182
   75SLPC  H11R 6720   0.735   4.918   8.098 -0.2471  0.9814 -0.9951
   75SLPC  H11S 6721   0.863   5.035   8.056  0.9636  0.2066 -1.8942
   75SLPC  C212 6722   0.927   4.869   8.179 -0.1214  0.2462  0.2333
   75SLPC  H12R 6723   0.974   4.772   8.154 -0.1266  0.2036  0.3912
   75SLPC  C213 6724   0.950   4.927   8.295 -0.2048  0.0094 -0.7633
   75SLPC  H13R 6725   1.015   4.874   8.366 -0.3895 -1.7292 -1.8416
   75SLPC  C214 6726   0.895   5.056   8.345  0.3106 -0.2215 -0.2850
   75SLPC  H14R 6727   0.847   5.103   8.257 -0.5860 -0.1185  0.2488
   75SLPC  H14S 6728   0.977   5.128   8.365  0.4413 -0.0063 -1.5356
   75SLPC  C215 6729   0.788   5.044   8.461 -0.1097 -0.2134 -0.1965
   75SLPC  H15R 6730   0.780   5.145   8.506  1.0152 -0.0303 -0.3708
   75SLPC  H15S 6731   0.836   4.976   8.534 -0.7407 -0.9937 -0.4951
   75SLPC  C216 6732   0.657   4.982   8.421 -0.4657  0.4325  0.0831
   75SLPC  H16R 6733   0.673   4.921   8.330 -0.3491 -1.3773  1.2769
   75SLPC  H16S 6734   0.580   5.059   8.397 -0.9240  0.9556  2.8609
   75SLPC  C217 6735   0.603   4.890   8.535 -0.3571 -0.6875 -0.1981
   75SLPC  H17R 6736   0.626   4.943   8.630  0.9651 -1.4921 -0.0453
   75SLPC  H17S 6737   0.636   4.784   8.541 -1.3120 -0.9606  4.8788
   75SLPC  C218 6738   0.451   4.889   8.531 -0.2113  0.2261 -0.0533
   75SLPC  H18R 6739   0.398   4.987   8.525  1.4905  1.2822  1.3244
   75SLPC  H18S 6740   0.407   4.856   8.627 -0.4651 -0.4278 -0.3873
   75SLPC  H18T 6741   0.408   4.814   8.461  1.4112 -2.5754  1.7798
   75SLPC   C33 6742   0.583   4.479   7.548  0.1204 -0.0679 -0.1564
   75SLPC   H3X 6743   0.529   4.382   7.537 -1.0301  0.7594 -2.3896
   75SLPC   H3Y 6744   0.688   4.460   7.517  0.5708  0.1790  1.1477
   75SLPC   C34 6745   0.568   4.513   7.699  0.1426  0.3492  0.4691
   75SLPC   H4X 6746   0.463   4.543   7.716 -0.0160 -0.9929  2.1959
   75SLPC   H4Y 6747   0.636   4.598   7.724 -1.1180  1.2985  0.7365
   75SLPC   C35 6748   0.587   4.389   7.788 -0.2703  0.0821 -0.9593
   75SLPC   H5X 6749   0.687   4.346   7.766  0.4613  1.7589 -1.0666
   75SLPC   H5Y 6750   0.506   4.321   7.754  0.0307 -2.0347  2.1030
   75SLPC   C36 6751   0.568   4.411   7.937 -0.0498 -0.0271  0.1405
   75SLPC   H6X 6752   0.562   4.316   7.995  0.2135 -1.1141 -1.5248
   75SLPC   H6Y 6753   0.474   4.467   7.955  0.2496  0.9155 -1.1088
   75SLPC   C37 6754   0.677   4.497   8.001 -0.9910  0.1189  0.2296
   75SLPC   H7X 6755   0.688   4.588   7.938 -1.2640  1.2824  1.8220
   75SLPC   H7Y 6756   0.772   4.439   8.007 -0.8767 -0.0440 -2.0081
   75SLPC   C38 6757   0.640   4.552   8.135 -0.1827  0.7725  0.2409
   75SLPC   H8X 6758   0.529   4.558   8.133 -0.3002 -0.2804  1.8368
   75SLPC   H8Y 6759   0.683   4.648   8.170  3.4050 -0.3805 -0.6219
   75SLPC   C39 6760   0.650   4.446   8.243 -0.0677  0.0334 -0.4414
   75SLPC   H9X 6761   0.753   4.443   8.285 -0.3424  0.4219  0.2932
   75SLPC   H9Y 6762   0.601   4.349   8.219 -2.5758  1.3517 -1.0622
   75SLPC  C310 6763   0.583   4.501   8.372  0.0827  0.7327  0.3851
   75SLPC  H10X 6764   0.475   4.514   8.347  0.5298 -1.3103 -3.4687
   75SLPC  H10Y 6765   0.622   4.597   8.410  0.8213  0.6791 -0.2031
   75SLPC  C311 6766   0.592   4.397   8.492 -0.4742 -0.0214  0.3615
   75SLPC  H11X 6767   0.692   4.348   8.497  0.3906  1.3405 -1.8405
   75SLPC  H11Y 6768   0.523   4.312   8.477  0.6130 -1.0283  0.9171
   75SLPC  C312 6769   0.562   4.451   8.634  0.2800  0.2313 -0.0918
   75SLPC  H12X 6770   0.609   4.551   8.648 -3.1096  1.8402  1.2133
   75SLPC  H12Y 6771   0.619   4.391   8.707  2.6897  1.8105 -0.5776
   75SLPC  C313 6772   0.411   4.449   8.664 -0.4463 -0.3733  0.4946
   75SLPC  H13X 6773   0.349   4.420   8.576 -0.9511 -1.9005  1.3167
   75SLPC  H13Y 6774   0.385   4.553   8.693 -0.0793  0.1211 -0.8603
   75SLPC  C314 6775   0.383   4.360   8.786 -0.0422  0.1785 -0.1948
   75SLPC  H14X 6776   0.458   4.396   8.859  0.9118 -1.7215 -0.1644
   75SLPC  H14Y 6777   0.401   4.252   8.767  1.1688  0.1713  0.7986
   75SLPC  C315 6778   0.238   4.377   8.841 -0.6079  0.6804 -0.1011
   75SLPC  H15X 6779   0.160   4.315   8.791 -1.8877  0.7817  1.6691
   75SLPC  H15Y 6780   0.205   4.484   8.840 -0.2969  0.7795  0.1575
   75SLPC  C316 6781   0.246   4.335   8.991  0.0508 -0.6591 -1.2391
   75SLPC  H16X 6782   0.319   4.409   9.029 -1.0385 -0.1886 -0.0086
   75SLPC  H16Y 6783   0.276   4.230   9.011 -1.4222 -0.7759  0.5755
   75SLPC  C317 6784   0.116   4.368   9.074 -0.0264  0.0459 -0.0774
   75SLPC  H17X 6785   0.043   4.288   9.049  0.0086 -0.6277  1.8106
   75SLPC  H17Y 6786   0.092   4.470   9.039 -0.6789 -1.0545 -3.1767
   75SLPC  C318 6787   0.137   4.372   9.225 -0.6532  0.2076  0.5021
   75SLPC  H18X 6788   0.224   4.438   9.244  2.3476 -2.7747 -1.5879
   75SLPC  H18Y 6789   0.170   4.273   9.263 -1.7131 -0.7456 -0.9417
   75SLPC  H18Z 6790   0.045   4.402   9.280 -0.9898 -1.1455  0.7137
   76SLPC     N 6791   2.779   3.342   6.057 -0.1053 -0.6692 -0.2378
   76SLPC   C13 6792   2.797   3.284   5.918 -0.1635 -0.4080 -0.0693
   76SLPC  H13A 6793   2.899   3.249   5.916  0.2811  0.8112  0.3437
   76SLPC  H13B 6794   2.724   3.208   5.899  0.9876 -1.4795 -0.3372
   76SLPC  H13C 6795   2.774   3.357   5.841 -2.3695  0.2171  1.1065
   76SLPC   C14 6796   2.842   3.476   6.056 -1.0401  0.4389  0.4513
   76SLPC  H14A 6797   2.824   3.522   5.960  1.7775  0.1527 -0.2924
   76SLPC  H14B 6798   2.808   3.545   6.132 -1.6679  0.6681 -0.0190
   76SLPC  H14C 6799   2.949   3.462   6.057 -1.1597 -0.9585 -1.2350
   76SLPC   C15 6800   2.847   3.250   6.153  0.2109  0.5793 -0.4302
   76SLPC  H15A 6801   2.836   3.284   6.255  1.7467 -0.0509 -0.0403
   76SLPC  H15B 6802   2.802   3.152   6.149 -1.3276  1.1760  0.8149
   76SLPC  H15C 6803   2.953   3.237   6.141  0.3631  1.7001 -0.4237
   76SLPC   C12 6804   2.632   3.363   6.092  0.2704  0.3227  0.1843
   76SLPC  H12A 6805   2.586   3.425   6.017 -0.5370 -0.0958  0.3098
   76SLPC  H12B 6806   2.630   3.403   6.192  0.7403 -0.8254  0.6739
   76SLPC   C11 6807   2.540   3.227   6.092  0.0131  0.3115  0.7468
   76SLPC  H11A 6808   2.579   3.173   6.003 -0.0091  0.3485  0.7150
   76SLPC  H11B 6809   2.436   3.264   6.079  0.4339  0.6106 -2.8047
   76SLPC     P 6810   2.507   3.015   6.236  0.1356  0.5811 -0.1606
   76SLPC   O13 6811   2.453   2.954   6.115 -0.7082 -0.5344 -0.3357
   76SLPC   O14 6812   2.599   2.928   6.311  0.0356 -0.2955 -0.1501
   76SLPC   O12 6813   2.565   3.156   6.207 -0.2942 -0.4672 -0.3839
   76SLPC   O11 6814   2.374   3.044   6.326  0.1264  0.1841 -0.5309
   76SLPC    C1 6815   2.364   3.136   6.439  0.1459 -0.2878  0.2909
   76SLPC    HA 6816   2.423   3.229   6.425  1.1007 -0.5452  2.2823
   76SLPC    HB 6817   2.261   3.161   6.472 -0.2095 -0.0538 -0.9524
   76SLPC    C2 6818   2.426   3.076   6.567  0.4818  0.5996  0.2800
   76SLPC    HS 6819   2.523   3.034   6.536 -0.4397 -2.1312  0.8348
   76SLPC   O21 6820   2.340   2.971   6.615 -0.4261  0.6970 -0.1060
   76SLPC   C21 6821   2.405   2.881   6.685 -0.3674  0.1267 -0.1392
   76SLPC   O22 6822   2.526   2.867   6.687  0.5678  0.3539  0.7074
   76SLPC   C22 6823   2.308   2.795   6.765  0.3192 -0.7283 -0.0277
   76SLPC   H2R 6824   2.271   2.860   6.848  0.6193 -0.8370  0.1917
   76SLPC   H2S 6825   2.220   2.759   6.708 -1.1789  1.4194  0.7915
   76SLPC    C3 6826   2.452   3.190   6.671  0.0779 -0.2726  0.2073
   76SLPC    HX 6827   2.361   3.253   6.666  2.8780  4.2221  0.8330
   76SLPC    HY 6828   2.540   3.243   6.629 -0.6896  0.3097 -0.6921
   76SLPC   O31 6829   2.473   3.143   6.804 -0.2693 -0.4790 -0.6308
   76SLPC   C31 6830   2.604   3.144   6.846 -0.2839 -0.0031 -0.3369
   76SLPC   O32 6831   2.702   3.172   6.780  0.9577  0.0464 -0.0534
   76SLPC   C32 6832   2.612   3.101   6.996 -0.1008  0.4116  0.1199
   76SLPC   H2X 6833   2.525   3.151   7.042  0.5105  0.2191  1.5492
   76SLPC   H2Y 6834   2.707   3.144   7.036  0.9323 -0.6459 -1.0968
   76SLPC   C23 6835   2.379   2.676   6.836 -0.5568  0.0516 -0.1772
   76SLPC   H3R 6836   2.440   2.711   6.922 -1.3852 -0.3865  0.6083
   76SLPC   H3S 6837   2.446   2.625   6.764  0.4394  0.7695  0.2169
   76SLPC   C24 6838   2.281   2.572   6.875 -0.0180  0.3363  0.7045
   76SLPC   H4R 6839   2.219   2.540   6.788  3.0762  1.5351 -2.1534
   76SLPC   H4S 6840   2.216   2.618   6.953 -1.9903  0.9517 -1.2070
   76SLPC   C25 6841   2.343   2.452   6.952 -0.2195  0.1070  0.6954
   76SLPC   H5R 6842   2.423   2.396   6.900  2.6140  1.5683  3.1911
   76SLPC   H5S 6843   2.257   2.382   6.959  1.5280 -2.5138 -1.6507
   76SLPC   C26 6844   2.392   2.479   7.094  0.3405  0.0444 -0.2765
   76SLPC   H6R 6845   2.469   2.558   7.097 -0.5301  0.8758  1.8105
   76SLPC   H6S 6846   2.447   2.384   7.113  1.0222  0.2597 -1.1117
   76SLPC   C27 6847   2.279   2.500   7.192 -0.2787 -0.0598  0.6177
   76SLPC   H7R 6848   2.176   2.462   7.176  0.1397 -1.2477  0.6259
   76SLPC   H7S 6849   2.267   2.610   7.200  0.6863  0.0656  0.4657
   76SLPC   C28 6850   2.309   2.439   7.329  0.1731 -0.4260  0.9090
   76SLPC   H8R 6851   2.222   2.475   7.387  0.8919 -0.3609  1.9657
   76SLPC   H8S 6852   2.302   2.328   7.321  0.1873 -0.3008 -1.8647
   76SLPC   C29 6853   2.440   2.494   7.391  0.2725  0.1058 -0.4755
   76SLPC   H9R 6854   2.532   2.445   7.357  0.6049 -0.2825  0.9527
   76SLPC  C210 6855   2.444   2.605   7.474  0.3757 -0.7817  0.1897
   76SLPC  H10R 6856   2.541   2.629   7.519  0.5953 -1.2463 -0.0406
   76SLPC  C211 6857   2.333   2.690   7.518 -0.1385  0.1312  0.2833
   76SLPC  H11R 6858   2.285   2.625   7.594 -1.7643  1.7241  0.6709
   76SLPC  H11S 6859   2.253   2.697   7.442  0.6339  1.5035 -0.4276
   76SLPC  C212 6860   2.360   2.826   7.580 -0.2085 -0.0327 -0.0848
   76SLPC  H12R 6861   2.366   2.899   7.498  0.5787  0.5622  0.4923
   76SLPC  C213 6862   2.398   2.861   7.706  0.4466  0.1853  0.0705
   76SLPC  H13R 6863   2.398   2.968   7.731 -0.7815 -0.0231  1.0895
   76SLPC  C214 6864   2.420   2.764   7.817  0.0665  0.6609 -0.0503
   76SLPC  H14R 6865   2.503   2.801   7.881  0.6756  2.0302 -1.5566
   76SLPC  H14S 6866   2.459   2.666   7.780  1.5994  1.0493  0.4366
   76SLPC  C215 6867   2.296   2.753   7.901  0.1661  0.0714  0.0589
   76SLPC  H15R 6868   2.222   2.704   7.835  0.4765  0.1567 -0.3525
   76SLPC  H15S 6869   2.261   2.855   7.929  1.8484  0.5849  0.3989
   76SLPC  C216 6870   2.304   2.659   8.025 -0.9543  0.6119 -0.9188
   76SLPC  H16R 6871   2.382   2.696   8.095 -0.3006 -1.0922 -0.7043
   76SLPC  H16S 6872   2.330   2.558   7.989  1.6719 -1.1182  4.8214
   76SLPC  C217 6873   2.175   2.659   8.101  0.0775 -0.2306 -0.3971
   76SLPC  H17R 6874   2.109   2.582   8.055  1.2046 -0.7894 -1.1272
   76SLPC  H17S 6875   2.129   2.760   8.094 -1.3926 -0.5986  2.5091
   76SLPC  C218 6876   2.202   2.617   8.242  0.0987  0.9696 -0.5187
   76SLPC  H18R 6877   2.103   2.586   8.282  1.0410 -2.7744 -0.7195
   76SLPC  H18S 6878   2.239   2.702   8.303  0.9374 -0.7529  1.5080
   76SLPC  H18T 6879   2.268   2.529   8.261 -3.0530 -1.8521 -1.6410
   76SLPC   C33 6880   2.601   2.945   7.020 -0.5267 -0.1110 -0.2459
   76SLPC   H3X 6881   2.663   2.894   6.942  2.2208  1.8109  0.5053
   76SLPC   H3Y 6882   2.495   2.915   7.010 -1.4927  1.0475  4.3352
   76SLPC   C34 6883   2.639   2.902   7.158 -0.4599 -0.2279 -0.2397
   76SLPC   H4X 6884   2.608   2.795   7.163  1.5304 -0.7933  2.0708
   76SLPC   H4Y 6885   2.566   2.961   7.217 -0.1044 -0.2180  0.1933
   76SLPC   C35 6886   2.779   2.928   7.206 -0.2926  0.1649 -0.8755
   76SLPC   H5X 6887   2.801   3.036   7.195  2.9902 -0.5551 -2.6732
   76SLPC   H5Y 6888   2.850   2.870   7.143  0.0621 -0.3343 -0.0249
   76SLPC   C36 6889   2.804   2.885   7.358  0.6477  0.0403 -0.1848
   76SLPC   H6X 6890   2.904   2.840   7.371  0.1592 -0.2616  3.9353
   76SLPC   H6Y 6891   2.733   2.804   7.386  3.0087 -1.3531  2.1600
   76SLPC   C37 6892   2.775   3.004   7.451  0.0888  0.3340  0.3153
   76SLPC   H7X 6893   2.676   3.046   7.425 -1.5650 -4.0950 -1.4931
   76SLPC   H7Y 6894   2.855   3.081   7.444 -0.7769  1.1679 -0.7212
   76SLPC   C38 6895   2.750   2.955   7.598  0.5381 -0.2555 -0.2868
   76SLPC   H8X 6896   2.816   2.872   7.630 -0.0160 -0.7576 -0.4227
   76SLPC   H8Y 6897   2.653   2.899   7.597  0.6006 -0.4421  1.6387
   76SLPC   C39 6898   2.756   3.074   7.698 -0.2699 -0.0041 -0.2351
   76SLPC   H9X 6899   2.672   3.142   7.671  0.9529  1.2439 -1.0845
   76SLPC   H9Y 6900   2.852   3.131   7.704  0.7146 -1.3632 -2.3034
   76SLPC  C310 6901   2.741   3.027   7.845  0.5376 -0.0196  0.1398
   76SLPC  H10X 6902   2.667   2.943   7.846  1.5365 -0.9715  2.2386
   76SLPC  H10Y 6903   2.691   3.113   7.895  0.7730  0.5856 -0.6599
   76SLPC  C311 6904   2.858   2.967   7.929  0.1111 -0.1563 -0.1845
   76SLPC  H11X 6905   2.930   3.052   7.932 -1.0735  0.8465  2.0812
   76SLPC  H11Y 6906   2.898   2.875   7.881 -1.6942 -1.0552 -0.0824
   76SLPC  C312 6907   2.813   2.924   8.069 -0.5003  0.5897 -0.6548
   76SLPC  H12X 6908   2.726   2.854   8.077  0.2958 -0.4306 -0.6752
   76SLPC  H12Y 6909   2.777   3.020   8.110  1.2526  0.9821  0.0473
   76SLPC  C313 6910   2.922   2.871   8.152 -0.5349  0.0615 -0.1014
   76SLPC  H13X 6911   3.003   2.946   8.137 -1.6622  1.8177  2.0797
   76SLPC  H13Y 6912   2.958   2.772   8.116  0.8768 -0.4030  2.3960
   76SLPC  C314 6913   2.889   2.866   8.299 -0.0238  0.3843 -0.6441
   76SLPC  H14X 6914   2.780   2.843   8.302 -0.5194  2.4311  3.5886
   76SLPC  H14Y 6915   2.911   2.964   8.346 -0.4069  0.0315  0.2984
   76SLPC  C315 6916   2.961   2.749   8.372  0.5656 -0.0568  0.1342
   76SLPC  H15X 6917   3.072   2.754   8.359  0.4850 -1.3884 -1.3830
   76SLPC  H15Y 6918   2.930   2.656   8.320 -1.3403  0.0581  1.0021
   76SLPC  C316 6919   2.924   2.753   8.518 -0.2636 -0.2791 -0.1485
   76SLPC  H16X 6920   2.821   2.714   8.534 -1.2782  2.5193  0.6605
   76SLPC  H16Y 6921   2.905   2.851   8.566 -0.4525 -0.5573  0.3560
   76SLPC  C317 6922   3.031   2.692   8.612 -0.1182  0.1342  0.3252
   76SLPC  H17X 6923   3.039   2.584   8.588  1.7527  0.4494 -0.5983
   76SLPC  H17Y 6924   2.994   2.697   8.717  0.2526 -3.4552  0.7575
   76SLPC  C318 6925   3.171   2.765   8.622  0.8400  0.0702 -0.0697
   76SLPC  H18X 6926   3.241   2.746   8.538  1.7737  0.1804  0.6592
   76SLPC  H18Y 6927   3.222   2.761   8.721 -0.3074 -0.0645  0.5281
   76SLPC  H18Z 6928   3.150   2.872   8.603 -1.8270 -0.4869 -0.6283
   77SLPC     N 6929   0.665   3.960   6.682  0.4275  0.1353 -0.5131
   77SLPC   C13 6930   0.548   4.007   6.603  0.2401 -0.2874  0.1707
   77SLPC  H13A 6931   0.465   3.995   6.670  0.9046 -1.2065  0.8500
   77SLPC  H13B 6932   0.567   4.113   6.592  0.1275 -0.3568 -0.8230
   77SLPC  H13C 6933   0.535   3.953   6.510 -2.1965 -1.8079  1.3033
   77SLPC   C14 6934   0.683   4.056   6.798 -0.0080 -0.2339 -0.6420
   77SLPC  H14A 6935   0.589   4.095   6.836  1.3709  1.6767  0.9831
   77SLPC  H14B 6936   0.733   4.014   6.885  0.9554  1.8241 -0.1388
   77SLPC  H14C 6937   0.735   4.137   6.750  1.5798 -1.3380 -0.8428
   77SLPC   C15 6938   0.777   3.953   6.591  0.1984 -0.0795  0.3728
   77SLPC  H15A 6939   0.815   4.050   6.564  1.1963  0.0648  2.1277
   77SLPC  H15B 6940   0.853   3.896   6.642  1.5393  2.2606  1.1743
   77SLPC  H15C 6941   0.750   3.912   6.495 -0.2534  0.6967  0.1570
   77SLPC   C12 6942   0.633   3.819   6.736 -0.2598 -0.6788 -0.3816
   77SLPC  H12A 6943   0.726   3.776   6.771 -0.2131 -0.9737 -0.8411
   77SLPC  H12B 6944   0.600   3.756   6.654  1.4420 -2.4010  0.1636
   77SLPC   C11 6945   0.531   3.807   6.844 -0.4430  0.3346 -0.5923
   77SLPC  H11A 6946   0.580   3.842   6.938 -1.3760 -2.8256  1.2192
   77SLPC  H11B 6947   0.510   3.699   6.860  0.7147  0.3341  1.3942
   77SLPC     P 6948   0.293   3.815   6.732  0.1475 -0.0593  0.0012
   77SLPC   O13 6949   0.205   3.924   6.670 -0.6915 -0.3130 -0.7287
   77SLPC   O14 6950   0.366   3.726   6.640 -0.2327  0.5468 -0.4207
   77SLPC   O12 6951   0.409   3.887   6.828  0.5770  0.1330  0.7963
   77SLPC   O11 6952   0.202   3.723   6.822 -0.0737  0.3264 -0.2009
   77SLPC    C1 6953   0.172   3.782   6.955 -0.1379  0.3721 -0.1961
   77SLPC    HA 6954   0.263   3.772   7.018  0.5388 -1.3548 -1.3526
   77SLPC    HB 6955   0.149   3.890   6.957  0.3509  0.4906 -0.6639
   77SLPC    C2 6956   0.050   3.707   7.018 -0.5880  0.1534  0.5353
   77SLPC    HS 6957  -0.029   3.726   6.942  0.1849  1.5002  0.0472
   77SLPC   O21 6958   0.024   3.758   7.144  0.9418 -0.2963 -0.3482
   77SLPC   C21 6959  -0.091   3.738   7.192  0.1060  0.3143  0.4568
   77SLPC   O22 6960  -0.190   3.703   7.133 -0.8361  0.8191  0.1158
   77SLPC   C22 6961  -0.082   3.797   7.321  0.4590 -1.0053 -0.3635
   77SLPC   H2R 6962   0.017   3.779   7.369  0.5606  0.2906 -0.0560
   77SLPC   H2S 6963  -0.098   3.906   7.314  0.1032 -1.0547 -0.3422
   77SLPC    C3 6964   0.096   3.560   7.018  0.6666  0.3839 -0.8499
   77SLPC    HX 6965   0.181   3.558   7.090 -0.2998  0.9455  0.3647
   77SLPC    HY 6966   0.127   3.524   6.918  0.0862  1.0373 -1.2698
   77SLPC   O31 6967   0.001   3.467   7.073  0.3893  0.0862 -0.2698
   77SLPC   C31 6968  -0.096   3.414   6.987  0.3912 -0.1716  0.5405
   77SLPC   O32 6969  -0.116   3.440   6.875 -0.0188  0.5597  0.4122
   77SLPC   C32 6970  -0.179   3.308   7.056  0.7003  0.3953 -0.2050
   77SLPC   H2X 6971  -0.169   3.317   7.167  0.1404 -0.4306 -0.0819
   77SLPC   H2Y 6972  -0.131   3.215   7.020  0.8905  0.5033 -0.2331
   77SLPC   C23 6973  -0.191   3.747   7.421  0.3127  0.0279  0.1754
   77SLPC   H3R 6974  -0.202   3.637   7.416  1.4000 -0.0957  0.2813
   77SLPC   H3S 6975  -0.288   3.794   7.392  0.8733  1.0242 -0.1209
   77SLPC   C24 6976  -0.163   3.796   7.564  0.4540  0.3229  0.2719
   77SLPC   H4R 6977  -0.149   3.904   7.584 -0.3703  0.1282  2.1118
   77SLPC   H4S 6978  -0.068   3.747   7.593  0.8307  2.0899  2.2264
   77SLPC   C25 6979  -0.286   3.766   7.659 -0.3223  0.0011 -0.0167
   77SLPC   H5R 6980  -0.292   3.655   7.665 -0.1200  0.0380  1.0849
   77SLPC   H5S 6981  -0.375   3.811   7.610 -0.8196 -0.0131  0.8522
   77SLPC   C26 6982  -0.269   3.829   7.794  0.7338  0.5180  0.0520
   77SLPC   H6R 6983  -0.274   3.940   7.793 -1.5666  0.5172 -3.1256
   77SLPC   H6S 6984  -0.166   3.806   7.828  0.0310 -1.7041  0.8287
   77SLPC   C27 6985  -0.374   3.781   7.903 -0.3138 -0.0620 -0.6428
   77SLPC   H7R 6986  -0.359   3.671   7.910  3.6640  0.4460  1.3613
   77SLPC   H7S 6987  -0.474   3.816   7.869  0.4061  2.2350 -0.5334
   77SLPC   C28 6988  -0.335   3.856   8.029 -0.0355 -0.0938  0.4565
   77SLPC   H8R 6989  -0.354   3.965   8.021  0.0903 -0.0492  0.7738
   77SLPC   H8S 6990  -0.225   3.841   8.035 -0.2057 -2.2252 -0.7389
   77SLPC   C29 6991  -0.415   3.807   8.146 -0.0839  0.1020 -0.0082
   77SLPC   H9R 6992  -0.523   3.822   8.135  0.0769 -0.2644 -2.7432
   77SLPC  C210 6993  -0.364   3.729   8.247 -0.5528  0.6804  0.6063
   77SLPC  H10R 6994  -0.427   3.704   8.333 -0.6561 -1.0413  0.0691
   77SLPC  C211 6995  -0.222   3.673   8.247 -0.2631 -0.7017 -0.4521
   77SLPC  H11R 6996  -0.182   3.642   8.148  1.3828 -1.4980  0.4030
   77SLPC  H11S 6997  -0.226   3.577   8.303  1.3005 -1.2499 -1.2148
   77SLPC  C212 6998  -0.127   3.774   8.313  0.1794 -0.2324 -0.7020
   77SLPC  H12R 6999  -0.126   3.872   8.263 -3.7316 -0.1719 -0.9487
   77SLPC  C213 7000  -0.058   3.763   8.429  0.0614  0.0984  0.3016
   77SLPC  H13R 7001   0.002   3.846   8.468 -0.0649  0.8121 -0.9664
   77SLPC  C214 7002  -0.075   3.645   8.524 -0.3115 -0.0632  0.2299
   77SLPC  H14R 7003  -0.145   3.562   8.501  2.5518 -2.6610  0.3094
   77SLPC  H14S 7004  -0.095   3.691   8.624  0.2259 -1.8374  1.1986
   77SLPC  C215 7005   0.062   3.576   8.538  0.0194 -0.4272  0.3827
   77SLPC  H15R 7006   0.138   3.654   8.560  0.9392 -1.4662  0.9394
   77SLPC  H15S 7007   0.080   3.520   8.444 -3.6700  0.5905 -1.1151
   77SLPC  C216 7008   0.069   3.473   8.650 -0.0248  0.3469  0.1855
   77SLPC  H16R 7009   0.140   3.394   8.616  0.9856  0.0959  2.7181
   77SLPC  H16S 7010  -0.030   3.426   8.669 -1.6534  2.6543 -1.9013
   77SLPC  C217 7011   0.137   3.528   8.780 -0.4005  1.0695 -0.2728
   77SLPC  H17R 7012   0.079   3.615   8.819 -0.3169  1.0801 -0.1712
   77SLPC  H17S 7013   0.232   3.568   8.738  0.1623  1.9188  1.6847
   77SLPC  C218 7014   0.167   3.428   8.890  0.3611  0.1457 -0.2641
   77SLPC  H18R 7015   0.078   3.391   8.945  0.2800  1.6427  0.6906
   77SLPC  H18S 7016   0.232   3.483   8.961 -1.2370 -0.0831  1.4477
   77SLPC  H18T 7017   0.217   3.333   8.862 -1.3037 -0.6794 -0.5617
   77SLPC   C33 7018  -0.330   3.309   7.015 -0.1511  0.3463 -1.2538
   77SLPC   H3X 7019  -0.383   3.216   7.047 -1.3535  1.2745 -0.4807
   77SLPC   H3Y 7020  -0.350   3.320   6.906  1.6534  0.8512 -1.5640
   77SLPC   C34 7021  -0.400   3.423   7.093  0.1985 -1.0392  0.4424
   77SLPC   H4X 7022  -0.492   3.441   7.035  1.4186  0.0326 -1.2335
   77SLPC   H4Y 7023  -0.334   3.511   7.081 -0.0562 -1.0181 -0.9248
   77SLPC   C35 7024  -0.441   3.398   7.238  0.1214 -0.3563 -0.8831
   77SLPC   H5X 7025  -0.352   3.378   7.301 -0.5256 -0.1961  0.1049
   77SLPC   H5Y 7026  -0.503   3.306   7.231 -0.3827 -0.3029  1.7561
   77SLPC   C36 7027  -0.539   3.512   7.291 -0.1465  0.3313  0.7419
   77SLPC   H6X 7028  -0.618   3.523   7.214 -2.2688 -1.7076  2.4929
   77SLPC   H6Y 7029  -0.491   3.612   7.302  1.0211 -0.1684  0.3508
   77SLPC   C37 7030  -0.613   3.478   7.420 -0.0637 -0.0761 -0.4133
   77SLPC   H7X 7031  -0.674   3.384   7.417 -0.2959  0.0968 -1.9122
   77SLPC   H7Y 7032  -0.685   3.558   7.446  0.7892  0.3326  0.7681
   77SLPC   C38 7033  -0.512   3.465   7.540  0.3003  0.1550  0.5645
   77SLPC   H8X 7034  -0.443   3.552   7.546  1.0592 -0.2454 -1.4018
   77SLPC   H8Y 7035  -0.448   3.379   7.510  1.7750  1.3438  0.1644
   77SLPC   C39 7036  -0.572   3.418   7.672 -0.6043  0.4298  0.0995
   77SLPC   H9X 7037  -0.495   3.361   7.728 -0.7996  0.3705  0.3105
   77SLPC   H9Y 7038  -0.655   3.345   7.658  0.6164 -1.5430  2.3787
   77SLPC  C310 7039  -0.614   3.531   7.757 -0.3844  0.2162  0.2270
   77SLPC  H10X 7040  -0.709   3.571   7.716  0.2429  0.2239 -1.2737
   77SLPC  H10Y 7041  -0.545   3.616   7.775 -2.7311  1.7610  2.8555
   77SLPC  C311 7042  -0.651   3.476   7.896  0.2399 -0.1476 -0.3887
   77SLPC  H11X 7043  -0.560   3.434   7.944 -1.8257 -1.5666  2.6476
   77SLPC  H11Y 7044  -0.723   3.392   7.890 -0.7127  0.5695  0.5717
   77SLPC  C312 7045  -0.703   3.588   7.984  0.1352 -0.4761  0.4397
   77SLPC  H12X 7046  -0.794   3.637   7.944  0.2380  1.1459  2.0695
   77SLPC  H12Y 7047  -0.617   3.658   7.981 -0.8986  0.8718  1.1108
   77SLPC  C313 7048  -0.729   3.556   8.132 -0.2893 -0.2385 -0.0079
   77SLPC  H13X 7049  -0.833   3.518   8.129  0.1259 -1.4568  0.5130
   77SLPC  H13Y 7050  -0.735   3.648   8.193  2.4274  1.3822 -1.9343
   77SLPC  C314 7051  -0.619   3.472   8.187  0.7611  0.6279  0.0468
   77SLPC  H14X 7052  -0.524   3.507   8.141 -0.4370  3.4887 -0.4769
   77SLPC  H14Y 7053  -0.625   3.369   8.147  2.4067  0.6187 -0.2566
   77SLPC  C315 7054  -0.616   3.472   8.338  0.0166  0.2611  0.5681
   77SLPC  H15X 7055  -0.696   3.418   8.393  0.8582 -1.7081 -0.0665
   77SLPC  H15Y 7056  -0.627   3.575   8.377 -2.4056  0.0826  0.4805
   77SLPC  C316 7057  -0.482   3.427   8.386  0.7702  0.2256 -0.1535
   77SLPC  H16X 7058  -0.406   3.476   8.322  0.0305 -0.0957 -1.3085
   77SLPC  H16Y 7059  -0.465   3.319   8.369 -0.4559 -0.0584  0.3136
   77SLPC  C317 7060  -0.462   3.447   8.541  0.1222  0.1449 -0.1605
   77SLPC  H17X 7061  -0.451   3.556   8.559  0.8389 -0.2364  1.9980
   77SLPC  H17Y 7062  -0.361   3.411   8.567 -0.6072 -1.8506  0.0329
   77SLPC  C318 7063  -0.558   3.377   8.634  0.7264 -0.6119  0.0151
   77SLPC  H18X 7064  -0.544   3.270   8.608 -1.5493 -0.8368 -0.4896
   77SLPC  H18Y 7065  -0.664   3.397   8.604  1.6050  2.8328 -1.3835
   77SLPC  H18Z 7066  -0.535   3.411   8.737  0.2684 -0.4940  0.0843
   78SLPC     N 7067   2.306   3.876   6.255  0.0616 -0.4585  0.4343
   78SLPC   C13 7068   2.329   3.929   6.396 -0.0175 -0.4966  0.1120
   78SLPC  H13A 7069   2.258   3.890   6.467 -1.0412  0.6245 -0.2715
   78SLPC  H13B 7070   2.427   3.918   6.440  0.0469  2.7340  0.9880
   78SLPC  H13C 7071   2.308   4.034   6.391 -0.4732 -0.3817  2.8903
   78SLPC   C14 7072   2.176   3.935   6.193  0.0702 -0.8034 -0.6225
   78SLPC  H14A 7073   2.144   3.876   6.108 -1.2667 -2.1652  0.7798
   78SLPC  H14B 7074   2.092   3.925   6.260  1.0958  1.0832  1.0534
   78SLPC  H14C 7075   2.187   4.040   6.168 -2.0096 -0.8332 -1.9187
   78SLPC   C15 7076   2.303   3.730   6.246  0.3872  0.1494 -0.1479
   78SLPC  H15A 7077   2.213   3.690   6.291  0.6986 -1.4898 -0.8907
   78SLPC  H15B 7078   2.312   3.696   6.143  1.0996  0.3570 -0.1570
   78SLPC  H15C 7079   2.389   3.677   6.284 -1.7680 -2.1335  1.8933
   78SLPC   C12 7080   2.419   3.921   6.160 -0.1681 -0.1134  0.2661
   78SLPC  H12A 7081   2.413   4.023   6.127  0.0660 -0.1479  0.1132
   78SLPC  H12B 7082   2.405   3.863   6.070 -0.7928  0.4938 -0.0335
   78SLPC   C11 7083   2.562   3.896   6.214  0.6848  0.1761 -0.3081
   78SLPC  H11A 7084   2.578   3.950   6.310  0.6764 -0.0716 -0.1634
   78SLPC  H11B 7085   2.637   3.939   6.145  2.1013  0.7496  1.5098
   78SLPC     P 7086   2.670   3.696   6.345  0.0542 -0.4072 -0.5137
   78SLPC   O13 7087   2.691   3.550   6.335 -0.1880 -0.3628  0.3526
   78SLPC   O14 7088   2.791   3.779   6.348 -0.1760  0.7095  0.4202
   78SLPC   O12 7089   2.578   3.750   6.234 -0.1470 -0.2240 -0.3023
   78SLPC   O11 7090   2.598   3.720   6.478  0.7250 -0.2185 -0.3705
   78SLPC    C1 7091   2.483   3.645   6.523 -0.0652 -0.4353  0.1232
   78SLPC    HA 7092   2.394   3.702   6.488  0.9474  1.0579 -0.1282
   78SLPC    HB 7093   2.480   3.550   6.466  1.4733  0.7973 -2.2025
   78SLPC    C2 7094   2.483   3.620   6.677  0.4543 -0.8424 -0.0545
   78SLPC    HS 7095   2.401   3.549   6.698  0.5709 -1.0281 -0.2296
   78SLPC   O21 7096   2.468   3.746   6.747  0.0806  0.0848 -0.1327
   78SLPC   C21 7097   2.347   3.801   6.742 -0.1549 -0.3114  0.3483
   78SLPC   O22 7098   2.246   3.763   6.682 -0.1525 -0.3727 -0.1076
   78SLPC   C22 7099   2.347   3.918   6.829 -0.1403  0.7048 -0.9092
   78SLPC   H2R 7100   2.400   3.997   6.771 -0.2088  0.3929 -1.4016
   78SLPC   H2S 7101   2.241   3.950   6.837 -0.0517  0.5862  1.1734
   78SLPC    C3 7102   2.622   3.562   6.721  0.5344  0.2077 -0.0931
   78SLPC    HX 7103   2.700   3.640   6.709  0.1104  0.6199 -0.1859
   78SLPC    HY 7104   2.651   3.482   6.649  1.8893 -0.4118  1.0767
   78SLPC   O31 7105   2.621   3.494   6.855  1.0393  0.3183  0.1643
   78SLPC   C31 7106   2.681   3.557   6.950 -0.7391  0.0751 -0.1864
   78SLPC   O32 7107   2.739   3.670   6.939 -0.5114  0.0676 -0.3930
   78SLPC   C32 7108   2.684   3.474   7.080 -0.0560 -0.2573 -0.9310
   78SLPC   H2X 7109   2.720   3.373   7.054 -0.3070 -0.6163  0.0824
   78SLPC   H2Y 7110   2.579   3.467   7.117  0.4705 -3.5144  0.2843
   78SLPC   C23 7111   2.405   3.904   6.974 -0.1805 -0.0075 -0.1066
   78SLPC   H3R 7112   2.388   4.002   7.023  0.9500 -0.1397  0.5817
   78SLPC   H3S 7113   2.515   3.887   6.976 -0.4016 -1.6143  2.2204
   78SLPC   C24 7114   2.339   3.797   7.067 -0.8111 -0.8174  0.2469
   78SLPC   H4R 7115   2.309   3.704   7.015 -1.7309 -1.4072  1.7573
   78SLPC   H4S 7116   2.244   3.839   7.107 -1.8298 -2.5096 -0.2990
   78SLPC   C25 7117   2.438   3.754   7.180 -0.0163 -0.2959  0.1723
   78SLPC   H5R 7118   2.526   3.716   7.124  0.9758 -2.0879  2.7502
   78SLPC   H5S 7119   2.392   3.666   7.230 -0.0749 -0.7069 -0.5902
   78SLPC   C26 7120   2.474   3.861   7.291 -0.6372  0.0546  0.8907
   78SLPC   H6R 7121   2.379   3.887   7.343 -0.9888 -0.7486  0.6686
   78SLPC   H6S 7122   2.496   3.965   7.260 -1.9673  0.6652  1.8750
   78SLPC   C27 7123   2.565   3.804   7.399  0.0414 -0.3623  0.9845
   78SLPC   H7R 7124   2.612   3.893   7.445  0.6242 -0.3780  0.4254
   78SLPC   H7S 7125   2.643   3.737   7.358 -0.6896 -1.0111  0.6165
   78SLPC   C28 7126   2.489   3.731   7.507  0.2853 -0.4234 -0.1136
   78SLPC   H8R 7127   2.550   3.646   7.544 -0.3624 -1.0139 -0.3791
   78SLPC   H8S 7128   2.411   3.669   7.457 -0.8139 -1.7296  2.9203
   78SLPC   C29 7129   2.422   3.815   7.610 -0.0578  0.5382  0.7412
   78SLPC   H9R 7130   2.338   3.878   7.575 -1.4771 -0.1904  2.6109
   78SLPC  C210 7131   2.461   3.805   7.741  0.0866  0.8684  0.5420
   78SLPC  H10R 7132   2.409   3.866   7.816 -1.0354  1.7194 -0.8639
   78SLPC  C211 7133   2.562   3.710   7.797 -0.0245 -0.4102  0.1416
   78SLPC  H11R 7134   2.643   3.682   7.727 -0.0333 -0.3392  0.1033
   78SLPC  H11S 7135   2.514   3.616   7.832 -2.0133 -0.3349 -2.1242
   78SLPC  C212 7136   2.632   3.769   7.918  0.4185 -0.3344 -0.2235
   78SLPC  H12R 7137   2.660   3.875   7.905  2.1773 -0.9804 -2.2874
   78SLPC  C213 7138   2.671   3.708   8.028 -0.3167  0.0745  0.4994
   78SLPC  H13R 7139   2.721   3.762   8.109  0.0883 -0.4304  0.5905
   78SLPC  C214 7140   2.658   3.564   8.071  0.3624  0.0444  0.0505
   78SLPC  H14R 7141   2.761   3.523   8.069  0.5031  0.4279 -0.6606
   78SLPC  H14S 7142   2.600   3.504   7.997  0.2481  0.7473 -0.4360
   78SLPC  C215 7143   2.603   3.528   8.212  0.7998 -0.4474  0.1452
   78SLPC  H15R 7144   2.551   3.433   8.188  0.9853 -0.2556 -1.0830
   78SLPC  H15S 7145   2.527   3.603   8.241  1.7785  2.1556 -3.3891
   78SLPC  C216 7146   2.714   3.512   8.325 -0.1203  0.0004 -0.6457
   78SLPC  H16R 7147   2.778   3.602   8.319 -0.2216  0.2085  1.0377
   78SLPC  H16S 7148   2.776   3.420   8.326 -2.4438 -1.6612  0.7888
   78SLPC  C217 7149   2.650   3.539   8.463  0.7060  0.1983  0.2969
   78SLPC  H17R 7150   2.627   3.646   8.479 -3.2762 -0.6494  1.5726
   78SLPC  H17S 7151   2.730   3.517   8.537 -0.7230  0.5086  2.0146
   78SLPC  C218 7152   2.532   3.452   8.502 -0.1644 -0.4561  0.0467
   78SLPC  H18R 7153   2.566   3.349   8.479 -1.3806 -1.1481  1.2261
   78SLPC  H18S 7154   2.439   3.477   8.447  0.2482 -0.4961 -0.6954
   78SLPC  H18T 7155   2.515   3.450   8.612 -1.1541 -0.3774 -0.0990
   78SLPC   C33 7156   2.780   3.525   7.188 -0.1773  0.5385 -0.3093
   78SLPC   H3X 7157   2.780   3.636   7.200  0.7745  0.8138 -2.4778
   78SLPC   H3Y 7158   2.885   3.501   7.160  0.3415 -1.1655  2.7135
   78SLPC   C34 7159   2.748   3.467   7.326 -0.8211 -0.2968 -0.8214
   78SLPC   H4X 7160   2.748   3.356   7.324  1.2104 -0.3528  0.3335
   78SLPC   H4Y 7161   2.650   3.514   7.352  1.0204  2.1705  2.5120
   78SLPC   C35 7162   2.836   3.522   7.441  0.9375 -0.1243 -0.2289
   78SLPC   H5X 7163   2.787   3.620   7.457 -1.1249 -1.5930  3.5721
   78SLPC   H5Y 7164   2.940   3.534   7.403  0.4095 -1.0055 -2.0291
   78SLPC   C36 7165   2.847   3.426   7.557 -0.4991  0.0819 -0.2173
   78SLPC   H6X 7166   2.909   3.338   7.529  0.6221  1.1390 -1.2210
   78SLPC   H6Y 7167   2.744   3.392   7.578  0.6975 -2.5935  1.8980
   78SLPC   C37 7168   2.920   3.481   7.687  0.0019  0.3000  0.4329
   78SLPC   H7X 7169   2.843   3.550   7.727  0.1308 -0.4253  1.9741
   78SLPC   H7Y 7170   3.014   3.536   7.666  0.8974 -2.0499 -2.3558
   78SLPC   C38 7171   2.950   3.375   7.795 -0.0763  0.0074 -0.6321
   78SLPC   H8X 7172   3.033   3.305   7.772  0.6818 -0.1857  2.2501
   78SLPC   H8Y 7173   2.862   3.315   7.825  1.9152 -2.1236  1.4471
   78SLPC   C39 7174   3.000   3.449   7.918  0.3959 -0.0101 -0.1709
   78SLPC   H9X 7175   2.920   3.519   7.950  0.1114 -0.4093 -0.0039
   78SLPC   H9Y 7176   3.094   3.508   7.910  0.2363  0.5547  1.6855
   78SLPC  C310 7177   3.026   3.352   8.041  0.4332  0.1654  0.3906
   78SLPC  H10X 7178   3.099   3.277   8.006 -0.1560 -0.3836  0.3138
   78SLPC  H10Y 7179   2.945   3.286   8.080  1.0332 -1.1271 -0.4727
   78SLPC  C311 7180   3.078   3.417   8.165 -0.1205 -1.2185 -0.6814
   78SLPC  H11X 7181   3.011   3.500   8.197 -1.8416 -2.5788 -0.6146
   78SLPC  H11Y 7182   3.178   3.458   8.140 -1.0444  1.6739 -0.0469
   78SLPC  C312 7183   3.093   3.319   8.280 -0.3041  0.0033  0.6325
   78SLPC  H12X 7184   3.174   3.251   8.247 -0.4486 -0.9921  2.2172
   78SLPC  H12Y 7185   3.003   3.254   8.280  0.5037 -1.1493  0.9170
   78SLPC  C313 7186   3.130   3.382   8.415  0.1445  0.3363  0.2852
   78SLPC  H13X 7187   3.049   3.448   8.454  1.7619  2.1357  0.7847
   78SLPC  H13Y 7188   3.218   3.446   8.390 -0.2785  1.0626  0.6249
   78SLPC  C314 7189   3.188   3.282   8.519 -0.6177  0.3485  0.0016
   78SLPC  H14X 7190   3.250   3.331   8.597 -0.1474  0.1235 -0.2256
   78SLPC  H14Y 7191   3.246   3.203   8.466 -0.8245  0.6146 -0.6354
   78SLPC  C315 7192   3.084   3.199   8.593 -0.2291  0.5048 -0.3180
   78SLPC  H15X 7193   3.138   3.127   8.658 -1.3106 -0.4358 -0.4366
   78SLPC  H15Y 7194   3.024   3.141   8.520  0.2922 -1.0474  0.4451
   78SLPC  C316 7195   2.994   3.279   8.691 -0.3466 -0.2153  0.0572
   78SLPC  H16X 7196   3.006   3.382   8.651 -1.0493 -0.1596 -0.0347
   78SLPC  H16Y 7197   3.028   3.296   8.795 -1.5411 -0.7888  0.5578
   78SLPC  C317 7198   2.842   3.255   8.679 -0.6685  0.3397 -0.0245
   78SLPC  H17X 7199   2.837   3.147   8.701  1.5383  0.0146 -0.7952
   78SLPC  H17Y 7200   2.802   3.276   8.578  2.0987 -0.3354 -1.3729
   78SLPC  C318 7201   2.756   3.346   8.769 -0.0617  0.3172  0.1929
   78SLPC  H18X 7202   2.798   3.332   8.871  2.0196 -0.0880 -0.6684
   78SLPC  H18Y 7203   2.649   3.316   8.770 -0.0697  0.3293  1.4594
   78SLPC  H18Z 7204   2.772   3.454   8.749  0.7727 -0.0946 -1.6027
   79SLPC     N 7205   5.264   6.538   6.233 -1.1453  0.2943 -0.4676
   79SLPC   C13 7206   5.287   6.397   6.201 -0.0771  0.3976 -0.1516
   79SLPC  H13A 7207   5.279   6.340   6.292  1.3851  2.7807  1.6211
   79SLPC  H13B 7208   5.223   6.349   6.129 -0.0216 -1.5461  1.0098
   79SLPC  H13C 7209   5.388   6.377   6.168 -0.7094 -0.8820 -1.4271
   79SLPC   C14 7210   5.132   6.541   6.290 -0.1534  0.4784 -0.9749
   79SLPC  H14A 7211   5.057   6.531   6.212 -1.5426  1.2413  0.1974
   79SLPC  H14B 7212   5.111   6.460   6.358 -1.9819 -0.8003 -2.9280
   79SLPC  H14C 7213   5.119   6.636   6.340  0.7343  1.0081 -1.7107
   79SLPC   C15 7214   5.259   6.624   6.111 -0.5439  0.6992 -0.6871
   79SLPC  H15A 7215   5.357   6.629   6.066  0.5055 -1.2004  1.2332
   79SLPC  H15B 7216   5.190   6.578   6.042  0.4628 -0.5321 -0.8971
   79SLPC  H15C 7217   5.222   6.724   6.131  0.0069  0.7373  0.2278
   79SLPC   C12 7218   5.375   6.585   6.326  0.1937 -0.1023 -0.2183
   79SLPC  H12A 7219   5.353   6.688   6.349 -1.6857 -0.9078  1.9514
   79SLPC  H12B 7220   5.467   6.569   6.272  0.1779  1.7873 -0.9041
   79SLPC   C11 7221   5.399   6.506   6.455  0.4198 -0.5635 -0.1847
   79SLPC  H11A 7222   5.306   6.504   6.515 -0.4783 -1.2300 -1.5405
   79SLPC  H11B 7223   5.460   6.573   6.519  0.0987  1.8300 -2.2384
   79SLPC     P 7224   5.599   6.366   6.391 -0.0543 -0.3929  0.6006
   79SLPC   O13 7225   5.620   6.225   6.392 -0.9269 -0.2287  0.2187
   79SLPC   O14 7226   5.636   6.445   6.273  0.0423  0.0901 -0.6149
   79SLPC   O12 7227   5.444   6.377   6.433 -0.2062 -0.3277  0.2944
   79SLPC   O11 7228   5.673   6.424   6.517 -0.7194 -0.0237 -0.6496
   79SLPC    C1 7229   5.712   6.351   6.630 -0.3971  0.7620 -0.3242
   79SLPC    HA 7230   5.744   6.248   6.602 -2.1187  0.7165 -2.3997
   79SLPC    HB 7231   5.801   6.399   6.676 -0.1936 -1.5795  1.9770
   79SLPC    C2 7232   5.612   6.343   6.748 -0.3379 -1.0470  0.1120
   79SLPC    HS 7233   5.530   6.283   6.704 -0.0875  0.2304 -2.2584
   79SLPC   O21 7234   5.571   6.475   6.779  0.5122  0.3280 -0.1664
   79SLPC   C21 7235   5.442   6.492   6.806  0.1466  0.8885  0.5591
   79SLPC   O22 7236   5.355   6.417   6.769  0.1600  0.3621  0.0583
   79SLPC   C22 7237   5.413   6.614   6.881  0.2053 -0.0493 -0.2100
   79SLPC   H2R 7238   5.435   6.695   6.808 -0.2691 -0.4244 -0.7787
   79SLPC   H2S 7239   5.306   6.624   6.912 -0.3153 -2.0269 -1.2279
   79SLPC    C3 7240   5.670   6.273   6.873 -0.4683 -0.4527 -0.1237
   79SLPC    HX 7241   5.743   6.344   6.917 -1.6353  0.4350  0.4464
   79SLPC    HY 7242   5.728   6.181   6.852  1.6084  0.5286  1.0330
   79SLPC   O31 7243   5.581   6.245   6.975 -0.0310 -0.5951 -0.2398
   79SLPC   C31 7244   5.503   6.131   6.967  0.9449  0.1286 -0.4761
   79SLPC   O32 7245   5.509   6.049   6.878  0.1686 -0.8692  0.1326
   79SLPC   C32 7246   5.415   6.124   7.092 -0.2926  0.5268  0.2413
   79SLPC   H2X 7247   5.311   6.090   7.072 -1.0017  2.0738  1.1454
   79SLPC   H2Y 7248   5.405   6.225   7.138 -1.3128  0.2532  0.6370
   79SLPC   C23 7249   5.501   6.635   7.007 -0.0830 -0.7413  0.2745
   79SLPC   H3R 7250   5.482   6.738   7.045 -1.3708 -0.8264 -0.0871
   79SLPC   H3S 7251   5.608   6.624   6.979 -0.1840 -0.4159 -0.2703
   79SLPC   C24 7252   5.458   6.528   7.120  0.2805 -0.4292 -0.1810
   79SLPC   H4R 7253   5.505   6.429   7.103 -2.1348 -1.3977 -1.9412
   79SLPC   H4S 7254   5.347   6.515   7.121  0.4644 -2.2809 -0.0485
   79SLPC   C25 7255   5.488   6.593   7.260  1.0348  0.1959  0.7521
   79SLPC   H5R 7256   5.430   6.688   7.264 -0.0599 -0.5023  2.2490
   79SLPC   H5S 7257   5.596   6.619   7.262  0.7664  1.8063 -1.3833
   79SLPC   C26 7258   5.434   6.505   7.377 -0.4669 -0.0496 -0.5000
   79SLPC   H6R 7259   5.484   6.407   7.384 -0.7683 -0.1226  1.0548
   79SLPC   H6S 7260   5.326   6.481   7.369 -0.3639 -1.3126  1.2951
   79SLPC   C27 7261   5.452   6.579   7.512  0.7540  0.2769 -0.5493
   79SLPC   H7R 7262   5.404   6.680   7.508  0.0187 -0.0880 -1.1295
   79SLPC   H7S 7263   5.558   6.602   7.534  1.3757 -1.0721 -1.9911
   79SLPC   C28 7264   5.371   6.512   7.629 -0.5626  0.4089  0.1064
   79SLPC   H8R 7265   5.267   6.492   7.597 -0.6949  0.6930  0.3537
   79SLPC   H8S 7266   5.368   6.580   7.717  2.4224  0.2909  0.4058
   79SLPC   C29 7267   5.440   6.382   7.681 -0.0815  0.7323 -0.1393
   79SLPC   H9R 7268   5.491   6.325   7.602  0.6390  0.3626  0.5875
   79SLPC  C210 7269   5.441   6.340   7.810  0.0643  0.6675 -0.2000
   79SLPC  H10R 7270   5.485   6.243   7.840  0.1307  1.3055  1.9546
   79SLPC  C211 7271   5.382   6.412   7.932  0.1790  0.2865  0.6033
   79SLPC  H11R 7272   5.353   6.330   8.001  0.1819 -2.1774 -2.1435
   79SLPC  H11S 7273   5.289   6.469   7.911 -0.4622 -0.3003  1.7512
   79SLPC  C212 7274   5.487   6.499   8.001  0.3569 -0.2381 -1.0902
   79SLPC  H12R 7275   5.532   6.589   7.956 -0.5441 -0.2014 -1.9405
   79SLPC  C213 7276   5.527   6.477   8.128  0.1737 -0.0547 -0.3751
   79SLPC  H13R 7277   5.602   6.547   8.169 -0.6082  2.0884 -2.3844
   79SLPC  C214 7278   5.475   6.377   8.228 -0.1585  0.2245 -0.0139
   79SLPC  H14R 7279   5.562   6.364   8.296  0.1425  2.3803  0.0846
   79SLPC  H14S 7280   5.462   6.275   8.187  0.5204 -1.0107  2.6305
   79SLPC  C215 7281   5.368   6.435   8.316 -0.2194  1.2288  0.6429
   79SLPC  H15R 7282   5.275   6.464   8.262 -0.1381  0.2813 -0.0142
   79SLPC  H15S 7283   5.397   6.535   8.356 -1.0973  0.6888  2.7542
   79SLPC  C216 7284   5.335   6.352   8.436  1.0094 -0.5130 -0.6281
   79SLPC  H16R 7285   5.429   6.331   8.493  0.7745 -1.0117 -0.4161
   79SLPC  H16S 7286   5.304   6.248   8.412 -0.3434 -0.4691  0.7539
   79SLPC  C217 7287   5.222   6.414   8.523 -0.3520 -0.1927 -0.3796
   79SLPC  H17R 7288   5.121   6.404   8.477 -0.1390  1.8053 -1.3813
   79SLPC  H17S 7289   5.239   6.521   8.546 -1.6333 -0.5373  2.5486
   79SLPC  C218 7290   5.206   6.326   8.653  0.4900 -0.0254  0.1575
   79SLPC  H18R 7291   5.201   6.219   8.623 -0.0749  0.3991 -1.3603
   79SLPC  H18S 7292   5.115   6.351   8.710 -0.3881  2.0968 -1.9840
   79SLPC  H18T 7293   5.298   6.342   8.714 -0.4292  0.9866  1.3133
   79SLPC   C33 7294   5.481   6.048   7.207  0.1495  0.5572 -0.0974
   79SLPC   H3X 7295   5.579   6.089   7.240 -0.0601  0.9789  0.0155
   79SLPC   H3Y 7296   5.496   5.940   7.188 -2.0560 -0.3079  2.3967
   79SLPC   C34 7297   5.388   6.051   7.333  0.7360  0.0563 -0.5768
   79SLPC   H4X 7298   5.294   5.996   7.308  1.0340 -1.7946  2.0146
   79SLPC   H4Y 7299   5.360   6.158   7.342  0.5798  0.0751 -1.2152
   79SLPC   C35 7300   5.458   6.001   7.458  0.5819 -0.3484 -0.1693
   79SLPC   H5X 7301   5.543   6.071   7.470 -0.2111  0.6550 -0.2342
   79SLPC   H5Y 7302   5.488   5.900   7.425 -2.6494 -1.3177 -0.4967
   79SLPC   C36 7303   5.378   6.003   7.583  0.1385 -0.6949  0.2557
   79SLPC   H6X 7304   5.283   5.949   7.564 -0.6864  1.0020 -0.6673
   79SLPC   H6Y 7305   5.350   6.109   7.604 -1.4887 -1.1490  0.5650
   79SLPC   C37 7306   5.438   5.944   7.712  0.1815  0.1391  0.2829
   79SLPC   H7X 7307   5.528   6.008   7.722 -0.5755  1.4050 -0.6618
   79SLPC   H7Y 7308   5.473   5.839   7.702  1.0481  0.0721  3.2506
   79SLPC   C38 7309   5.343   5.965   7.837 -0.1088 -0.1287  0.1402
   79SLPC   H8X 7310   5.262   5.889   7.832 -0.0636 -0.1773  0.1369
   79SLPC   H8Y 7311   5.297   6.066   7.832  1.5831  0.7621  1.5912
   79SLPC   C39 7312   5.429   5.951   7.968 -0.1481 -0.6057 -0.5897
   79SLPC   H9X 7313   5.507   6.028   7.950 -1.4873  0.6539 -1.1879
   79SLPC   H9Y 7314   5.469   5.847   7.966 -1.5212 -1.1797 -2.9817
   79SLPC  C310 7315   5.353   5.979   8.095 -0.3564 -0.2188  0.3604
   79SLPC  H10X 7316   5.257   5.924   8.099 -1.3288  1.4521  1.3359
   79SLPC  H10Y 7317   5.327   6.087   8.103 -2.6253 -0.6685 -0.2482
   79SLPC  C311 7318   5.420   5.938   8.224 -0.2224 -0.1042 -0.5156
   79SLPC  H11X 7319   5.488   6.020   8.258  1.1077 -1.3058 -0.1917
   79SLPC  H11Y 7320   5.472   5.840   8.216  0.1463  0.0122  0.3994
   79SLPC  C312 7321   5.318   5.925   8.343  0.1733 -0.1815 -0.5164
   79SLPC  H12X 7322   5.250   5.841   8.315 -1.1187  0.3743  0.8178
   79SLPC  H12Y 7323   5.265   6.022   8.332 -0.7385 -0.9412 -4.3214
   79SLPC  C313 7324   5.400   5.909   8.471  0.4236 -0.0868 -0.2127
   79SLPC  H13X 7325   5.459   6.000   8.494  1.3414 -0.3990 -1.2435
   79SLPC  H13Y 7326   5.471   5.823   8.469 -0.7746 -1.0978 -1.0644
   79SLPC  C314 7327   5.304   5.878   8.595  0.6027  0.5523  0.0892
   79SLPC  H14X 7328   5.231   5.962   8.595  0.0362  0.1301 -2.1991
   79SLPC  H14Y 7329   5.367   5.885   8.686  0.6699 -0.1638  0.0968
   79SLPC  C315 7330   5.220   5.752   8.585  0.1156  0.3130  0.2485
   79SLPC  H15X 7331   5.168   5.773   8.489  0.0551  0.2054  0.2569
   79SLPC  H15Y 7332   5.148   5.737   8.668  0.2784 -2.6227 -0.0286
   79SLPC  C316 7333   5.300   5.620   8.553  0.2441  0.0961  0.7146
   79SLPC  H16X 7334   5.386   5.617   8.624  0.1336 -1.4905  0.8096
   79SLPC  H16Y 7335   5.338   5.620   8.449 -3.5639  2.6652 -0.8886
   79SLPC  C317 7336   5.210   5.496   8.564 -0.2697  0.3031 -0.3423
   79SLPC  H17X 7337   5.110   5.528   8.529 -1.1275  1.2796  2.6804
   79SLPC  H17Y 7338   5.196   5.478   8.672  0.6780  1.6782  0.0458
   79SLPC  C318 7339   5.275   5.381   8.494  0.1722  0.2520 -0.6383
   79SLPC  H18X 7340   5.348   5.326   8.557  1.0953  0.4683 -1.5029
   79SLPC  H18Y 7341   5.324   5.406   8.398  1.4039  3.2712  0.6386
   79SLPC  H18Z 7342   5.198   5.303   8.474  0.9950 -1.1848  1.4348
   80SLPC     N 7343   0.234   3.065   6.083  0.2272 -0.5004 -0.0731
   80SLPC   C13 7344   0.320   3.000   5.981 -0.2814  0.3871  0.8889
   80SLPC  H13A 7345   0.412   2.974   6.032 -0.6920  1.9725  2.5146
   80SLPC  H13B 7346   0.274   2.907   5.950 -2.2536  1.3153  0.8846
   80SLPC  H13C 7347   0.333   3.063   5.894 -0.1131 -0.2088  0.4733
   80SLPC   C14 7348   0.088   3.053   6.047 -0.1265  0.1213  0.3096
   80SLPC  H14A 7349   0.066   2.958   6.000  0.0881 -0.7812  1.9421
   80SLPC  H14B 7350   0.025   3.062   6.134  0.5865  0.0113  0.8537
   80SLPC  H14C 7351   0.057   3.130   5.978  1.7133  1.6406  1.0885
   80SLPC   C15 7352   0.267   3.209   6.080 -0.0515 -0.5927  0.3576
   80SLPC  H15A 7353   0.248   3.262   5.988  0.8007  1.9602  1.5341
   80SLPC  H15B 7354   0.206   3.259   6.154  2.5624 -1.3949  3.2506
   80SLPC  H15C 7355   0.371   3.223   6.105 -0.4412  2.2212  0.8287
   80SLPC   C12 7356   0.254   3.018   6.231  0.4758 -0.3605 -0.3503
   80SLPC  H12A 7357   0.199   2.926   6.240  0.4812 -0.4485 -1.1170
   80SLPC  H12B 7358   0.191   3.085   6.288 -0.3561  1.5685 -3.2805
   80SLPC   C11 7359   0.400   3.001   6.284  0.0590  0.1511  0.0772
   80SLPC  H11A 7360   0.441   2.921   6.219 -0.0190  0.0541  0.1478
   80SLPC  H11B 7361   0.403   2.953   6.384  1.8203 -2.2702 -1.0374
   80SLPC     P 7362   0.455   3.224   6.397  0.0124  0.3328  0.2922
   80SLPC   O13 7363   0.589   3.262   6.453  0.0534 -0.1363 -0.4026
   80SLPC   O14 7364   0.376   3.335   6.337 -0.1190 -0.2284 -0.7985
   80SLPC   O12 7365   0.484   3.116   6.285 -0.2762 -0.1869  0.0038
   80SLPC   O11 7366   0.379   3.151   6.522 -0.2498 -0.1708 -0.1893
   80SLPC    C1 7367   0.426   3.052   6.612 -0.1285 -0.1221  0.0015
   80SLPC    HA 7368   0.373   2.956   6.595  0.1833 -0.3008  0.0196
   80SLPC    HB 7369   0.533   3.024   6.600 -0.6930 -1.9250 -1.0574
   80SLPC    C2 7370   0.409   3.095   6.762 -0.7986 -0.1397  0.4510
   80SLPC    HS 7371   0.298   3.105   6.768 -0.7116  2.8619 -0.8127
   80SLPC   O21 7372   0.476   3.222   6.779 -1.0132 -0.0708  0.2408
   80SLPC   C21 7373   0.421   3.287   6.879  0.1043 -0.1451  0.4390
   80SLPC   O22 7374   0.313   3.263   6.926  0.1397  0.1570  0.3269
   80SLPC   C22 7375   0.518   3.391   6.929  0.2085 -0.8149  0.2368
   80SLPC   H2R 7376   0.611   3.340   6.963  0.1147 -1.3085 -0.2211
   80SLPC   H2S 7377   0.541   3.438   6.831 -2.5543  1.0697  0.4151
   80SLPC    C3 7378   0.464   2.988   6.864 -0.3028  0.2050  0.3888
   80SLPC    HX 7379   0.568   3.025   6.877 -0.3761  0.2955  0.7292
   80SLPC    HY 7380   0.466   2.886   6.821 -1.2743  0.6903 -0.8590
   80SLPC   O31 7381   0.405   2.996   6.990 -0.3416  0.2938 -0.4984
   80SLPC   C31 7382   0.474   2.987   7.108 -0.1840 -0.4533  0.4396
   80SLPC   O32 7383   0.594   2.991   7.122 -0.2507  0.3385 -0.1396
   80SLPC   C32 7384   0.382   2.976   7.226  0.0553 -0.1227 -0.5879
   80SLPC   H2X 7385   0.277   2.955   7.199  0.3760 -2.0708 -0.4808
   80SLPC   H2Y 7386   0.371   3.077   7.271  1.3037 -0.5593  0.8063
   80SLPC   C23 7387   0.460   3.494   7.029  0.3932  0.0142 -0.1360
   80SLPC   H3R 7388   0.361   3.535   7.000  1.0791  1.5817 -0.4005
   80SLPC   H3S 7389   0.527   3.582   7.041  0.4257 -0.3208  2.6552
   80SLPC   C24 7390   0.445   3.435   7.164 -0.6420  0.1027 -0.6034
   80SLPC   H4R 7391   0.544   3.399   7.199  0.6753  4.1532  0.3950
   80SLPC   H4S 7392   0.381   3.345   7.174 -1.1009  0.5682  1.1035
   80SLPC   C25 7393   0.407   3.536   7.271  0.3874  0.5664 -0.3341
   80SLPC   H5R 7394   0.318   3.592   7.235 -0.4147  1.1517  2.3394
   80SLPC   H5S 7395   0.489   3.610   7.286  0.1200  0.5260  1.4668
   80SLPC   C26 7396   0.370   3.476   7.401  0.1859  0.5574 -1.4472
   80SLPC   H6R 7397   0.358   3.555   7.478 -0.3044 -0.0268 -0.9091
   80SLPC   H6S 7398   0.458   3.418   7.435 -0.3959 -0.4041 -1.5523
   80SLPC   C27 7399   0.255   3.379   7.412  0.2957  0.9585  0.6389
   80SLPC   H7R 7400   0.277   3.315   7.501  2.2879 -2.6724 -2.1679
   80SLPC   H7S 7401   0.256   3.298   7.336  1.7022 -0.0583  1.6867
   80SLPC   C28 7402   0.122   3.446   7.402  0.4989 -0.1337 -0.2655
   80SLPC   H8R 7403   0.108   3.465   7.294 -1.3177 -2.6294 -0.5549
   80SLPC   H8S 7404   0.112   3.544   7.454  1.2581 -0.3041  0.2179
   80SLPC   C29 7405   0.011   3.351   7.447 -0.1667  0.0043  0.0161
   80SLPC   H9R 7406  -0.030   3.296   7.361 -0.1180  2.3623 -1.6239
   80SLPC  C210 7407  -0.029   3.323   7.576  0.1330 -0.0931 -0.3840
   80SLPC  H10R 7408  -0.103   3.243   7.593  2.2855 -2.2948 -0.8839
   80SLPC  C211 7409   0.028   3.384   7.703 -0.0737  0.1907 -0.6642
   80SLPC  H11R 7410   0.113   3.447   7.670 -1.3801  2.1830 -0.3767
   80SLPC  H11S 7411   0.061   3.294   7.759  0.9308  0.4505 -0.8155
   80SLPC  C212 7412  -0.078   3.460   7.771  0.1653  0.1563 -0.0160
   80SLPC  H12R 7413  -0.159   3.511   7.717  0.9253 -1.1186 -2.4885
   80SLPC  C213 7414  -0.078   3.481   7.904  0.1738  0.5341  0.2440
   80SLPC  H13R 7415  -0.168   3.532   7.943 -0.9814 -0.3231 -1.1904
   80SLPC  C214 7416   0.018   3.430   8.013 -0.1689  0.0538  0.1311
   80SLPC  H14R 7417   0.069   3.523   8.046  1.0071  0.6407 -2.9236
   80SLPC  H14S 7418   0.097   3.366   7.968  0.8886  1.7273 -0.5170
   80SLPC  C215 7419  -0.057   3.347   8.123  1.1882 -0.6681 -0.5142
   80SLPC  H15R 7420  -0.126   3.270   8.082 -0.1579 -0.0497  0.4897
   80SLPC  H15S 7421  -0.128   3.410   8.181  3.5332  3.9138 -2.1844
   80SLPC  C216 7422   0.042   3.274   8.209 -0.3375  0.4388  0.0532
   80SLPC  H16R 7423   0.094   3.340   8.282 -0.3809  2.0555 -1.3126
   80SLPC  H16S 7424   0.106   3.211   8.144 -0.7558 -0.0199  0.0791
   80SLPC  C217 7425  -0.018   3.171   8.310  0.1752 -0.3123  0.0851
   80SLPC  H17R 7426   0.063   3.116   8.363 -0.3396 -0.7683  0.4121
   80SLPC  H17S 7427  -0.083   3.098   8.256 -1.4887  1.2075 -0.0786
   80SLPC  C218 7428  -0.112   3.240   8.408  0.5292  0.0233 -0.2766
   80SLPC  H18R 7429  -0.083   3.240   8.515  0.1426 -0.1108 -0.1717
   80SLPC  H18S 7430  -0.211   3.191   8.403  0.8028 -0.4229 -2.4519
   80SLPC  H18T 7431  -0.137   3.345   8.381 -3.8835 -0.7905 -0.1161
   80SLPC   C33 7432   0.418   2.868   7.333 -0.8035  0.1666 -0.3361
   80SLPC   H3X 7433   0.525   2.888   7.356 -0.2914  1.6284 -3.5487
   80SLPC   H3Y 7434   0.409   2.762   7.301 -1.0327 -0.3122  1.2105
   80SLPC   C34 7435   0.353   2.881   7.467 -0.8680 -0.6003  0.3319
   80SLPC   H4X 7436   0.371   2.790   7.528  0.5478 -0.3881  0.2525
   80SLPC   H4Y 7437   0.244   2.891   7.448 -1.1675 -3.0602  0.4642
   80SLPC   C35 7438   0.406   2.996   7.567 -0.2790  0.5309  0.1072
   80SLPC   H5X 7439   0.373   3.095   7.532 -0.0711  0.9593  1.0800
   80SLPC   H5Y 7440   0.517   2.986   7.574 -0.4295 -0.0706  2.9171
   80SLPC   C36 7441   0.354   2.982   7.713 -0.3899 -0.1969  0.6368
   80SLPC   H6X 7442   0.402   3.055   7.781 -1.3787 -0.0942  1.2555
   80SLPC   H6Y 7443   0.380   2.883   7.755 -0.7104 -0.3901  0.3891
   80SLPC   C37 7444   0.203   3.000   7.731  0.4686 -0.2839  0.3846
   80SLPC   H7X 7445   0.158   2.903   7.697  0.3811 -0.8793  2.1236
   80SLPC   H7Y 7446   0.177   3.085   7.665  1.5776 -1.6887 -2.0262
   80SLPC   C38 7447   0.159   3.039   7.874  0.1080 -0.3038 -0.2021
   80SLPC   H8X 7448   0.186   3.147   7.882 -1.3876 -0.0071  1.3171
   80SLPC   H8Y 7449   0.222   2.979   7.943  0.5780  0.1850 -0.1991
   80SLPC   C39 7450   0.014   3.014   7.924  0.2302  0.1226  0.3071
   80SLPC   H9X 7451  -0.058   3.064   7.855  2.2624  1.1681 -1.1583
   80SLPC   H9Y 7452  -0.007   3.055   8.026 -1.9775  1.4261 -0.5884
   80SLPC  C310 7453  -0.016   2.861   7.928 -0.0608 -0.0087  0.1724
   80SLPC  H10X 7454   0.079   2.825   7.974  0.8053  1.0430 -0.7391
   80SLPC  H10Y 7455  -0.032   2.820   7.826 -2.2883 -2.1620  1.2731
   80SLPC  C311 7456  -0.142   2.824   8.006  0.4642  0.6098  0.1186
   80SLPC  H11X 7457  -0.140   2.852   8.114  1.6222 -1.4100  0.6641
   80SLPC  H11Y 7458  -0.135   2.714   8.007  0.1533  0.5440 -1.6041
   80SLPC  C312 7459  -0.269   2.863   7.927 -0.3453  0.0071 -0.6330
   80SLPC  H12X 7460  -0.270   2.801   7.835  0.1236 -1.3619  0.2527
   80SLPC  H12Y 7461  -0.277   2.968   7.893  0.0635  0.5443  0.8496
   80SLPC  C313 7462  -0.395   2.815   7.998  0.0081  0.6414  0.5694
   80SLPC  H13X 7463  -0.384   2.815   8.109  1.1150 -2.4284  0.5384
   80SLPC  H13Y 7464  -0.414   2.708   7.977 -3.5086  0.9377  1.5391
   80SLPC  C314 7465  -0.522   2.892   7.958 -0.8032 -0.1777 -0.5276
   80SLPC  H14X 7466  -0.614   2.839   7.993  0.8430 -3.1513 -0.4133
   80SLPC  H14Y 7467  -0.529   2.888   7.847  1.3540 -1.6954 -0.6623
   80SLPC  C315 7468  -0.519   3.042   8.001 -0.3273  0.8170 -0.3745
   80SLPC  H15X 7469  -0.621   3.082   7.983 -0.3407  1.0041  0.1204
   80SLPC  H15Y 7470  -0.454   3.091   7.924 -2.4070  0.4387 -2.5019
   80SLPC  C316 7471  -0.481   3.079   8.144 -0.2281 -0.6194 -0.4820
   80SLPC  H16X 7472  -0.519   3.183   8.159  1.4283 -0.0870  0.2872
   80SLPC  H16Y 7473  -0.376   3.079   8.180 -1.2563  0.3537  2.9295
   80SLPC  C317 7474  -0.557   3.003   8.258  0.2554  0.0690 -0.1163
   80SLPC  H17X 7475  -0.496   3.021   8.349  0.1064 -1.1246  0.2457
   80SLPC  H17Y 7476  -0.546   2.895   8.233  2.6378  0.4556 -1.0791
   80SLPC  C318 7477  -0.707   3.037   8.280 -0.3600  0.3307 -0.5509
   80SLPC  H18X 7478  -0.768   2.990   8.200  0.9031 -1.9483 -0.2435
   80SLPC  H18Y 7479  -0.715   3.148   8.271 -0.1058  0.2424 -2.0262
   80SLPC  H18Z 7480  -0.739   3.009   8.383  0.3888  1.2518 -0.0459
   81SAPS     N 7481   2.413   4.552  11.282 -0.1885  0.0000  0.0599
   81SAPS   HN1 7482   2.445   4.460  11.245 -0.6530 -0.3411  0.4953
   81SAPS   HN2 7483   2.335   4.576  11.218  1.0959  0.1067 -1.5481
   81SAPS   HN3 7484   2.490   4.617  11.255 -1.1825  0.3475 -2.1104
   81SAPS   C12 7485   2.372   4.549  11.423  0.1728  0.1181 -0.2288
   81SAPS  H12A 7486   2.307   4.464  11.437  0.6030  0.1024  1.9261
   81SAPS   C13 7487   2.492   4.541  11.518 -0.1494  0.6363 -0.0012
   81SAPS  O13A 7488   2.607   4.529  11.468  0.0826 -0.0893 -0.0370
   81SAPS  O13B 7489   2.477   4.505  11.636 -0.9064  0.0938  0.1329
   81SAPS   C11 7490   2.289   4.675  11.455 -0.2378 -0.3193  0.6321
   81SAPS  H11A 7491   2.331   4.771  11.417  1.4207  0.2526  3.5898
   81SAPS  H11B 7492   2.294   4.688  11.565  0.4408 -1.4976  0.7482
   81SAPS     P 7493   2.086   4.721  11.287 -0.2795 -0.0567 -0.6468
   81SAPS   O13 7494   1.971   4.637  11.262  0.1731 -0.9036  0.2119
   81SAPS   O14 7495   2.062   4.868  11.307  0.1819 -0.1449 -0.3317
   81SAPS   O12 7496   2.157   4.655  11.415  0.6657 -0.0484  0.0852
   81SAPS   O11 7497   2.197   4.702  11.172  0.9190 -0.6319 -0.2908
   81SAPS    C1 7498   2.210   4.809  11.074  0.3958  0.1299 -0.5589
   81SAPS    HA 7499   2.174   4.907  11.113  0.6307 -0.1293  0.3298
   81SAPS    HB 7500   2.317   4.813  11.045  0.6013 -0.6037  0.0688
   81SAPS    C2 7501   2.116   4.787  10.954 -0.7571  0.7062 -0.3855
   81SAPS    HS 7502   2.014   4.822  10.980 -0.9620 -0.3690  0.3400
   81SAPS   O21 7503   2.105   4.644  10.923  0.7129  0.6239 -0.7610
   81SAPS   C21 7504   1.986   4.613  10.855 -0.0946  0.7193 -0.4094
   81SAPS   O22 7505   1.896   4.690  10.841  0.1002 -0.1543 -0.1730
   81SAPS   C22 7506   1.998   4.468  10.816  0.1593  0.8734  0.7702
   81SAPS   H2R 7507   2.101   4.426  10.807 -0.0432  0.2670  1.2745
   81SAPS   H2S 7508   1.947   4.408  10.893 -1.1626 -0.0840 -0.7962
   81SAPS    C3 7509   2.163   4.856  10.820  0.1625 -0.6053 -0.1325
   81SAPS    HX 7510   2.270   4.838  10.794  0.7225  0.5821  1.1259
   81SAPS    HY 7511   2.144   4.963  10.846 -1.5168 -0.7787 -0.5643
   81SAPS   O31 7512   2.072   4.838  10.709 -0.6050 -0.0052  0.0623
   81SAPS   C31 7513   2.120   4.897  10.596  0.7264  0.0153  0.0723
   81SAPS   O32 7514   2.223   4.962  10.588 -0.4049  0.3726  0.1414
   81SAPS   C32 7515   2.033   4.850  10.481  0.0662  0.2728 -0.2735
   81SAPS   H2X 7516   1.932   4.819  10.516  0.0674  0.4299 -0.1305
   81SAPS   H2Y 7517   2.079   4.763  10.431 -2.4788 -0.9894 -0.5934
   81SAPS   C23 7518   1.921   4.444  10.683 -0.3558  0.8705  0.0832
   81SAPS   H3R 7519   1.967   4.515  10.610  0.8514 -0.1355 -0.1672
   81SAPS   H3S 7520   1.816   4.479  10.686 -0.4655  0.6296 -0.6270
   81SAPS   C24 7521   1.934   4.302  10.626  0.8073  0.4597 -0.3305
   81SAPS   H4R 7522   2.040   4.269  10.631 -0.3671 -3.7592  0.2597
   81SAPS   H4S 7523   1.909   4.304  10.518  1.0664 -1.3150 -0.4424
   81SAPS   C25 7524   1.846   4.210  10.716  0.5731 -0.2140 -0.2125
   81SAPS   H5R 7525   1.875   4.222  10.822  0.3480  0.9838 -0.2820
   81SAPS   C26 7526   1.751   4.124  10.678  0.2734  0.4288  0.9725
   81SAPS   H6R 7527   1.703   4.073  10.763  0.2666  0.4693  0.9930
   81SAPS   C27 7528   1.704   4.096  10.533  0.0807  0.0990  0.2554
   81SAPS   H7R 7529   1.730   3.990  10.512 -0.5701 -0.5410  2.4456
   81SAPS   H7S 7530   1.762   4.157  10.461  1.1873  0.7816  1.6720
   81SAPS   C28 7531   1.560   4.128  10.514 -0.0008 -0.8477  0.1826
   81SAPS   H8R 7532   1.496   4.144  10.603  0.2398 -0.1511  0.2392
   81SAPS   C29 7533   1.499   4.148  10.393  0.0681 -0.2670 -0.3996
   81SAPS   H9R 7534   1.400   4.191  10.411  0.4612 -0.9702  5.7107
   81SAPS  C210 7535   1.565   4.142  10.254 -0.5771  0.4158 -0.3747
   81SAPS  H10R 7536   1.666   4.098  10.267  0.2702  2.1498 -0.8482
   81SAPS  H10S 7537   1.586   4.246  10.222  1.6774  0.1264  0.0205
   81SAPS  C211 7538   1.485   4.068  10.155 -1.0711 -0.2462  0.6605
   81SAPS  H11R 7539   1.415   3.998  10.203  0.0115  0.1535  2.9643
   81SAPS  C212 7540   1.482   4.082  10.027 -0.7603 -0.1495 -0.0993
   81SAPS  H12R 7541   1.417   4.013   9.970  0.2540  0.2176 -1.7708
   81SAPS  C213 7542   1.566   4.176   9.940  0.4067 -0.1525 -0.3244
   81SAPS  H13R 7543   1.638   4.227  10.008 -2.4635  1.6673  1.5992
   81SAPS  H13S 7544   1.500   4.254   9.896  0.5118 -1.0121 -2.0543
   81SAPS  C214 7545   1.648   4.111   9.832 -0.6568 -0.5281  0.5933
   81SAPS  H14R 7546   1.749   4.079   9.860 -1.0789 -1.4325  1.1234
   81SAPS  C215 7547   1.616   4.089   9.706  0.1212 -0.2065 -0.0194
   81SAPS  H15R 7548   1.681   4.027   9.643 -1.1989 -3.0713  1.2598
   81SAPS  C216 7549   1.480   4.119   9.645 -0.3466  0.1704  1.0639
   81SAPS  H16R 7550   1.423   4.202   9.692 -0.9073  0.0289  0.6406
   81SAPS  H16S 7551   1.420   4.029   9.671 -0.8406  0.0017 -0.5783
   81SAPS  C217 7552   1.477   4.139   9.493  0.3047 -0.1441  0.1402
   81SAPS  H17R 7553   1.532   4.232   9.468  0.6578  0.3596  2.5445
   81SAPS  H17S 7554   1.374   4.159   9.456  1.3017  0.8067 -2.3271
   81SAPS  C218 7555   1.523   4.013   9.416 -0.4554 -0.0155 -0.2000
   81SAPS  H18R 7556   1.438   3.944   9.439 -0.7324  0.8332  1.4861
   81SAPS  H18S 7557   1.619   3.964   9.443  0.1786  0.3196 -1.7596
   81SAPS  C219 7558   1.522   4.040   9.259  0.3290 -0.3326  0.0057
   81SAPS  H19R 7559   1.578   3.950   9.224 -1.0621 -0.9565 -0.7362
   81SAPS  H19S 7560   1.582   4.132   9.244 -1.1520  1.0596  2.1365
   81SAPS  C220 7561   1.380   4.042   9.196  0.3313 -0.1384 -0.5918
   81SAPS  H20R 7562   1.393   4.051   9.086  3.6613  3.3132 -0.1369
   81SAPS  H20S 7563   1.322   4.135   9.216  0.6318 -0.0215 -0.2519
   81SAPS  H20T 7564   1.316   3.957   9.229  0.4104 -0.9283 -2.3567
   81SAPS   C33 7565   2.019   4.964  10.373 -0.7327 -0.1921 -0.7504
   81SAPS   H3X 7566   2.112   4.988  10.317 -1.0795  0.6939 -0.9688
   81SAPS   H3Y 7567   1.982   5.057  10.421 -0.7634  1.1362 -3.1744
   81SAPS   C34 7568   1.926   4.921  10.253  0.0245 -0.7444  0.2869
   81SAPS   H4X 7569   1.816   4.910  10.270 -0.0090  0.6335  1.1202
   81SAPS   H4Y 7570   1.970   4.827  10.216  0.4677 -1.4036  2.3384
   81SAPS   C35 7571   1.938   5.019  10.135  0.6668  0.5447  0.5832
   81SAPS   H5X 7572   2.044   5.038  10.108  0.6842 -1.8006 -1.4361
   81SAPS   H5Y 7573   1.889   5.115  10.163 -2.9046 -0.8750 -0.2096
   81SAPS   C36 7574   1.869   4.962  10.011  0.4125 -0.0287  0.4807
   81SAPS   H6X 7575   1.770   4.916  10.031  0.7616 -1.4403 -0.8000
   81SAPS   H6Y 7576   1.935   4.893   9.954  1.3249  1.7398 -0.7052
   81SAPS   C37 7577   1.844   5.078   9.902 -0.5510  0.1532 -0.0925
   81SAPS   H7X 7578   1.943   5.129   9.900 -0.3361 -0.2835 -1.1900
   81SAPS   H7Y 7579   1.779   5.157   9.945 -2.0609  0.3299 -2.4794
   81SAPS   C38 7580   1.780   5.045   9.770  0.0589 -0.2112 -0.2247
   81SAPS   H8X 7581   1.758   5.147   9.729  2.4878  0.9923  1.2401
   81SAPS   H8Y 7582   1.686   4.986   9.779 -0.3970 -0.2330 -3.7565
   81SAPS   C39 7583   1.889   4.981   9.680  0.0954 -0.6426 -0.1449
   81SAPS   H9X 7584   1.930   4.893   9.734  1.3325 -1.8631 -2.8715
   81SAPS   H9Y 7585   1.971   5.054   9.667  1.1231 -2.0581 -2.2027
   81SAPS  C310 7586   1.830   4.945   9.541 -0.0273 -0.1367  0.3704
   81SAPS  H10X 7587   1.761   5.024   9.504  0.0197 -0.3682 -0.2259
   81SAPS  H10Y 7588   1.778   4.848   9.556  1.1596 -0.8623 -0.0882
   81SAPS  C311 7589   1.938   4.918   9.438  0.5797  0.0484  0.0327
   81SAPS  H11X 7590   2.014   4.843   9.467  0.9723  0.0597 -0.9513
   81SAPS  H11Y 7591   2.006   5.003   9.416  1.3128  0.1403  2.3324
   81SAPS  C312 7592   1.865   4.879   9.301  0.2212 -0.5560  0.4346
   81SAPS  H12X 7593   1.805   4.968   9.272  0.7809 -1.1926 -3.0251
   81SAPS  H12Y 7594   1.791   4.798   9.321  0.2268 -0.6173  0.2142
   81SAPS  C313 7595   1.958   4.866   9.180 -0.2039  0.2006  0.0238
   81SAPS  H13X 7596   1.995   4.761   9.182  0.0509  0.2340 -1.6156
   81SAPS  H13Y 7597   2.051   4.926   9.191  0.1064 -0.2697 -0.0116
   81SAPS  C314 7598   1.888   4.885   9.043 -0.0280 -0.6419 -0.1203
   81SAPS  H14X 7599   1.955   4.860   8.958 -0.1541  0.2235 -0.4933
   81SAPS  H14Y 7600   1.872   4.995   9.039 -0.9814 -0.7625  0.1677
   81SAPS  C315 7601   1.761   4.824   9.026  0.0366  0.1429  0.0808
   81SAPS  H15X 7602   1.697   4.841   9.115 -0.5313 -0.6855 -0.1524
   81SAPS  H15Y 7603   1.777   4.715   9.018  0.6363  0.0655  1.8848
   81SAPS  C316 7604   1.670   4.872   8.907 -0.2335 -0.5472  0.3600
   81SAPS  H16X 7605   1.648   4.978   8.934  0.3063 -0.9126  2.3822
   81SAPS  H16Y 7606   1.575   4.814   8.901 -0.7840  0.0505  2.4337
   81SAPS  C317 7607   1.745   4.875   8.769 -0.2427 -0.0798 -0.6020
   81SAPS  H17X 7608   1.834   4.941   8.762  1.1645 -1.9631 -1.4086
   81SAPS  H17Y 7609   1.677   4.922   8.694 -2.2766 -0.5871  0.8264
   81SAPS  C318 7610   1.776   4.733   8.708  0.2458  0.1400  0.1225
   81SAPS  H18X 7611   1.687   4.670   8.726 -0.4909  1.3830  1.0529
   81SAPS  H18Y 7612   1.849   4.676   8.768  1.0396  2.2825  1.3110
   81SAPS  H18Z 7613   1.812   4.735   8.603 -0.6990 -3.1532 -0.3809
   82SAPS     N 7614   0.218   2.955  10.862  0.1298 -0.0362 -0.5297
   82SAPS   HN1 7615   0.168   2.864  10.862  1.3006 -0.7036  0.0796
   82SAPS   HN2 7616   0.320   2.935  10.855  0.3981  1.3539 -0.9698
   82SAPS   HN3 7617   0.209   2.991  10.959  2.1717  0.1697 -0.3733
   82SAPS   C12 7618   0.183   3.066  10.774 -0.6672  0.3156 -0.6173
   82SAPS  H12A 7619   0.179   3.032  10.672 -0.4910  1.9516 -1.1989
   82SAPS   C13 7620   0.055   3.134  10.818  0.4337  0.1913 -0.5297
   82SAPS  O13A 7621  -0.018   3.081  10.913  0.0402 -0.3584 -0.2117
   82SAPS  O13B 7622   0.012   3.231  10.751 -0.5052  0.4563 -0.1755
   82SAPS   C11 7623   0.300   3.174  10.801 -0.4131 -0.0568  0.1197
   82SAPS  H11A 7624   0.339   3.169  10.905 -1.0546 -0.6782  0.3351
   82SAPS  H11B 7625   0.280   3.283  10.791 -1.2317 -0.1806  0.4161
   82SAPS     P 7626   0.542   3.070  10.770  0.0701 -0.0066 -0.0539
   82SAPS   O13 7627   0.622   3.186  10.804  0.0706 -0.3576 -0.4474
   82SAPS   O14 7628   0.498   2.969  10.873 -0.6853  0.6360 -0.3908
   82SAPS   O12 7629   0.410   3.145  10.720  0.0564 -0.8553  0.4743
   82SAPS   O11 7630   0.596   2.994  10.640  0.5373  0.0447  0.1357
   82SAPS    C1 7631   0.548   3.056  10.516 -0.3338  0.5866  0.2142
   82SAPS    HA 7632   0.445   3.023  10.491  0.7574 -0.1498 -4.2076
   82SAPS    HB 7633   0.568   3.164  10.500  2.1613  0.5120  2.3314
   82SAPS    C2 7634   0.625   2.990  10.389  0.5361  0.2051 -0.8543
   82SAPS    HS 7635   0.555   3.000  10.303 -1.2983 -0.0968  0.5349
   82SAPS   O21 7636   0.663   2.852  10.411 -0.6261  0.1574 -0.9782
   82SAPS   C21 7637   0.565   2.770  10.413  0.1977 -0.1208  0.8591
   82SAPS   O22 7638   0.452   2.799  10.371 -0.0830 -0.2357 -0.0336
   82SAPS   C22 7639   0.606   2.636  10.486 -0.2783  0.0413 -0.5496
   82SAPS   H2R 7640   0.673   2.650  10.573 -0.1200  0.8255 -0.7895
   82SAPS   H2S 7641   0.516   2.589  10.531 -0.5964  0.9609 -0.1910
   82SAPS    C3 7642   0.751   3.063  10.356  0.2860  0.9905 -0.4705
   82SAPS    HX 7643   0.826   2.995  10.311  1.5226  0.2157  2.5026
   82SAPS    HY 7644   0.781   3.081  10.462  0.2701 -0.2205 -0.2476
   82SAPS   O31 7645   0.732   3.194  10.292  0.2268  0.5480  0.1793
   82SAPS   C31 7646   0.846   3.277  10.312  0.0952  0.1510 -0.5864
   82SAPS   O32 7647   0.947   3.232  10.361  0.0456  0.1429  0.8949
   82SAPS   C32 7648   0.832   3.420  10.268  1.0641  0.1616 -0.8208
   82SAPS   H2X 7649   0.773   3.477  10.342  0.9662 -2.2729  1.1032
   82SAPS   H2Y 7650   0.759   3.408  10.185  0.2525  1.5326 -0.3304
   82SAPS   C23 7651   0.663   2.526  10.396  0.0039  0.1006  0.6034
   82SAPS   H3R 7652   0.730   2.461  10.456 -0.2905 -1.3703 -0.5970
   82SAPS   H3S 7653   0.740   2.567  10.326 -1.3135  1.3262 -0.1854
   82SAPS   C24 7654   0.573   2.422  10.325  0.5966 -0.0552  0.2202
   82SAPS   H4R 7655   0.519   2.360  10.400 -0.8318 -0.4503 -1.0684
   82SAPS   H4S 7656   0.638   2.353  10.266 -0.7950 -1.0861 -0.1676
   82SAPS   C25 7657   0.463   2.485  10.250 -0.7895 -0.0216 -0.1695
   82SAPS   H5R 7658   0.404   2.560  10.305 -0.6722  1.0381 -1.4633
   82SAPS   C26 7659   0.441   2.473  10.120 -0.6591  0.8872  0.3168
   82SAPS   H6R 7660   0.359   2.532  10.075  0.3166  2.0388  0.0075
   82SAPS   C27 7661   0.508   2.391  10.014 -0.8189 -0.3337 -0.1691
   82SAPS   H7R 7662   0.440   2.345   9.939 -1.6677  0.9459 -0.2127
   82SAPS   H7S 7663   0.575   2.311  10.052  0.6913  1.0393  0.1549
   82SAPS   C28 7664   0.593   2.496   9.935  0.1793  0.0035 -0.3560
   82SAPS   H8R 7665   0.683   2.524   9.992  0.7908 -3.5096  0.6302
   82SAPS   C29 7666   0.568   2.542   9.810  1.1218 -0.2579  0.3009
   82SAPS   H9R 7667   0.635   2.620   9.772 -0.2404  0.6739 -0.2922
   82SAPS  C210 7668   0.453   2.510   9.718  0.6062  0.4914 -0.1766
   82SAPS  H10R 7669   0.414   2.407   9.726  0.3854  0.4260 -1.8995
   82SAPS  H10S 7670   0.484   2.521   9.612 -0.2659  0.2787 -0.4555
   82SAPS  C211 7671   0.344   2.609   9.749 -0.1592 -0.4158 -0.7732
   82SAPS  H11R 7672   0.294   2.593   9.845 -1.1011 -2.1006 -1.4956
   82SAPS  C212 7673   0.308   2.712   9.670 -0.2487  0.1203 -0.2153
   82SAPS  H12R 7674   0.235   2.784   9.710 -1.1491 -1.6172  1.4249
   82SAPS  C213 7675   0.354   2.737   9.528  0.0866 -0.1907 -1.1333
   82SAPS  H13R 7676   0.394   2.643   9.485 -0.0107 -0.8185  0.0989
   82SAPS  H13S 7677   0.446   2.799   9.541  0.0150 -0.4380  0.8519
   82SAPS  C214 7678   0.268   2.811   9.430  0.2065  0.6126 -0.0461
   82SAPS  H14R 7679   0.238   2.746   9.346 -0.7584  1.4081 -0.3371
   82SAPS  C215 7680   0.240   2.943   9.435 -0.4528  0.3430  0.6417
   82SAPS  H15R 7681   0.166   2.981   9.364  0.0007 -2.5627 -1.5821
   82SAPS  C216 7682   0.284   3.042   9.544 -0.1081  0.2680 -0.3227
   82SAPS  H16R 7683   0.367   3.011   9.611 -1.2372 -1.0767  0.5003
   82SAPS  H16S 7684   0.198   3.058   9.612  1.2902 -1.2967  1.9279
   82SAPS  C217 7685   0.312   3.180   9.485 -0.0697  0.1961  0.7405
   82SAPS  H17R 7686   0.371   3.167   9.392 -2.2835 -0.7712 -0.6008
   82SAPS  H17S 7687   0.371   3.244   9.554  0.6787 -0.0561  0.3395
   82SAPS  C218 7688   0.179   3.254   9.450 -0.2195 -0.8004 -0.0429
   82SAPS  H18R 7689   0.126   3.299   9.537  2.4795 -0.4338  1.5185
   82SAPS  H18S 7690   0.095   3.192   9.413 -1.6031  0.8141  0.2263
   82SAPS  C219 7691   0.206   3.380   9.355 -0.2833 -0.2024 -0.6445
   82SAPS  H19R 7692   0.276   3.447   9.409  1.0430 -1.3660 -0.8376
   82SAPS  H19S 7693   0.114   3.439   9.337 -0.6112 -0.4612  0.1465
   82SAPS  C220 7694   0.278   3.351   9.225  0.2360 -0.2509  0.3600
   82SAPS  H20R 7695   0.309   3.441   9.169  2.9377 -2.2156 -1.6218
   82SAPS  H20S 7696   0.218   3.283   9.162  2.0173  0.0025 -1.7259
   82SAPS  H20T 7697   0.372   3.294   9.247 -0.4654 -0.9409  1.7009
   82SAPS   C33 7698   0.958   3.494  10.227 -0.2101 -0.0277 -0.5691
   82SAPS   H3X 7699   1.035   3.469  10.302  0.0705 -1.4861 -1.2956
   82SAPS   H3Y 7700   0.942   3.604  10.228  1.9282  0.3105  1.0392
   82SAPS   C34 7701   1.019   3.446  10.094 -0.0899 -0.2166 -0.0039
   82SAPS   H4X 7702   0.985   3.341  10.081 -0.5301 -0.0771  0.0277
   82SAPS   H4Y 7703   1.130   3.443  10.104 -0.0150  0.3675 -0.5721
   82SAPS   C35 7704   0.986   3.521   9.967  0.7725 -0.2088 -0.2940
   82SAPS   H5X 7705   1.022   3.626   9.974  0.1927 -0.0357  0.1224
   82SAPS   H5Y 7706   0.875   3.524   9.963  0.7477 -0.1862  0.3219
   82SAPS   C36 7707   1.056   3.448   9.851 -0.1929 -0.0968  0.1886
   82SAPS   H6X 7708   1.016   3.345   9.836 -0.4202 -0.1441  1.0689
   82SAPS   H6Y 7709   1.166   3.444   9.864 -0.4796 -2.7876  2.8067
   82SAPS   C37 7710   1.026   3.518   9.714  0.8035 -0.8105  0.2908
   82SAPS   H7X 7711   1.081   3.614   9.720 -1.3395  0.3804  3.0534
   82SAPS   H7Y 7712   0.923   3.558   9.704  1.7472  1.5341 -0.6877
   82SAPS   C38 7713   1.074   3.432   9.596  0.3359 -0.5676 -0.4601
   82SAPS   H8X 7714   1.008   3.343   9.591 -2.5693  1.4735 -2.0534
   82SAPS   H8Y 7715   1.177   3.399   9.620 -0.3014 -0.1257  3.7164
   82SAPS   C39 7716   1.056   3.510   9.467  0.4713  0.3422  0.6778
   82SAPS   H9X 7717   1.110   3.607   9.466  2.2433 -0.6014 -0.8456
   82SAPS   H9Y 7718   0.949   3.518   9.438  0.1816  1.0497  1.8596
   82SAPS  C310 7719   1.111   3.430   9.355 -0.1386 -0.4824  1.4413
   82SAPS  H10X 7720   1.074   3.325   9.360 -1.5747 -0.1474 -0.6216
   82SAPS  H10Y 7721   1.221   3.415   9.358 -0.1580 -0.6884  1.1514
   82SAPS  C311 7722   1.069   3.498   9.219 -0.2919  0.9006 -0.2701
   82SAPS  H11X 7723   1.128   3.590   9.204  2.1113 -0.8311 -2.3742
   82SAPS  H11Y 7724   0.958   3.511   9.221 -0.2293  1.2971  1.0972
   82SAPS  C312 7725   1.094   3.416   9.095 -0.2638 -0.8025 -0.2331
   82SAPS  H12X 7726   1.036   3.321   9.096 -1.9950  0.1730 -1.8821
   82SAPS  H12Y 7727   1.204   3.398   9.088 -0.4979 -1.9986 -1.1057
   82SAPS  C313 7728   1.066   3.503   8.969 -0.1947 -0.2616  0.1492
   82SAPS  H13X 7729   1.117   3.601   8.972  1.6571 -1.1402 -0.9336
   82SAPS  H13Y 7730   0.958   3.528   8.962  0.0304  0.5552 -0.4710
   82SAPS  C314 7731   1.109   3.433   8.839  1.0454  0.5311 -0.3747
   82SAPS  H14X 7732   1.048   3.340   8.834 -0.0479  1.1207  1.2967
   82SAPS  H14Y 7733   1.218   3.410   8.830  1.6880  3.1785 -0.0625
   82SAPS  C315 7734   1.079   3.510   8.711  0.7183  0.6111  0.1281
   82SAPS  H15X 7735   0.969   3.518   8.703  0.7827 -0.1185 -2.7978
   82SAPS  H15Y 7736   1.101   3.452   8.619  0.8296 -1.7639  1.5717
   82SAPS  C316 7737   1.148   3.648   8.696 -0.1943 -0.0334 -0.3732
   82SAPS  H16X 7738   1.154   3.718   8.783 -2.0639  3.4528 -2.8047
   82SAPS  H16Y 7739   1.097   3.709   8.618  0.8882 -1.7805 -2.5494
   82SAPS  C317 7740   1.296   3.640   8.650 -1.3578  0.0568 -0.2621
   82SAPS  H17X 7741   1.343   3.556   8.704 -1.6903  0.4244  0.6066
   82SAPS  H17Y 7742   1.360   3.716   8.699 -1.3709 -1.9880  3.1949
   82SAPS  C318 7743   1.318   3.637   8.495  0.1009 -0.0612 -0.1416
   82SAPS  H18X 7744   1.282   3.738   8.467 -0.5064 -0.2215  0.0582
   82SAPS  H18Y 7745   1.248   3.567   8.445 -0.1362  0.7000 -0.8980
   82SAPS  H18Z 7746   1.425   3.631   8.465 -0.4747 -2.4547 -2.0117
   83SAPS     N 7747   2.244   5.060  11.352  0.0318 -0.2973  0.1831
   83SAPS   HN1 7748   2.327   5.026  11.298 -0.2862  1.2540 -1.3626
   83SAPS   HN2 7749   2.273   5.059  11.452 -0.0904  0.0591  0.2214
   83SAPS   HN3 7750   2.163   4.998  11.333  0.1212  0.0453 -1.4501
   83SAPS   C12 7751   2.226   5.204  11.314  0.4867  0.4343 -0.3440
   83SAPS  H12A 7752   2.130   5.234  11.354  0.2515  2.2267 -2.0959
   83SAPS   C13 7753   2.323   5.302  11.384 -0.3741 -0.4223  0.0173
   83SAPS  O13A 7754   2.401   5.255  11.474 -0.3866  0.1145 -0.4302
   83SAPS  O13B 7755   2.315   5.427  11.370  0.3981  0.2137  0.6169
   83SAPS   C11 7756   2.228   5.226  11.160  0.0793  0.2714 -0.7309
   83SAPS  H11A 7757   2.330   5.197  11.127 -0.0644 -0.0098 -0.9347
   83SAPS  H11B 7758   2.213   5.334  11.141  1.6662  0.5481 -0.5121
   83SAPS     P 7759   1.995   5.193  11.049 -0.1471 -0.2526 -0.4287
   83SAPS   O13 7760   1.923   5.086  10.976 -0.7825  0.2175 -0.3591
   83SAPS   O14 7761   1.920   5.242  11.168 -0.1746 -0.2172  0.2686
   83SAPS   O12 7762   2.143   5.138  11.089  0.0816 -0.1108 -0.4904
   83SAPS   O11 7763   2.014   5.316  10.946 -0.0809 -0.4609 -0.0428
   83SAPS    C1 7764   2.113   5.324  10.845 -0.9837  0.5062 -0.3098
   83SAPS    HA 7765   2.209   5.355  10.892 -0.4211 -0.6581 -0.6678
   83SAPS    HB 7766   2.129   5.224  10.800 -1.2416 -0.5142  1.7781
   83SAPS    C2 7767   2.079   5.403  10.721 -0.6613  0.4534 -0.0862
   83SAPS    HS 7768   2.067   5.510  10.745  2.2944  1.2081 -1.4771
   83SAPS   O21 7769   1.959   5.355  10.664  0.4618  1.0397 -0.2998
   83SAPS   C21 7770   1.885   5.446  10.596  0.0566 -0.3808 -0.7650
   83SAPS   O22 7771   1.913   5.564  10.587  0.1869 -0.0188  0.5798
   83SAPS   C22 7772   1.773   5.375  10.520  0.2967  0.3257 -0.3965
   83SAPS   H2R 7773   1.723   5.301  10.586 -1.8870  2.0093 -0.0433
   83SAPS   H2S 7774   1.691   5.449  10.508 -0.1678 -0.3819 -1.8478
   83SAPS    C3 7775   2.196   5.386  10.624 -0.3394 -0.2207  0.0352
   83SAPS    HX 7776   2.211   5.284  10.582  0.8482 -0.8237  1.7960
   83SAPS    HY 7777   2.283   5.405  10.691  0.1781 -0.7849 -0.4676
   83SAPS   O31 7778   2.177   5.476  10.514 -0.0517  0.0901  0.6332
   83SAPS   C31 7779   2.230   5.595  10.531 -0.8621 -0.1666 -0.1184
   83SAPS   O32 7780   2.301   5.630  10.627 -0.5943  0.5535 -0.1419
   83SAPS   C32 7781   2.208   5.685  10.407 -0.4234 -0.1733 -0.5919
   83SAPS   H2X 7782   2.102   5.712  10.421 -0.4412 -0.6524  0.2323
   83SAPS   H2Y 7783   2.218   5.621  10.316  0.0981  1.2838 -1.5976
   83SAPS   C23 7784   1.815   5.307  10.397 -0.4482  0.5815  0.6413
   83SAPS   H3R 7785   1.733   5.241  10.362  0.1464  0.3267 -0.3008
   83SAPS   H3S 7786   1.895   5.236  10.428 -1.7012 -1.0066  0.3579
   83SAPS   C24 7787   1.867   5.396  10.284  0.2740  0.5252  0.8513
   83SAPS   H4R 7788   1.899   5.329  10.202 -0.5657 -0.1820  1.0761
   83SAPS   H4S 7789   1.957   5.452  10.315 -0.2072  1.8455 -0.0692
   83SAPS   C25 7790   1.765   5.500  10.242  0.5028 -0.2349  0.0477
   83SAPS   H5R 7791   1.768   5.585  10.311 -0.3419  0.7474 -1.0905
   83SAPS   C26 7792   1.690   5.514  10.137  0.2441 -0.7421  0.6979
   83SAPS   H6R 7793   1.638   5.609  10.121  0.2024 -0.9213 -0.3176
   83SAPS   C27 7794   1.683   5.411  10.024 -0.0428 -0.1065  0.2432
   83SAPS   H7R 7795   1.575   5.401   9.999 -0.2528 -0.1810  1.1325
   83SAPS   H7S 7796   1.716   5.311  10.057  0.2391  0.0110  0.3213
   83SAPS   C28 7797   1.761   5.448   9.905  0.1131 -0.0914 -0.3175
   83SAPS   H8R 7798   1.858   5.481   9.944 -0.3370 -0.4351  1.2013
   83SAPS   C29 7799   1.727   5.453   9.772  0.5149 -0.2205 -0.4216
   83SAPS   H9R 7800   1.805   5.471   9.696  2.6611 -1.0076  1.4565
   83SAPS  C210 7801   1.593   5.405   9.723 -0.7122 -0.0402  0.0552
   83SAPS  H10R 7802   1.533   5.362   9.806 -0.8415  1.9330  1.0491
   83SAPS  H10S 7803   1.618   5.321   9.655 -2.1048  1.0304 -1.8860
   83SAPS  C211 7804   1.506   5.506   9.649 -0.0424  0.3953  0.2345
   83SAPS  H11R 7805   1.446   5.567   9.719  0.0222 -1.3169  1.8488
   83SAPS  C212 7806   1.489   5.525   9.519  0.2970 -0.4307 -0.2512
   83SAPS  H12R 7807   1.424   5.600   9.472 -0.4216 -2.1207 -2.1290
   83SAPS  C213 7808   1.562   5.435   9.421  0.1053  0.0275 -0.4600
   83SAPS  H13R 7809   1.626   5.355   9.464 -0.2606  0.8848  1.8384
   83SAPS  H13S 7810   1.630   5.502   9.365 -0.1693 -1.3375 -2.5238
   83SAPS  C214 7811   1.467   5.374   9.319 -0.1632  0.4515  0.0392
   83SAPS  H14R 7812   1.410   5.442   9.255  0.4939 -0.8141 -1.9671
   83SAPS  C215 7813   1.449   5.244   9.287  0.3176  0.3945  0.4528
   83SAPS  H15R 7814   1.370   5.220   9.213  0.7341  0.6477 -0.0762
   83SAPS  C216 7815   1.509   5.128   9.362  0.4929  0.4278  0.3650
   83SAPS  H16R 7816   1.520   5.161   9.467 -2.9312 -2.1991  1.7476
   83SAPS  H16S 7817   1.607   5.112   9.313 -0.2418 -0.0595 -1.0146
   83SAPS  C217 7818   1.423   5.002   9.362 -0.5412  0.3604  0.1784
   83SAPS  H17R 7819   1.388   4.968   9.262  0.4088  0.0181 -0.0431
   83SAPS  H17S 7820   1.325   5.017   9.413 -0.8581  0.7260 -0.5073
   83SAPS  C218 7821   1.478   4.877   9.432 -0.7043 -0.1991 -0.3239
   83SAPS  H18R 7822   1.502   4.895   9.539 -0.5938 -1.6618 -0.0724
   83SAPS  H18S 7823   1.581   4.848   9.401 -0.3968 -0.7033  1.0784
   83SAPS  C219 7824   1.394   4.751   9.428  0.0841  0.2411  0.1863
   83SAPS  H19R 7825   1.293   4.764   9.471 -0.0897 -1.9589  0.5636
   83SAPS  H19S 7826   1.443   4.682   9.499 -0.1262  2.5844  2.7690
   83SAPS  C220 7827   1.390   4.690   9.291 -0.4777  0.5024  0.1460
   83SAPS  H20R 7828   1.318   4.740   9.224 -0.3235  2.1588  1.1624
   83SAPS  H20S 7829   1.365   4.581   9.286 -0.7013  0.5802 -0.4146
   83SAPS  H20T 7830   1.494   4.703   9.255 -0.1114  1.2351  1.3974
   83SAPS   C33 7831   2.319   5.791  10.382 -0.1229  0.1695  0.4398
   83SAPS   H3X 7832   2.414   5.735  10.370  0.5503  1.4363 -0.2852
   83SAPS   H3Y 7833   2.317   5.851  10.475 -1.4516  1.4756 -0.3860
   83SAPS   C34 7834   2.296   5.875  10.256 -0.0227  0.6136 -0.2765
   83SAPS   H4X 7835   2.203   5.934  10.274  0.0374  0.6151  0.0369
   83SAPS   H4Y 7836   2.296   5.809  10.167  0.1844 -1.4541  1.1897
   83SAPS   C35 7837   2.405   5.983  10.237 -0.1751  0.3647 -0.3736
   83SAPS   H5X 7838   2.499   5.926  10.255  0.4296  0.9208 -1.6296
   83SAPS   H5Y 7839   2.382   6.056  10.318  0.3040 -1.8276  1.8455
   83SAPS   C36 7840   2.405   6.050  10.107 -0.4205 -0.5543  0.0029
   83SAPS   H6X 7841   2.418   5.973  10.028 -2.7964  1.3140 -2.4591
   83SAPS   H6Y 7842   2.489   6.121  10.092 -2.4167  1.6859 -1.4845
   83SAPS   C37 7843   2.271   6.114  10.080 -0.2369  0.1767  0.0727
   83SAPS   H7X 7844   2.233   6.172  10.166  3.2867 -0.8457  2.5562
   83SAPS   H7Y 7845   2.203   6.030  10.057  0.2590  0.3729 -2.3538
   83SAPS   C38 7846   2.269   6.209   9.952  0.6609 -0.7867 -0.2760
   83SAPS   H8X 7847   2.354   6.278   9.968  0.4800 -0.2985 -1.3046
   83SAPS   H8Y 7848   2.172   6.265   9.958  1.0251 -0.1866  0.1140
   83SAPS   C39 7849   2.302   6.131   9.823  1.4203 -0.5252 -0.2298
   83SAPS   H9X 7850   2.245   6.040   9.795 -0.3793  0.9632 -1.6803
   83SAPS   H9Y 7851   2.406   6.095   9.837  1.5164  0.7499  3.1262
   83SAPS  C310 7852   2.293   6.222   9.702 -0.3106 -0.2128 -0.7435
   83SAPS  H10X 7853   2.366   6.187   9.625  2.6412  1.2736  1.2011
   83SAPS  H10Y 7854   2.330   6.322   9.731  1.1318 -0.0030 -3.0633
   83SAPS  C311 7855   2.157   6.234   9.639 -0.2476  0.3653 -0.0786
   83SAPS  H11X 7856   2.080   6.253   9.716 -0.1009  2.2261 -0.3456
   83SAPS  H11Y 7857   2.120   6.143   9.586 -0.2223  0.5238 -0.3713
   83SAPS  C312 7858   2.157   6.352   9.539  0.2910  0.6609  0.4452
   83SAPS  H12X 7859   2.200   6.440   9.592 -1.0122  0.6196  1.6542
   83SAPS  H12Y 7860   2.051   6.375   9.518  0.4039  2.4128  1.5493
   83SAPS  C313 7861   2.239   6.326   9.413 -0.5781  0.0943 -0.1523
   83SAPS  H13X 7862   2.193   6.235   9.369  1.8887 -0.4675 -1.7664
   83SAPS  H13Y 7863   2.340   6.287   9.436  0.3039  2.0887 -0.4271
   83SAPS  C314 7864   2.251   6.439   9.316  0.1016 -0.6624 -0.2662
   83SAPS  H14X 7865   2.308   6.519   9.370 -2.5828  2.5248 -1.7854
   83SAPS  H14Y 7866   2.156   6.494   9.294  0.8802  0.0250 -2.1237
   83SAPS  C315 7867   2.322   6.404   9.188 -0.2242  0.6838  0.6830
   83SAPS  H15X 7868   2.409   6.338   9.208  0.2284  1.5914  1.8102
   83SAPS  H15Y 7869   2.366   6.496   9.144  0.0101  0.3580  0.2189
   83SAPS  C316 7870   2.226   6.331   9.089 -0.4941  0.7746 -0.5426
   83SAPS  H16X 7871   2.174   6.408   9.029 -3.4914 -2.4029 -2.4078
   83SAPS  H16Y 7872   2.143   6.286   9.148  0.5064 -1.0717 -0.4571
   83SAPS  C317 7873   2.275   6.234   8.984  0.2200  0.1961 -1.1087
   83SAPS  H17X 7874   2.357   6.272   8.918  1.6300 -1.2456 -0.2635
   83SAPS  H17Y 7875   2.186   6.202   8.926 -0.3805  0.7815 -0.5272
   83SAPS  C318 7876   2.333   6.105   9.054 -0.3901 -0.0325 -0.3672
   83SAPS  H18X 7877   2.439   6.126   9.079 -0.8900  3.3179 -0.5043
   83SAPS  H18Y 7878   2.337   6.013   8.991 -3.6033 -1.1249  0.8689
   83SAPS  H18Z 7879   2.271   6.090   9.145  2.3595 -1.5663  1.3948
   84SAPS     N 7880   3.669   2.491  11.507  0.8635 -0.7374 -1.0257
   84SAPS   HN1 7881   3.628   2.464  11.599 -0.6610  2.5813 -0.5446
   84SAPS   HN2 7882   3.689   2.593  11.499 -1.2029 -0.1981 -0.1325
   84SAPS   HN3 7883   3.613   2.467  11.423  0.4858 -1.6791 -0.5104
   84SAPS   C12 7884   3.795   2.420  11.510 -0.0773  0.1242  0.6915
   84SAPS  H12A 7885   3.838   2.431  11.608 -0.0942  0.9659  0.6094
   84SAPS   C13 7886   3.776   2.268  11.478 -0.0752 -0.0089 -0.1808
   84SAPS  O13A 7887   3.658   2.223  11.448 -0.0851 -0.2658  0.4573
   84SAPS  O13B 7888   3.875   2.192  11.497 -0.3095  0.0786 -0.1513
   84SAPS   C11 7889   3.886   2.483  11.398 -0.2825  0.3514 -0.5096
   84SAPS  H11A 7890   3.848   2.466  11.296  0.2310 -1.0967 -0.4792
   84SAPS  H11B 7891   3.983   2.431  11.415 -0.2543  0.4948 -0.2174
   84SAPS     P 7892   4.016   2.726  11.388 -0.3696 -0.2776 -0.1589
   84SAPS   O13 7893   3.991   2.858  11.445  0.6706 -0.6893 -0.0635
   84SAPS   O14 7894   4.151   2.663  11.415 -0.0878  0.5724 -0.3511
   84SAPS   O12 7895   3.897   2.626  11.427  0.2777  0.6049 -0.1425
   84SAPS   O11 7896   3.998   2.732  11.234  0.6930 -0.5610 -0.0662
   84SAPS    C1 7897   3.872   2.737  11.168 -0.2492 -0.0594  0.0194
   84SAPS    HA 7898   3.867   2.651  11.099 -0.1358 -0.3255  0.3400
   84SAPS    HB 7899   3.784   2.721  11.235 -0.7298  0.1916 -0.5395
   84SAPS    C2 7900   3.861   2.865  11.083  0.2818  0.2078  0.1049
   84SAPS    HS 7901   3.772   2.841  11.021 -0.3266 -0.6210  1.2658
   84SAPS   O21 7902   3.986   2.896  11.014  0.4391 -0.1715 -0.2391
   84SAPS   C21 7903   3.994   2.830  10.902 -0.2925 -0.6163 -0.3885
   84SAPS   O22 7904   3.916   2.746  10.864 -0.0765 -0.0839  0.1741
   84SAPS   C22 7905   4.117   2.880  10.829  0.2290 -0.0443  0.4624
   84SAPS   H2R 7906   4.112   2.989  10.852 -1.3641 -0.0475  0.2172
   84SAPS   H2S 7907   4.208   2.837  10.874 -0.6528 -0.2841  2.0671
   84SAPS    C3 7908   3.827   2.997  11.176 -0.1688  0.5784  0.0821
   84SAPS    HX 7909   3.922   3.026  11.226 -0.3754  0.4481  0.5506
   84SAPS    HY 7910   3.752   2.972  11.254 -0.8050  0.5325 -0.5350
   84SAPS   O31 7911   3.777   3.101  11.097  0.0505 -0.4757  0.2300
   84SAPS   C31 7912   3.653   3.108  11.071 -0.3449  0.3700  0.3084
   84SAPS   O32 7913   3.559   3.069  11.137  0.6802 -0.5332 -0.3461
   84SAPS   C32 7914   3.646   3.166  10.928 -0.3604  0.4463 -0.2614
   84SAPS   H2X 7915   3.662   3.276  10.923 -1.8370  0.8411  2.2140
   84SAPS   H2Y 7916   3.540   3.154  10.898 -0.0892  2.1339 -2.0902
   84SAPS   C23 7917   4.125   2.840  10.683  0.2069  0.2825  0.2237
   84SAPS   H3R 7918   4.056   2.877  10.605  0.7122 -1.3135 -1.0280
   84SAPS   H3S 7919   4.110   2.730  10.683  0.2838  0.2717  0.2107
   84SAPS   C24 7920   4.264   2.868  10.627 -0.2073 -0.1264  0.8069
   84SAPS   H4R 7921   4.274   2.814  10.531  0.7169 -0.4540  1.0711
   84SAPS   H4S 7922   4.348   2.836  10.693  1.3229  1.5264 -0.2434
   84SAPS   C25 7923   4.286   3.015  10.608  0.1375 -0.0630 -0.3108
   84SAPS   H5R 7924   4.312   3.061  10.704 -0.3437 -1.4032  0.4829
   84SAPS   C26 7925   4.278   3.091  10.495 -0.2526  0.3750  0.2714
   84SAPS   H6R 7926   4.306   3.196  10.508 -2.3239  0.8741  0.9423
   84SAPS   C27 7927   4.245   3.050  10.351 -0.2966 -0.0290 -0.3292
   84SAPS   H7R 7928   4.175   2.964  10.341  1.6353 -1.7667  0.3311
   84SAPS   H7S 7929   4.337   3.027  10.293  0.8279  0.9356  0.9975
   84SAPS   C28 7930   4.158   3.159  10.302 -0.7035 -0.0423 -0.2550
   84SAPS   H8R 7931   4.067   3.185  10.357 -1.2186  0.2030 -1.2022
   84SAPS   C29 7932   4.168   3.219  10.182  0.6152 -0.5368 -0.3602
   84SAPS   H9R 7933   4.098   3.299  10.153  0.7376 -0.0747  0.6029
   84SAPS  C210 7934   4.270   3.182  10.078  0.5044 -0.3535  0.1618
   84SAPS  H10R 7935   4.370   3.179  10.126 -1.2089 -3.0532  4.1442
   84SAPS  H10S 7936   4.276   3.266  10.005  3.1935 -1.1116 -0.6041
   84SAPS  C211 7937   4.243   3.050   9.999  0.0522 -0.1082 -0.2719
   84SAPS  H11R 7938   4.216   2.969  10.068 -0.5462  0.8113  0.5979
   84SAPS  C212 7939   4.240   3.022   9.869 -1.1078 -0.2511 -0.1552
   84SAPS  H12R 7940   4.207   2.921   9.842 -2.3902  0.2540 -0.5801
   84SAPS  C213 7941   4.264   3.129   9.765  0.5202 -0.6496  0.7269
   84SAPS  H13R 7942   4.371   3.136   9.736  0.6684 -1.4688  1.0666
   84SAPS  H13S 7943   4.234   3.228   9.806  1.4478 -0.5978  1.3027
   84SAPS  C214 7944   4.166   3.092   9.646 -0.4872  0.0914 -0.4824
   84SAPS  H14R 7945   4.087   3.021   9.674  0.3396 -0.6684 -0.0184
   84SAPS  C215 7946   4.193   3.113   9.512 -0.1144 -0.3922 -0.2492
   84SAPS  H15R 7947   4.114   3.084   9.441 -0.6008 -0.9761  0.5108
   84SAPS  C216 7948   4.310   3.183   9.458 -0.1538 -0.4697  0.3236
   84SAPS  H16R 7949   4.334   3.154   9.353  1.3250 -1.1259  0.8046
   84SAPS  H16S 7950   4.401   3.163   9.519  0.6257 -1.0523 -0.9774
   84SAPS  C217 7951   4.308   3.339   9.467 -0.3837  0.3083  0.1643
   84SAPS  H17R 7952   4.313   3.367   9.575  0.6673 -3.1388  1.1245
   84SAPS  H17S 7953   4.218   3.386   9.422 -0.2806 -1.2842 -1.8511
   84SAPS  C218 7954   4.438   3.392   9.398  0.7489 -0.3893 -0.4478
   84SAPS  H18R 7955   4.524   3.336   9.441  0.6974  0.0865  0.2945
   84SAPS  H18S 7956   4.446   3.490   9.450  0.5338  0.8634 -2.6594
   84SAPS  C219 7957   4.445   3.410   9.253  0.5440 -0.1650 -0.2199
   84SAPS  H19R 7958   4.353   3.462   9.218  1.0633 -0.3587 -2.0018
   84SAPS  H19S 7959   4.441   3.312   9.200  1.2033 -1.4411  1.9856
   84SAPS  C220 7960   4.569   3.482   9.218 -0.7622  0.1961 -0.4629
   84SAPS  H20R 7961   4.567   3.506   9.109  0.3275  2.8911  0.0401
   84SAPS  H20S 7962   4.656   3.419   9.246 -1.4212 -0.6887 -0.3475
   84SAPS  H20T 7963   4.581   3.574   9.278  0.5110 -0.8445  0.9498
   84SAPS   C33 7964   3.739   3.110  10.828 -0.4441  0.6428  0.3351
   84SAPS   H3X 7965   3.731   3.001  10.807  0.5791  0.6873 -0.3643
   84SAPS   H3Y 7966   3.842   3.124  10.867 -1.3242  2.9179  2.0861
   84SAPS   C34 7967   3.736   3.175  10.692 -0.3554 -0.1584 -0.6671
   84SAPS   H4X 7968   3.783   3.276  10.687  1.2458 -0.8477 -0.2613
   84SAPS   H4Y 7969   3.635   3.189  10.649  0.3359  0.6504 -2.0777
   84SAPS   C35 7970   3.815   3.107  10.579 -0.4244  0.3667  0.3613
   84SAPS   H5X 7971   3.793   2.999  10.572  1.5849 -0.0377 -0.4599
   84SAPS   H5Y 7972   3.923   3.096  10.599 -0.4219 -2.8557 -0.8319
   84SAPS   C36 7973   3.797   3.161  10.434 -0.4524 -0.1889  0.5939
   84SAPS   H6X 7974   3.879   3.237  10.440 -0.1255 -0.6216  1.7482
   84SAPS   H6Y 7975   3.703   3.220  10.424  0.4522  1.0569 -1.1640
   84SAPS   C37 7976   3.819   3.062  10.322 -0.5520  0.4103 -0.3235
   84SAPS   H7X 7977   3.902   2.992  10.345  1.4597  2.4245 -1.1536
   84SAPS   H7Y 7978   3.864   3.114  10.235  1.9553 -2.6468 -1.0770
   84SAPS   C38 7979   3.692   2.996  10.273  0.1955 -0.1986  0.4865
   84SAPS   H8X 7980   3.625   3.077  10.237 -0.4256 -2.1382 -3.1768
   84SAPS   H8Y 7981   3.645   2.951  10.363 -1.3219  1.0224  0.3346
   84SAPS   C39 7982   3.706   2.886  10.170  0.7003  0.2942  0.0944
   84SAPS   H9X 7983   3.605   2.842  10.160  0.3847  1.2388 -1.0609
   84SAPS   H9Y 7984   3.768   2.806  10.216  1.3936  0.1643 -1.0135
   84SAPS  C310 7985   3.755   2.929  10.025  0.2982 -0.6711 -0.4319
   84SAPS  H10X 7986   3.861   2.955  10.046  0.1906 -0.3071 -0.3490
   84SAPS  H10Y 7987   3.692   3.009   9.983  3.6982  2.6135  0.2144
   84SAPS  C311 7988   3.735   2.817   9.921  0.9023  0.4815  0.0651
   84SAPS  H11X 7989   3.628   2.822   9.894  1.1883 -0.4925 -1.2984
   84SAPS  H11Y 7990   3.732   2.717   9.969 -1.0030 -1.4822 -3.7408
   84SAPS  C312 7991   3.834   2.816   9.808 -0.1965 -0.5258  0.9111
   84SAPS  H12X 7992   3.933   2.864   9.818  0.1287 -0.6385 -1.2286
   84SAPS  H12Y 7993   3.797   2.886   9.730 -1.4675  0.7188  2.5418
   84SAPS  C313 7994   3.855   2.682   9.736 -0.2103  0.0546 -0.2944
   84SAPS  H13X 7995   3.760   2.626   9.730  1.2823 -2.6838 -0.1480
   84SAPS  H13Y 7996   3.911   2.610   9.799  0.0250 -1.7507 -2.4314
   84SAPS  C314 7997   3.945   2.684   9.611 -0.0378 -0.1948  0.5865
   84SAPS  H14X 7998   4.053   2.704   9.630 -0.4398  0.8450  2.0224
   84SAPS  H14Y 7999   3.900   2.765   9.550  2.4702  0.8604  0.0272
   84SAPS  C315 8000   3.942   2.542   9.533  0.0013 -0.9448 -0.7143
   84SAPS  H15X 8001   3.834   2.518   9.515  0.3076 -1.7427 -1.5651
   84SAPS  H15Y 8002   3.984   2.460   9.596  0.1317 -0.0599  0.3730
   84SAPS  C316 8003   4.017   2.550   9.403  0.2078  0.0919  0.7932
   84SAPS  H16X 8004   4.124   2.568   9.430  0.1182 -2.2341  3.0308
   84SAPS  H16Y 8005   3.991   2.645   9.351 -0.5926 -0.0677  0.8963
   84SAPS  C317 8006   4.018   2.420   9.325 -0.0325 -0.0608  0.1269
   84SAPS  H17X 8007   3.915   2.385   9.300 -0.6785  0.9197  1.3406
   84SAPS  H17Y 8008   4.076   2.350   9.389  0.1119  0.3805  0.4785
   84SAPS  C318 8009   4.080   2.441   9.180 -0.4294 -0.2544 -0.6897
   84SAPS  H18X 8010   4.067   2.355   9.111  1.0584 -1.7310  0.7694
   84SAPS  H18Y 8011   4.190   2.459   9.178 -0.4873  0.1690 -0.2003
   84SAPS  H18Z 8012   4.036   2.536   9.143 -1.3613 -0.3483  0.1373
   85SAPS     N 8013   0.768   6.532  11.330 -0.5841  0.0165 -0.1630
   85SAPS   HN1 8014   0.719   6.555  11.418 -1.9528 -2.4161 -0.1941
   85SAPS   HN2 8015   0.817   6.620  11.305  2.4381 -0.8023  2.2727
   85SAPS   HN3 8016   0.692   6.499  11.266 -0.7072  1.1134 -0.5987
   85SAPS   C12 8017   0.877   6.430  11.338 -0.3067 -0.3554  0.0222
   85SAPS  H12A 8018   0.942   6.437  11.251  0.2578 -4.0974 -0.0023
   85SAPS   C13 8019   0.964   6.437  11.468  1.4032  0.3498  0.1918
   85SAPS  O13A 8020   0.926   6.509  11.562  0.0344 -0.6575 -0.0950
   85SAPS  O13B 8021   1.053   6.351  11.487  0.0774  0.3498  0.5073
   85SAPS   C11 8022   0.809   6.289  11.343 -0.0952  0.2969 -0.2537
   85SAPS  H11A 8023   0.743   6.284  11.432 -1.0787 -0.7336 -1.0145
   85SAPS  H11B 8024   0.891   6.214  11.346 -0.5369 -0.1821 -0.0321
   85SAPS     P 8025   0.681   6.152  11.139 -0.1421 -0.0673 -0.7697
   85SAPS   O13 8026   0.637   6.029  11.215  0.3073  0.1025  0.6154
   85SAPS   O14 8027   0.586   6.195  11.032  0.1548 -0.3577 -0.8780
   85SAPS   O12 8028   0.716   6.276  11.228  0.1624 -0.6052 -0.0329
   85SAPS   O11 8029   0.817   6.123  11.069  0.1880  1.0662  0.8600
   85SAPS    C1 8030   0.931   6.058  11.115 -0.0086  0.0418 -0.4384
   85SAPS    HA 8031   0.995   6.133  11.166  0.6023 -0.9079  0.2306
   85SAPS    HB 8032   0.906   5.985  11.195 -0.6028 -0.9864 -1.5372
   85SAPS    C2 8033   1.012   6.000  10.997  0.2591  0.8211  0.5427
   85SAPS    HS 8034   1.095   5.938  11.036  0.4786  0.9713  0.3108
   85SAPS   O21 8035   1.050   6.119  10.926 -0.2702  0.2471  0.1466
   85SAPS   C21 8036   1.167   6.115  10.858 -0.5597  0.2055  0.3280
   85SAPS   O22 8037   1.239   6.017  10.847  0.2585  0.0099  0.2722
   85SAPS   C22 8038   1.211   6.255  10.811  0.0878 -0.1428  0.3364
   85SAPS   H2R 8039   1.122   6.322  10.806  0.0822 -0.2086 -0.4656
   85SAPS   H2S 8040   1.281   6.290  10.890 -0.1752  0.8862  0.1285
   85SAPS    C3 8041   0.924   5.894  10.909 -0.2120 -0.2272  0.6846
   85SAPS    HX 8042   0.836   5.944  10.864 -0.2550  1.6477  2.6896
   85SAPS    HY 8043   0.889   5.821  10.985 -0.0697 -1.8525 -0.7519
   85SAPS   O31 8044   0.991   5.830  10.796  0.0333 -0.2283 -0.5968
   85SAPS   C31 8045   0.932   5.713  10.761 -0.9342 -0.1680  0.1010
   85SAPS   O32 8046   0.840   5.660  10.822 -0.3963 -0.0708 -0.0513
   85SAPS   C32 8047   1.000   5.648  10.644  0.4194 -0.4194  0.1081
   85SAPS   H2X 8048   1.075   5.576  10.684 -0.9725 -0.5902  2.6749
   85SAPS   H2Y 8049   1.030   5.727  10.572  0.1064 -0.5299 -0.1441
   85SAPS   C23 8050   1.286   6.263  10.675 -0.0265  0.2547  0.6907
   85SAPS   H3R 8051   1.215   6.218  10.602 -1.4109  3.2678  0.0154
   85SAPS   H3S 8052   1.374   6.197  10.688 -0.5734 -0.8322 -0.8442
   85SAPS   C24 8053   1.326   6.402  10.629  0.2490  0.0880 -0.0974
   85SAPS   H4R 8054   1.370   6.450  10.719  0.2293 -0.2583  0.1001
   85SAPS   H4S 8055   1.238   6.469  10.616  0.3236  0.3760  0.7993
   85SAPS   C25 8056   1.430   6.413  10.521  0.7697 -0.5740 -0.4640
   85SAPS   H5R 8057   1.534   6.421  10.559  0.8581 -0.8797 -0.6406
   85SAPS   C26 8058   1.411   6.401  10.387  0.5418  0.5968 -1.0113
   85SAPS   H6R 8059   1.493   6.420  10.316 -1.1404  2.6136 -2.5382
   85SAPS   C27 8060   1.279   6.372  10.326 -0.6545  0.4377  0.2068
   85SAPS   H7R 8061   1.216   6.463  10.317 -0.6132  0.6692  1.9281
   85SAPS   H7S 8062   1.227   6.309  10.402 -1.4086  0.9561  0.1336
   85SAPS   C28 8063   1.282   6.292  10.204  0.2188  0.1767 -0.4278
   85SAPS   H8R 8064   1.284   6.182  10.205 -2.8438 -0.0831 -3.7606
   85SAPS   C29 8065   1.300   6.347  10.084  0.1679 -0.9976  0.7723
   85SAPS   H9R 8066   1.305   6.278   9.999 -0.0843 -0.0108 -0.0734
   85SAPS  C210 8067   1.317   6.492  10.038  0.0324 -0.7198 -0.8856
   85SAPS  H10R 8068   1.424   6.514  10.022  0.2355 -0.4481  0.6226
   85SAPS  H10S 8069   1.289   6.562  10.120 -1.4499 -0.6788 -1.3968
   85SAPS  C211 8070   1.244   6.540   9.919 -0.2445  0.5684  0.1809
   85SAPS  H11R 8071   1.158   6.606   9.939  1.0071  2.7629 -1.2284
   85SAPS  C212 8072   1.280   6.514   9.791 -0.4000 -0.0376 -0.3884
   85SAPS  H12R 8073   1.219   6.553   9.708 -2.2880 -0.0813  0.9037
   85SAPS  C213 8074   1.400   6.429   9.735  0.1274 -0.1892  0.0298
   85SAPS  H13R 8075   1.471   6.401   9.816 -0.1207  0.6360  0.5350
   85SAPS  H13S 8076   1.468   6.491   9.672 -0.4283  3.5634  2.7922
   85SAPS  C214 8077   1.350   6.309   9.656  0.7582 -0.1017  0.3566
   85SAPS  H14R 8078   1.345   6.211   9.706 -0.3979 -0.3861 -0.2951
   85SAPS  C215 8079   1.310   6.323   9.524 -0.2604  0.3516  0.0158
   85SAPS  H15R 8080   1.273   6.236   9.468  0.2979  0.6824 -0.8879
   85SAPS  C216 8081   1.321   6.442   9.433  0.0851 -0.5453 -0.1951
   85SAPS  H16R 8082   1.424   6.482   9.431  0.7656 -2.1330  0.9533
   85SAPS  H16S 8083   1.255   6.523   9.472  3.5510  1.4760  1.9891
   85SAPS  C217 8084   1.289   6.416   9.284 -0.6720 -0.2214  0.0825
   85SAPS  H17R 8085   1.365   6.347   9.242  0.6320  1.0501  0.2269
   85SAPS  H17S 8086   1.294   6.514   9.230  0.5897 -0.9607 -1.2279
   85SAPS  C218 8087   1.149   6.360   9.260 -0.0018 -1.4607 -0.0521
   85SAPS  H18R 8088   1.074   6.435   9.293 -0.3959 -2.2274  0.8485
   85SAPS  H18S 8089   1.127   6.260   9.303 -0.6175 -1.4734 -0.3907
   85SAPS  C219 8090   1.126   6.337   9.113 -0.5790 -0.2509  0.4092
   85SAPS  H19R 8091   1.048   6.261   9.094 -1.7424  1.0567 -0.2629
   85SAPS  H19S 8092   1.217   6.290   9.068 -0.5854  0.7794 -0.7511
   85SAPS  C220 8093   1.093   6.465   9.033  0.6229 -0.0454 -0.3482
   85SAPS  H20R 8094   1.011   6.522   9.082 -0.3536 -1.4711 -0.2838
   85SAPS  H20S 8095   1.064   6.439   8.929  0.9281  1.5762 -0.8717
   85SAPS  H20T 8096   1.180   6.534   9.024  2.1431 -1.7834  0.3181
   85SAPS   C33 8097   0.906   5.564  10.550  0.0667 -0.6605 -0.3391
   85SAPS   H3X 8098   0.839   5.498  10.609 -0.7842 -1.1395 -1.8065
   85SAPS   H3Y 8099   0.957   5.497  10.478  0.2161 -2.3718  1.2797
   85SAPS   C34 8100   0.818   5.655  10.463 -0.1060 -0.1208 -0.2567
   85SAPS   H4X 8101   0.882   5.711  10.392  0.6818 -0.4359  0.1946
   85SAPS   H4Y 8102   0.767   5.716  10.541  0.9177 -1.7124  1.7729
   85SAPS   C35 8103   0.719   5.570  10.378 -0.2915  0.1225 -0.7751
   85SAPS   H5X 8104   0.659   5.494  10.431  0.8558 -2.7693 -3.2737
   85SAPS   H5Y 8105   0.784   5.515  10.306  0.8923  0.4402  0.0180
   85SAPS   C36 8106   0.633   5.662  10.294 -0.3548  0.1821  0.0645
   85SAPS   H6X 8107   0.654   5.771  10.283  0.6335  0.2285  1.9611
   85SAPS   H6Y 8108   0.535   5.663  10.348 -0.8346  2.0916 -0.7564
   85SAPS   C37 8109   0.596   5.606  10.154  0.1218 -0.0026 -0.2131
   85SAPS   H7X 8110   0.535   5.690  10.112 -1.5193 -0.5283  1.0093
   85SAPS   H7Y 8111   0.538   5.512  10.169  1.8367 -1.4748 -2.2427
   85SAPS   C38 8112   0.715   5.582  10.067  0.3899 -0.9782 -0.4501
   85SAPS   H8X 8113   0.773   5.495  10.106  0.1861 -1.2065 -0.6501
   85SAPS   H8Y 8114   0.783   5.669  10.060 -0.7624  0.0404  0.6080
   85SAPS   C39 8115   0.685   5.549   9.918 -0.1779 -0.3898 -0.7740
   85SAPS   H9X 8116   0.631   5.637   9.878  2.0869  1.6468  0.3848
   85SAPS   H9Y 8117   0.619   5.460   9.913 -0.2809 -0.3471 -0.2566
   85SAPS  C310 8118   0.817   5.546   9.841  0.0340  0.4692 -0.6237
   85SAPS  H10X 8119   0.858   5.445   9.859 -0.3100  0.3272 -0.6266
   85SAPS  H10Y 8120   0.892   5.620   9.875 -1.7109  1.7563  0.6084
   85SAPS  C311 8121   0.789   5.563   9.692 -0.5454 -0.6320  0.9335
   85SAPS  H11X 8122   0.742   5.663   9.679 -0.7995 -0.7894  0.6293
   85SAPS  H11Y 8123   0.729   5.476   9.659 -3.6271 -0.1142  4.4633
   85SAPS  C312 8124   0.921   5.563   9.612 -0.3819 -0.3530 -0.6598
   85SAPS  H12X 8125   0.962   5.460   9.621 -0.4766 -0.3040  0.4703
   85SAPS  H12Y 8126   0.995   5.629   9.661 -0.0014 -2.9269  2.5715
   85SAPS  C313 8127   0.897   5.603   9.465  0.6969 -0.2637 -0.9230
   85SAPS  H13X 8128   0.862   5.708   9.462  0.7028 -0.1765  1.0545
   85SAPS  H13Y 8129   0.811   5.546   9.422  0.7782 -1.3652  0.3039
   85SAPS  C314 8130   1.015   5.577   9.374  0.0915 -0.2808  0.2930
   85SAPS  H14X 8131   1.060   5.478   9.391  2.2454  0.4520 -0.7834
   85SAPS  H14Y 8132   1.103   5.642   9.393  1.1341 -1.5848  0.0456
   85SAPS  C315 8133   0.963   5.581   9.228 -1.0266 -0.0056 -0.4820
   85SAPS  H15X 8134   0.935   5.687   9.206  2.1763  0.6669 -1.7732
   85SAPS  H15Y 8135   0.883   5.508   9.204  0.5464 -1.4782 -1.4473
   85SAPS  C316 8136   1.079   5.548   9.133  0.3970  0.1562  0.3808
   85SAPS  H16X 8137   1.140   5.463   9.170  2.8060  1.8438  0.5525
   85SAPS  H16Y 8138   1.153   5.630   9.140  0.8709 -0.3084  0.8446
   85SAPS  C317 8139   1.053   5.536   8.978 -0.1916  0.3297  0.2271
   85SAPS  H17X 8140   1.146   5.507   8.925  0.2033 -1.2145  1.6628
   85SAPS  H17Y 8141   1.017   5.634   8.940  0.9903  0.5458 -0.3753
   85SAPS  C318 8142   0.942   5.429   8.946  0.1830 -0.3448  0.2513
   85SAPS  H18X 8143   0.960   5.333   8.997  0.3219 -0.1345  0.6014
   85SAPS  H18Y 8144   0.948   5.429   8.835  1.7396 -0.7199  0.3134
   85SAPS  H18Z 8145   0.841   5.460   8.982  0.0891  0.2611 -0.5055
   86SAPS     N 8146   3.456   6.073  11.139  0.4244 -0.1046 -0.1874
   86SAPS   HN1 8147   3.465   6.118  11.232  0.7875 -1.3502  0.4032
   86SAPS   HN2 8148   3.488   6.143  11.068  0.0079  0.1326 -0.1471
   86SAPS   HN3 8149   3.355   6.058  11.117  0.2052 -0.3809  0.9671
   86SAPS   C12 8150   3.538   5.949  11.141 -0.3326  0.0160  0.5837
   86SAPS  H12A 8151   3.542   5.914  11.039  0.2646  0.9231  0.2787
   86SAPS   C13 8152   3.681   5.972  11.186 -0.8188  0.4399 -0.3954
   86SAPS  O13A 8153   3.733   6.088  11.199 -0.0262  0.3774 -0.1262
   86SAPS  O13B 8154   3.751   5.875  11.224 -0.3581  0.6411 -0.1222
   86SAPS   C11 8155   3.464   5.844  11.237  0.3581  0.2046 -0.0581
   86SAPS  H11A 8156   3.493   5.877  11.339  0.8128 -1.0906  0.2543
   86SAPS  H11B 8157   3.517   5.749  11.217  1.1365  0.5408  0.3265
   86SAPS     P 8158   3.275   5.741  11.106 -0.1307 -0.1894 -0.3583
   86SAPS   O13 8159   3.327   5.601  11.140 -0.6222 -0.7272 -0.3794
   86SAPS   O14 8160   3.128   5.756  11.097  0.0536 -0.0477 -1.4216
   86SAPS   O12 8161   3.324   5.838  11.220  0.2657  0.0400  0.2599
   86SAPS   O11 8162   3.338   5.799  10.974  0.5028 -0.4972  0.1631
   86SAPS    C1 8163   3.268   5.776  10.847  0.7728  0.2287  0.0109
   86SAPS    HA 8164   3.236   5.670  10.843  1.7635 -0.0740 -0.5004
   86SAPS    HB 8165   3.187   5.851  10.855  2.1211  1.6347  1.2560
   86SAPS    C2 8166   3.348   5.819  10.728 -0.3427 -0.0084 -0.3743
   86SAPS    HS 8167   3.397   5.916  10.753 -2.2288  0.4108  2.1847
   86SAPS   O21 8168   3.263   5.822  10.610 -0.5333 -0.1581  0.4221
   86SAPS   C21 8169   3.307   5.908  10.520  0.1910  0.5604  0.3188
   86SAPS   O22 8170   3.389   5.995  10.535  0.4577  0.3644 -0.0860
   86SAPS   C22 8171   3.230   5.872  10.388  0.4253 -0.5538 -0.9349
   86SAPS   H2R 8172   3.126   5.845  10.414  0.8949  0.1640  2.1355
   86SAPS   H2S 8173   3.228   5.965  10.328 -1.6993 -1.2336 -1.9995
   86SAPS    C3 8174   3.469   5.721  10.705  0.5458 -0.0366 -0.1269
   86SAPS    HX 8175   3.537   5.719  10.793  0.4759 -1.8440 -0.0759
   86SAPS    HY 8176   3.518   5.773  10.620 -0.9414  1.8179  0.0887
   86SAPS   O31 8177   3.414   5.589  10.695  0.0905  0.4701  0.0475
   86SAPS   C31 8178   3.460   5.504  10.603 -0.0931  0.1307 -0.8937
   86SAPS   O32 8179   3.556   5.528  10.531  0.8654 -0.0906  0.0922
   86SAPS   C32 8180   3.380   5.377  10.603  0.7377 -0.2860 -1.0438
   86SAPS   H2X 8181   3.276   5.417  10.611  0.8578 -0.2406  0.6885
   86SAPS   H2Y 8182   3.395   5.330  10.702  1.2121 -0.4408 -1.1860
   86SAPS   C23 8183   3.302   5.753  10.317  0.8726  0.6541 -0.2968
   86SAPS   H3R 8184   3.279   5.652  10.357  1.0405  0.7193 -0.0252
   86SAPS   H3S 8185   3.408   5.778  10.341  0.3931  1.5390  1.0528
   86SAPS   C24 8186   3.282   5.742  10.166 -0.3720 -0.7205 -0.7981
   86SAPS   H4R 8187   3.352   5.663  10.131 -0.4776 -0.2917 -2.0469
   86SAPS   H4S 8188   3.300   5.839  10.114  0.9131  0.2636  1.3465
   86SAPS   C25 8189   3.141   5.690  10.153  1.0652 -0.3570  0.4817
   86SAPS   H5R 8190   3.093   5.646  10.242  1.6966 -0.4841  0.7670
   86SAPS   C26 8191   3.075   5.689  10.039  0.1652 -0.2666  0.1692
   86SAPS   H6R 8192   2.970   5.657  10.043 -0.0302  0.4846  3.2931
   86SAPS   C27 8193   3.128   5.725   9.906  0.1751  0.0292  0.8372
   86SAPS   H7R 8194   3.124   5.650   9.824 -1.1855  1.0179 -0.0484
   86SAPS   H7S 8195   3.237   5.743   9.915  0.3098 -1.1361  1.9733
   86SAPS   C28 8196   3.052   5.858   9.874  0.8452  0.2262  0.6740
   86SAPS   H8R 8197   3.031   5.925   9.958  1.5300  0.0393  0.9978
   86SAPS   C29 8198   3.000   5.894   9.750 -0.4351  0.5217  0.0097
   86SAPS   H9R 8199   2.962   5.995   9.732  1.0433  0.7820 -2.0536
   86SAPS  C210 8200   3.004   5.819   9.618  0.1531  0.0037  0.0201
   86SAPS  H10R 8201   3.100   5.765   9.631  0.4986  0.5248 -0.3259
   86SAPS  H10S 8202   3.028   5.901   9.546  0.5236  1.1199  1.3598
   86SAPS  C211 8203   2.881   5.747   9.571 -0.2724  0.1719 -0.3207
   86SAPS  H11R 8204   2.800   5.741   9.645  0.5603 -0.0386  0.6044
   86SAPS  C212 8205   2.852   5.706   9.447  0.6066 -0.2376  0.0133
   86SAPS  H12R 8206   2.750   5.678   9.417  0.6517  0.2983 -0.6972
   86SAPS  C213 8207   2.940   5.720   9.327 -0.1260  0.2418  0.2509
   86SAPS  H13R 8208   2.998   5.628   9.304  0.6658  0.6477  0.6004
   86SAPS  H13S 8209   3.022   5.793   9.342 -1.0142  1.7840 -1.8456
   86SAPS  C214 8210   2.871   5.766   9.205 -0.3205  0.1791 -0.2427
   86SAPS  H14R 8211   2.810   5.856   9.222 -1.4208 -0.2487 -1.6929
   86SAPS  C215 8212   2.865   5.708   9.086 -0.1395 -0.3212  0.4061
   86SAPS  H15R 8213   2.797   5.752   9.011 -2.7603 -2.1451  1.5730
   86SAPS  C216 8214   2.930   5.587   9.032 -0.0949  0.0721  1.0136
   86SAPS  H16R 8215   2.916   5.500   9.101  0.1993 -1.2956 -0.5816
   86SAPS  H16S 8216   3.038   5.611   9.026  0.3446 -1.7040  1.2743
   86SAPS  C217 8217   2.874   5.558   8.895  1.1101 -0.0851  0.1528
   86SAPS  H17R 8218   2.764   5.561   8.880  1.1205 -2.8158 -1.0827
   86SAPS  H17S 8219   2.900   5.451   8.876  1.1572 -0.2335  1.0098
   86SAPS  C218 8220   2.927   5.638   8.771 -0.5923  0.1744 -0.2192
   86SAPS  H18R 8221   3.037   5.646   8.777 -0.7208  1.3740  1.0858
   86SAPS  H18S 8222   2.895   5.744   8.786  0.0491  0.6614 -2.0199
   86SAPS  C219 8223   2.871   5.583   8.640  0.3063 -0.3258  0.6370
   86SAPS  H19R 8224   2.761   5.594   8.650  0.5218  2.2009  0.7963
   86SAPS  H19S 8225   2.882   5.473   8.630  1.1886 -0.1431 -0.5185
   86SAPS  C220 8226   2.908   5.667   8.522  0.5177  0.0493 -0.2316
   86SAPS  H20R 8227   2.868   5.624   8.428  0.6493 -1.1486  0.2354
   86SAPS  H20S 8228   3.017   5.691   8.519 -0.0472  3.4033  1.5096
   86SAPS  H20T 8229   2.854   5.763   8.535  2.9796  1.4803  0.1600
   86SAPS   C33 8230   3.412   5.280  10.491  0.6987  0.5923 -0.2373
   86SAPS   H3X 8231   3.365   5.182  10.512 -1.8388  2.0766  1.5714
   86SAPS   H3Y 8232   3.520   5.257  10.504  0.0508 -1.5679  2.2584
   86SAPS   C34 8233   3.377   5.333  10.356  0.3201 -0.0892  0.9308
   86SAPS   H4X 8234   3.428   5.428  10.329  2.6716 -1.7579 -0.9628
   86SAPS   H4Y 8235   3.268   5.351  10.342  0.5958  0.0686 -1.4605
   86SAPS   C35 8236   3.425   5.232  10.250 -0.4172  0.1322  0.0903
   86SAPS   H5X 8237   3.390   5.130  10.277  0.0874 -0.7936 -2.4402
   86SAPS   H5Y 8238   3.536   5.239  10.247 -0.4123 -0.1887 -0.5102
   86SAPS   C36 8239   3.373   5.257  10.106  0.1651  0.0640  0.2961
   86SAPS   H6X 8240   3.413   5.342  10.047  0.7098 -0.6940 -0.4597
   86SAPS   H6Y 8241   3.266   5.268  10.131 -0.1529 -2.7206  0.4490
   86SAPS   C37 8242   3.383   5.136  10.014  0.2716  0.5067  0.1392
   86SAPS   H7X 8243   3.287   5.084  10.033  0.0523  1.3990  1.5947
   86SAPS   H7Y 8244   3.468   5.066  10.032 -0.2724 -0.5799 -1.3034
   86SAPS   C38 8245   3.385   5.173   9.861  1.2268 -0.0214 -0.5560
   86SAPS   H8X 8246   3.474   5.235   9.834  0.5756 -0.4058 -3.9725
   86SAPS   H8Y 8247   3.294   5.234   9.844  0.9283  0.1891  1.4785
   86SAPS   C39 8248   3.364   5.040   9.778  0.4569 -0.0744 -0.1644
   86SAPS   H9X 8249   3.256   5.015   9.790  0.0146  0.9450 -1.6955
   86SAPS   H9Y 8250   3.411   4.958   9.836 -0.9362  0.2428  1.5028
   86SAPS  C310 8251   3.400   5.033   9.631 -0.2895  0.5443 -0.2584
   86SAPS  H10X 8252   3.384   4.925   9.611  1.3847  0.4060 -1.0608
   86SAPS  H10Y 8253   3.508   5.059   9.622 -0.1749 -0.0419 -0.6269
   86SAPS  C311 8254   3.316   5.100   9.526 -0.0443 -0.1344  0.4310
   86SAPS  H11X 8255   3.333   5.209   9.535  0.9016 -0.3429  1.3512
   86SAPS  H11Y 8256   3.208   5.076   9.520  0.1049 -0.5274 -0.9943
   86SAPS  C312 8257   3.386   5.069   9.384 -0.0665  0.1530  0.2523
   86SAPS  H12X 8258   3.497   5.081   9.385 -0.0828  0.3287 -0.0634
   86SAPS  H12Y 8259   3.345   5.147   9.316  2.1403  2.0696  0.9933
   86SAPS  C313 8260   3.356   4.935   9.317  0.5634  0.3306  0.0759
   86SAPS  H13X 8261   3.245   4.927   9.308  0.5824  1.6520 -1.7930
   86SAPS  H13Y 8262   3.403   4.847   9.365  0.3312  0.5553  0.7344
   86SAPS  C314 8263   3.393   4.923   9.167  0.4679  0.6239  0.0979
   86SAPS  H14X 8264   3.504   4.916   9.163  0.5921  1.7136  0.8778
   86SAPS  H14Y 8265   3.355   5.006   9.104 -0.6546 -1.0750 -1.5645
   86SAPS  C315 8266   3.322   4.795   9.110  0.8567 -1.1637 -0.0924
   86SAPS  H15X 8267   3.215   4.817   9.131  0.9947  0.5778 -1.0271
   86SAPS  H15Y 8268   3.363   4.710   9.169  3.5431  0.7674  1.0367
   86SAPS  C316 8269   3.346   4.754   8.961 -0.1511  0.9995 -0.0517
   86SAPS  H16X 8270   3.311   4.846   8.908 -2.0828  1.9206  2.5733
   86SAPS  H16Y 8271   3.266   4.684   8.931 -1.3977  2.7667 -1.0198
   86SAPS  C317 8272   3.479   4.713   8.911  0.2028  0.2552  0.0042
   86SAPS  H17X 8273   3.519   4.621   8.959  0.1317  0.6321  0.8117
   86SAPS  H17Y 8274   3.557   4.791   8.922  0.4834  0.0476 -0.5022
   86SAPS  C318 8275   3.471   4.667   8.764  0.5316  0.2233  0.0755
   86SAPS  H18X 8276   3.456   4.759   8.703 -1.4991 -1.2662 -1.7916
   86SAPS  H18Y 8277   3.393   4.589   8.750 -0.5594  1.5205 -1.4512
   86SAPS  H18Z 8278   3.572   4.626   8.741 -0.6946 -1.6280 -2.4523
   87SAPS     N 8279   2.974   5.950  11.029 -0.2840  0.4991  0.2417
   87SAPS   HN1 8280   2.881   5.920  10.993 -0.3189 -2.1384  2.1736
   87SAPS   HN2 8281   3.031   5.986  10.950  0.9462  4.0131  2.4860
   87SAPS   HN3 8282   3.032   5.872  11.068  3.1743  1.3245 -2.7766
   87SAPS   C12 8283   2.958   6.058  11.124 -0.5073  0.0005 -0.1133
   87SAPS  H12A 8284   2.934   6.013  11.219 -0.9025  0.0349 -0.1950
   87SAPS   C13 8285   3.090   6.136  11.150  0.6223  0.0172  0.0919
   87SAPS  O13A 8286   3.193   6.102  11.087 -0.2478  0.1828  0.1376
   87SAPS  O13B 8287   3.095   6.226  11.241  0.2230 -0.6137 -0.1736
   87SAPS   C11 8288   2.840   6.146  11.079 -0.4665  0.1064  0.2074
   87SAPS  H11A 8289   2.856   6.200  10.983 -0.2010  0.1696  0.2856
   87SAPS  H11B 8290   2.828   6.220  11.161  2.0326 -1.2344  1.8985
   87SAPS     P 8291   2.591   6.123  11.017  0.1863 -0.4892 -0.2690
   87SAPS   O13 8292   2.479   6.026  11.029 -0.2797  0.0728 -0.1610
   87SAPS   O14 8293   2.581   6.257  11.071  0.7674 -0.1778 -0.8587
   87SAPS   O12 8294   2.726   6.063  11.079  0.2842 -0.7272  0.0444
   87SAPS   O11 8295   2.640   6.139  10.862  0.2599 -0.1609 -0.6521
   87SAPS    C1 8296   2.630   6.263  10.803 -0.1056  0.1371  0.7327
   87SAPS    HA 8297   2.682   6.344  10.860 -2.5617  1.7646  0.8269
   87SAPS    HB 8298   2.686   6.258  10.708  0.1201  0.2997  0.8560
   87SAPS    C2 8299   2.487   6.306  10.773 -0.2568  0.2962  0.3728
   87SAPS    HS 8300   2.438   6.349  10.862 -1.0636 -1.0783  0.6104
   87SAPS   O21 8301   2.405   6.188  10.720 -0.5177  0.4662  0.2138
   87SAPS   C21 8302   2.273   6.207  10.725  0.1808 -0.4645  0.3028
   87SAPS   O22 8303   2.219   6.303  10.772 -0.2931 -0.0095  0.3362
   87SAPS   C22 8304   2.208   6.085  10.656 -0.0653  0.1457 -0.1880
   87SAPS   H2R 8305   2.255   6.073  10.556  4.1531 -0.3414  1.6576
   87SAPS   H2S 8306   2.239   5.995  10.713 -2.5175  0.1989  1.3717
   87SAPS    C3 8307   2.498   6.422  10.669 -0.1366 -0.2354  0.2074
   87SAPS    HX 8308   2.572   6.385  10.595  1.7469  1.1163  1.3083
   87SAPS    HY 8309   2.554   6.510  10.707 -1.1817  1.5488 -2.1718
   87SAPS   O31 8310   2.379   6.449  10.593  0.2586 -0.7704 -0.3821
   87SAPS   C31 8311   2.341   6.578  10.583 -0.7313 -0.2460  0.1716
   87SAPS   O32 8312   2.407   6.673  10.618 -0.5642 -0.3025 -0.0250
   87SAPS   C32 8313   2.210   6.595  10.512  0.1471  0.3743  0.4131
   87SAPS   H2X 8314   2.214   6.691  10.458 -3.3185  0.2056 -0.3908
   87SAPS   H2Y 8315   2.135   6.603  10.594 -0.0155 -1.3898  0.4828
   87SAPS   C23 8316   2.054   6.091  10.656  0.0597 -0.1545 -0.4626
   87SAPS   H3R 8317   2.014   6.132  10.751 -1.4448  0.6202 -1.3671
   87SAPS   H3S 8318   2.025   5.984  10.646 -1.1543 -0.0848  1.7429
   87SAPS   C24 8319   2.005   6.175  10.541 -0.1299 -0.0613  0.5168
   87SAPS   H4R 8320   2.046   6.143  10.443  0.6467 -0.1839  0.8774
   87SAPS   H4S 8321   2.039   6.281  10.552 -0.7918 -0.0445  3.1314
   87SAPS   C25 8322   1.852   6.155  10.532  0.8891 -0.4652 -0.2747
   87SAPS   H5R 8323   1.792   6.225  10.593  1.8864  2.2321 -2.1806
   87SAPS   C26 8324   1.781   6.077  10.449  0.3474  0.1859  0.5221
   87SAPS   H6R 8325   1.673   6.096  10.453  0.8488  3.2771  2.4475
   87SAPS   C27 8326   1.823   5.978  10.342  0.2443  0.3818  0.8127
   87SAPS   H7R 8327   1.725   5.937  10.307 -0.4527  2.8575 -0.4390
   87SAPS   H7S 8328   1.890   5.901  10.385 -1.0768 -0.2771  1.7594
   87SAPS   C28 8329   1.882   6.037  10.218 -0.0568 -0.1705 -0.0026
   87SAPS   H8R 8330   1.910   6.143  10.224  0.8657 -0.2989 -1.6051
   87SAPS   C29 8331   1.918   5.971  10.107 -0.0560  0.6545 -0.0147
   87SAPS   H9R 8332   1.965   6.035  10.031 -1.4038  3.2450  1.1925
   87SAPS  C210 8333   1.907   5.827  10.073  0.0307 -0.0572 -0.5940
   87SAPS  H10R 8334   1.830   5.824   9.992 -0.7425  2.8275 -0.0690
   87SAPS  H10S 8335   1.869   5.764  10.156  2.2482  0.4440  0.8834
   87SAPS  C211 8336   2.037   5.771  10.022 -0.6835 -0.1095 -0.2398
   87SAPS  H11R 8337   2.094   5.716  10.098  2.4412  2.2505 -0.6751
   87SAPS  C212 8338   2.097   5.781   9.907  0.0791  0.3078  0.2298
   87SAPS  H12R 8339   2.180   5.712   9.883 -1.2601 -0.7160 -1.8081
   87SAPS  C213 8340   2.037   5.848   9.783  0.0659 -0.0124  1.0799
   87SAPS  H13R 8341   2.118   5.866   9.709 -0.4816 -1.6280  0.0388
   87SAPS  H13S 8342   1.996   5.948   9.808 -0.1309  0.4271 -0.8041
   87SAPS  C214 8343   1.930   5.770   9.715  0.3471  0.6531 -0.4354
   87SAPS  H14R 8344   1.879   5.697   9.780 -0.4227  0.3915 -1.3167
   87SAPS  C215 8345   1.891   5.766   9.592  0.9499  0.5973 -0.1646
   87SAPS  H15R 8346   1.817   5.691   9.559  0.4988  1.4228 -1.0993
   87SAPS  C216 8347   1.934   5.856   9.483 -0.0893 -0.2312 -0.4297
   87SAPS  H16R 8348   2.040   5.885   9.503  0.4167 -1.2829 -1.4134
   87SAPS  H16S 8349   1.877   5.950   9.465 -1.1092 -0.8309 -0.3823
   87SAPS  C217 8350   1.938   5.798   9.342 -0.2284  1.2028 -0.3352
   87SAPS  H17R 8351   1.834   5.775   9.310 -0.6891  1.7675  0.7028
   87SAPS  H17S 8352   1.994   5.702   9.336 -1.3677  0.3939  1.2198
   87SAPS  C218 8353   2.005   5.882   9.236  0.1310 -0.3624 -0.1849
   87SAPS  H18R 8354   2.114   5.871   9.249 -0.1000 -0.1050  2.8320
   87SAPS  H18S 8355   1.974   5.989   9.249  0.7780 -0.3381  1.3961
   87SAPS  C219 8356   1.978   5.831   9.094 -0.0884 -0.0582 -0.3270
   87SAPS  H19R 8357   2.042   5.886   9.022  1.2527 -1.2160 -0.0489
   87SAPS  H19S 8358   1.873   5.858   9.066 -0.2949 -3.0829 -3.0047
   87SAPS  C220 8359   2.004   5.683   9.063  0.3828 -0.0448 -0.3943
   87SAPS  H20R 8360   2.109   5.656   9.085  0.0770  0.6760  2.2590
   87SAPS  H20S 8361   1.984   5.667   8.955 -0.2488  2.4607 -0.7215
   87SAPS  H20T 8362   1.929   5.629   9.124  1.4410  1.2315  2.2051
   87SAPS   C33 8363   2.175   6.484  10.415  0.3104  0.3909 -0.6726
   87SAPS   H3X 8364   2.068   6.474  10.384  0.2190 -1.7743  0.1836
   87SAPS   H3Y 8365   2.187   6.380  10.451  1.8897  0.2000 -1.6681
   87SAPS   C34 8366   2.258   6.499  10.290 -0.3626 -0.1428 -0.0012
   87SAPS   H4X 8367   2.239   6.402  10.239 -0.6955  0.6835 -1.5033
   87SAPS   H4Y 8368   2.365   6.514  10.317  0.0567 -1.9651 -0.5228
   87SAPS   C35 8369   2.191   6.608  10.211 -0.3817 -0.1440 -0.1876
   87SAPS   H5X 8370   2.209   6.708  10.257 -1.4176 -0.0325 -0.0010
   87SAPS   H5Y 8371   2.082   6.588  10.215 -0.1509 -1.2403  1.0665
   87SAPS   C36 8372   2.234   6.603  10.066 -0.7894 -0.0237 -0.2448
   87SAPS   H6X 8373   2.248   6.502  10.021  0.2938  0.2305 -0.5195
   87SAPS   H6Y 8374   2.335   6.648  10.054 -0.1008 -1.1059  1.1992
   87SAPS   C37 8375   2.140   6.683   9.978 -0.1919  0.7492  0.1680
   87SAPS   H7X 8376   2.097   6.777  10.019 -3.2965  1.0659 -3.2632
   87SAPS   H7Y 8377   2.054   6.618   9.951  0.8265 -0.3691 -0.4728
   87SAPS   C38 8378   2.213   6.711   9.851  0.9009  0.1716  0.0861
   87SAPS   H8X 8379   2.260   6.617   9.814  1.6251  0.1836  0.9203
   87SAPS   H8Y 8380   2.295   6.780   9.883  0.9867 -0.7255  1.9412
   87SAPS   C39 8381   2.115   6.778   9.749 -0.3238 -0.9999  0.1765
   87SAPS   H9X 8382   2.101   6.881   9.790  0.7956 -0.5977 -0.3910
   87SAPS   H9Y 8383   2.020   6.721   9.747 -0.5545 -0.6634  0.9869
   87SAPS  C310 8384   2.186   6.771   9.616  0.2940  0.0414  0.0431
   87SAPS  H10X 8385   2.216   6.667   9.591 -0.6858 -0.6466  1.5117
   87SAPS  H10Y 8386   2.288   6.815   9.615  1.1767 -1.7045  2.3672
   87SAPS  C311 8387   2.101   6.842   9.512 -0.1053  0.1605  0.0377
   87SAPS  H11X 8388   2.052   6.928   9.561 -0.8008 -0.2279  0.0442
   87SAPS  H11Y 8389   2.024   6.774   9.470 -2.0216  2.1215  0.2101
   87SAPS  C312 8390   2.173   6.893   9.395  0.0750 -0.0946 -0.1574
   87SAPS  H12X 8391   2.102   6.905   9.310  0.7132  2.1582 -0.4341
   87SAPS  H12Y 8392   2.252   6.826   9.356 -0.4980  0.1379 -1.8060
   87SAPS  C313 8393   2.235   7.030   9.419 -0.3148  0.0421  0.6336
   87SAPS  H13X 8394   2.325   7.019   9.482  1.3371 -2.0182 -1.8466
   87SAPS  H13Y 8395   2.158   7.094   9.467 -1.0359 -0.9107  0.7955
   87SAPS  C314 8396   2.263   7.104   9.283 -0.2366  0.0140 -0.0454
   87SAPS  H14X 8397   2.295   7.210   9.286 -1.2027  0.3032  0.4193
   87SAPS  H14Y 8398   2.173   7.109   9.219 -0.9538 -0.1263  0.9339
   87SAPS  C315 8399   2.375   7.040   9.193 -1.1091  0.1276  0.5900
   87SAPS  H15X 8400   2.353   6.935   9.166  1.5214 -0.5535  0.8346
   87SAPS  H15Y 8401   2.475   7.035   9.240 -0.0466 -0.2266 -1.5726
   87SAPS  C316 8402   2.369   7.107   9.052  0.0773 -0.3032  0.4192
   87SAPS  H16X 8403   2.382   7.217   9.055 -0.3695 -0.2185 -0.3838
   87SAPS  H16Y 8404   2.262   7.093   9.025  0.2514 -0.9110  0.0169
   87SAPS  C317 8405   2.454   7.036   8.945  0.1105  0.1680 -0.0665
   87SAPS  H17X 8406   2.436   7.080   8.845 -1.7834  1.8838  0.9476
   87SAPS  H17Y 8407   2.415   6.935   8.921 -1.9814  1.6129 -3.4353
   87SAPS  C318 8408   2.605   7.045   8.967  0.1942  0.1695  0.2903
   87SAPS  H18X 8409   2.622   7.155   8.963  0.7460  0.0937  0.4719
   87SAPS  H18Y 8410   2.666   6.992   8.891  0.8003  0.6351  0.4430
   87SAPS  H18Z 8411   2.645   7.002   9.061 -2.0993 -1.1260  0.7346
   88SAPS     N 8412   4.775   5.401  10.962 -0.2189  0.5924  0.6412
   88SAPS   HN1 8413   4.776   5.331  10.885  2.0248 -0.2525  1.3604
   88SAPS   HN2 8414   4.765   5.334  11.041  0.3111  0.8187  0.9134
   88SAPS   HN3 8415   4.683   5.449  10.957 -0.5397 -0.1195 -0.5141
   88SAPS   C12 8416   4.897   5.475  10.993  0.0627 -0.2219 -0.6062
   88SAPS  H12A 8417   4.884   5.562  10.932  0.7535  0.0109 -0.4257
   88SAPS   C13 8418   4.906   5.525  11.141 -0.2574 -0.4433 -0.3847
   88SAPS  O13A 8419   4.806   5.516  11.214  0.1704  0.1538 -0.7750
   88SAPS  O13B 8420   5.017   5.577  11.181  0.2144 -0.5199 -0.6066
   88SAPS   C11 8421   5.028   5.395  10.950 -0.2735 -0.2888  0.1411
   88SAPS  H11A 8422   5.117   5.447  10.993  1.7025 -2.3032 -1.2218
   88SAPS  H11B 8423   5.033   5.405  10.839  1.6520  2.1686  0.3469
   88SAPS     P 8424   5.156   5.176  11.016  0.6472  0.0752  0.1260
   88SAPS   O13 8425   5.267   5.229  10.928  0.2757  0.5074 -0.1398
   88SAPS   O14 8426   5.188   5.185  11.157 -0.4106 -0.0114 -0.1501
   88SAPS   O12 8427   5.027   5.258  10.990  0.2675 -0.1278 -0.0834
   88SAPS   O11 8428   5.109   5.031  10.981  0.3157  0.1472  0.1755
   88SAPS    C1 8429   5.001   4.993  10.893 -0.5464 -0.9282 -0.5091
   88SAPS    HA 8430   4.930   4.918  10.933 -2.5455  1.1059 -0.0547
   88SAPS    HB 8431   4.936   5.073  10.853 -0.9637 -1.6512 -1.3101
   88SAPS    C2 8432   5.055   4.918  10.766 -0.1113  0.6379 -0.2760
   88SAPS    HS 8433   5.123   4.988  10.713  1.6932 -0.6571  0.2314
   88SAPS   O21 8434   4.956   4.855  10.679  0.5037 -0.1284  0.4219
   88SAPS   C21 8435   4.913   4.950  10.590  0.5795 -0.6064 -0.9255
   88SAPS   O22 8436   4.941   5.070  10.596  0.7933 -0.3286 -0.9196
   88SAPS   C22 8437   4.808   4.894  10.492  0.2469  0.4196 -0.1682
   88SAPS   H2R 8438   4.845   4.801  10.444 -1.9752 -0.7328  0.2279
   88SAPS   H2S 8439   4.717   4.871  10.550  0.9020 -0.7624  0.4301
   88SAPS    C3 8440   5.158   4.803  10.811 -0.1887 -0.1169 -0.4801
   88SAPS    HX 8441   5.253   4.848  10.849 -1.0745 -0.0265  1.7621
   88SAPS    HY 8442   5.175   4.744  10.718  1.7935  2.5830 -1.9943
   88SAPS   O31 8443   5.099   4.721  10.923  0.1115  0.0943  0.2067
   88SAPS   C31 8444   5.115   4.589  10.921 -0.2094 -0.3900 -0.0444
   88SAPS   O32 8445   5.161   4.526  10.827 -0.6299 -0.2827  0.6715
   88SAPS   C32 8446   5.058   4.532  11.050 -0.3225 -0.4564  0.4922
   88SAPS   H2X 8447   4.984   4.601  11.095 -0.2174  2.2095 -3.0545
   88SAPS   H2Y 8448   5.138   4.529  11.127 -0.1449 -1.3580  0.2885
   88SAPS   C23 8449   4.785   5.006  10.396 -0.0091 -0.2375  0.9502
   88SAPS   H3R 8450   4.880   5.036  10.346 -0.5928 -0.5658 -0.3908
   88SAPS   H3S 8451   4.731   5.093  10.441  0.3667  1.2035 -1.2519
   88SAPS   C24 8452   4.686   4.954  10.289  0.0977  0.3606 -0.1774
   88SAPS   H4R 8453   4.645   5.046  10.242  0.0993  0.1476 -0.5929
   88SAPS   H4S 8454   4.607   4.914  10.357 -0.1868  0.8623 -0.2084
   88SAPS   C25 8455   4.733   4.851  10.185 -0.1308  0.3868 -0.4780
   88SAPS   H5R 8456   4.803   4.777  10.225 -0.4420  0.3640  0.0260
   88SAPS   C26 8457   4.714   4.847  10.053 -0.2184 -0.9027 -0.1161
   88SAPS   H6R 8458   4.767   4.777   9.986  1.7695  2.8666 -2.8243
   88SAPS   C27 8459   4.635   4.939   9.967 -0.0656  0.3108 -0.1511
   88SAPS   H7R 8460   4.705   5.002   9.907  0.1482  1.1707  0.9543
   88SAPS   H7S 8461   4.578   5.012  10.029  0.2784  2.3564 -2.0998
   88SAPS   C28 8462   4.534   4.862   9.889 -0.5121  0.0979  0.1003
   88SAPS   H8R 8463   4.473   4.785   9.939  0.5847 -2.2781 -1.9651
   88SAPS   C29 8464   4.522   4.849   9.749 -0.5261 -0.2340 -0.4234
   88SAPS   H9R 8465   4.443   4.791   9.699  2.0102 -2.8418 -1.7060
   88SAPS  C210 8466   4.610   4.929   9.655 -0.8668 -0.4450  0.2716
   88SAPS  H10R 8467   4.610   5.029   9.702 -0.0385 -0.0830 -0.4807
   88SAPS  H10S 8468   4.567   4.950   9.555  2.4953 -0.5222 -1.3241
   88SAPS  C211 8469   4.748   4.875   9.635  0.0533  0.4364  0.2680
   88SAPS  H11R 8470   4.809   4.873   9.727  1.3014 -1.8670 -0.5521
   88SAPS  C212 8471   4.802   4.825   9.521  0.2030  0.2969 -0.5326
   88SAPS  H12R 8472   4.905   4.788   9.524 -0.4535 -1.6450 -0.1708
   88SAPS  C213 8473   4.732   4.810   9.390 -0.1548 -0.5588  0.3168
   88SAPS  H13R 8474   4.728   4.919   9.368  0.6608 -0.0778  2.3272
   88SAPS  H13S 8475   4.631   4.765   9.397  0.1593 -1.3332 -0.0625
   88SAPS  C214 8476   4.813   4.742   9.290  0.2376 -0.5703  0.7291
   88SAPS  H14R 8477   4.864   4.812   9.223  0.9674 -0.3675  1.4838
   88SAPS  C215 8478   4.825   4.610   9.268 -0.0299 -0.4378  0.6410
   88SAPS  H15R 8479   4.902   4.564   9.204  0.4426 -1.0915  1.6414
   88SAPS  C216 8480   4.752   4.500   9.347 -0.5945  0.2676 -0.3481
   88SAPS  H16R 8481   4.749   4.523   9.456  0.4354  0.4167 -0.3438
   88SAPS  H16S 8482   4.811   4.407   9.346 -0.3368  0.3637  1.7298
   88SAPS  C217 8483   4.621   4.460   9.269 -0.5439 -0.1780  0.2013
   88SAPS  H17R 8484   4.561   4.554   9.266  1.8623  1.4323 -0.8965
   88SAPS  H17S 8485   4.554   4.388   9.321 -2.5966  1.4109 -0.1215
   88SAPS  C218 8486   4.653   4.409   9.134 -0.6014  0.0954 -0.4606
   88SAPS  H18R 8487   4.727   4.327   9.144 -0.3765  0.5127  1.6727
   88SAPS  H18S 8488   4.704   4.482   9.068 -0.6874 -1.0707 -1.8696
   88SAPS  C219 8489   4.532   4.362   9.050 -0.0871 -0.2103  0.2392
   88SAPS  H19R 8490   4.484   4.456   9.016 -0.5575 -0.3237  0.5716
   88SAPS  H19S 8491   4.456   4.302   9.105 -0.4929 -0.5184 -0.6338
   88SAPS  C220 8492   4.575   4.274   8.925 -0.0280 -0.4332  0.3244
   88SAPS  H20R 8493   4.642   4.192   8.959  0.3398 -0.7431 -1.0964
   88SAPS  H20S 8494   4.649   4.338   8.872  0.2910 -0.2630  0.9559
   88SAPS  H20T 8495   4.480   4.253   8.872 -1.3404  0.1683  2.2932
   88SAPS   C33 8496   4.986   4.393  11.031  0.1164 -0.8406 -0.2328
   88SAPS   H3X 8497   5.068   4.319  11.040  0.6713 -0.2640 -0.4856
   88SAPS   H3Y 8498   4.948   4.394  10.927 -0.9977  0.4979  0.1640
   88SAPS   C34 8499   4.875   4.374  11.128  0.0732 -0.3087 -0.0618
   88SAPS   H4X 8500   4.794   4.449  11.117  0.2204 -0.4637 -3.1796
   88SAPS   H4Y 8501   4.919   4.398  11.227 -2.3949  3.3388  0.3243
   88SAPS   C35 8502   4.802   4.242  11.116 -1.2100  0.4175 -0.5951
   88SAPS   H5X 8503   4.732   4.236  11.202  0.1396  2.5670  0.7514
   88SAPS   H5Y 8504   4.875   4.158  11.120  0.5588  1.8936 -0.3666
   88SAPS   C36 8505   4.730   4.236  10.980  0.0213  0.5826  0.1021
   88SAPS   H6X 8506   4.805   4.224  10.898 -0.9039 -2.4777 -0.4153
   88SAPS   H6Y 8507   4.669   4.328  10.964 -1.0649 -0.1435  0.0409
   88SAPS   C37 8508   4.620   4.128  10.965  0.0722 -0.6171  0.0287
   88SAPS   H7X 8509   4.535   4.160  11.030  1.5893  3.1500  0.4087
   88SAPS   H7Y 8510   4.668   4.036  11.006  0.3266 -0.7203 -0.5017
   88SAPS   C38 8511   4.581   4.099  10.815  0.2987 -0.3529 -0.1202
   88SAPS   H8X 8512   4.674   4.095  10.754 -1.1816 -2.2171 -2.4212
   88SAPS   H8Y 8513   4.525   4.188  10.779  1.3593  0.5988  0.5011
   88SAPS   C39 8514   4.512   3.961  10.793  0.1364 -0.4530 -0.3897
   88SAPS   H9X 8515   4.432   3.958  10.870  1.4339 -2.8974  0.9826
   88SAPS   H9Y 8516   4.583   3.881  10.825 -2.9829 -2.4330  2.2828
   88SAPS  C310 8517   4.464   3.936  10.645 -0.6969  0.2424 -0.1946
   88SAPS  H10X 8518   4.421   4.034  10.616  0.0113  1.4766  2.5693
   88SAPS  H10Y 8519   4.385   3.858  10.649  0.1552 -0.6195  0.2648
   88SAPS  C311 8520   4.565   3.896  10.539 -0.6314 -0.1802  0.7720
   88SAPS  H11X 8521   4.615   3.806  10.579  3.0101  0.8087 -1.1515
   88SAPS  H11Y 8522   4.637   3.980  10.535 -0.7202 -0.1219  0.4060
   88SAPS  C312 8523   4.499   3.859  10.407 -0.0047  0.0974  0.1639
   88SAPS  H12X 8524   4.412   3.791  10.417 -1.3925  1.5870 -1.2086
   88SAPS  H12Y 8525   4.571   3.805  10.341  1.0104  1.4529  0.1168
   88SAPS  C313 8526   4.453   3.979  10.330  0.7489 -0.6366 -0.2791
   88SAPS  H13X 8527   4.528   4.059  10.342 -0.3571  0.2018  1.4358
   88SAPS  H13Y 8528   4.352   4.016  10.360  0.5437 -1.5487  0.2046
   88SAPS  C314 8529   4.440   3.939  10.184  0.0610  0.3341 -0.8136
   88SAPS  H14X 8530   4.344   3.886  10.164 -0.1290 -0.4408  1.8856
   88SAPS  H14Y 8531   4.516   3.870  10.142  0.0787  0.0027 -0.2385
   88SAPS  C315 8532   4.419   4.054  10.089  0.0206 -0.4635 -0.3835
   88SAPS  H15X 8533   4.493   4.135  10.105  1.2494 -1.8891  1.7072
   88SAPS  H15Y 8534   4.321   4.103  10.109  0.1033  0.4499 -2.0050
   88SAPS  C316 8535   4.444   4.012   9.946  0.3248 -0.1856  0.0699
   88SAPS  H16X 8536   4.407   3.909   9.929 -2.6193  0.6009  1.1461
   88SAPS  H16Y 8537   4.553   4.001   9.929  0.5355  0.9659  0.5818
   88SAPS  C317 8538   4.397   4.100   9.839  0.9155  0.5934  0.3720
   88SAPS  H17X 8539   4.448   4.082   9.742 -0.1073 -2.9345  0.3615
   88SAPS  H17Y 8540   4.410   4.208   9.863  1.3454  1.1469 -2.0839
   88SAPS  C318 8541   4.239   4.085   9.825 -0.0688  0.1713 -0.0799
   88SAPS  H18X 8542   4.187   4.097   9.922  0.0950 -1.3542  0.2293
   88SAPS  H18Y 8543   4.211   3.984   9.787 -0.1839 -0.0329  0.5397
   88SAPS  H18Z 8544   4.202   4.159   9.751 -0.1817  0.5388  0.3488
   89SAPS     N 8545   4.052   1.623  11.267 -1.3379  0.3090 -0.3311
   89SAPS   HN1 8546   3.992   1.571  11.200 -0.6100  0.2828 -0.9792
   89SAPS   HN2 8547   4.051   1.586  11.364  2.6951 -1.6850 -0.8216
   89SAPS   HN3 8548   4.007   1.717  11.264 -1.9651  0.1354  2.0369
   89SAPS   C12 8549   4.190   1.622  11.215  0.2269  0.4016 -0.1971
   89SAPS  H12A 8550   4.249   1.682  11.283 -0.4193  0.6915  0.1168
   89SAPS   C13 8551   4.268   1.484  11.192 -0.1796 -0.0593 -0.3532
   89SAPS  O13A 8552   4.200   1.377  11.184  0.1668 -0.2047 -0.2705
   89SAPS  O13B 8553   4.387   1.494  11.146  0.2425 -0.1474  0.0529
   89SAPS   C11 8554   4.181   1.693  11.080 -0.7827 -0.5111 -0.4082
   89SAPS  H11A 8555   4.285   1.706  11.045  0.1500 -1.0689  1.9853
   89SAPS  H11B 8556   4.148   1.796  11.104 -2.0790 -1.3511  1.6708
   89SAPS     P 8557   4.035   1.701  10.872 -0.6279 -0.2313  0.0315
   89SAPS   O13 8558   3.916   1.626  10.828 -0.0386 -0.3601  0.2811
   89SAPS   O14 8559   4.016   1.840  10.907  0.9910  0.1613 -0.0914
   89SAPS   O12 8560   4.103   1.617  10.984  0.2569 -0.1045 -0.6334
   89SAPS   O11 8561   4.135   1.692  10.751 -0.2131  0.2081  0.2414
   89SAPS    C1 8562   4.160   1.562  10.700  0.7058 -0.0637 -0.2884
   89SAPS    HA 8563   4.226   1.505  10.770 -1.4487 -2.4196 -0.0148
   89SAPS    HB 8564   4.068   1.500  10.696 -0.7201  1.9982 -0.6577
   89SAPS    C2 8565   4.205   1.583  10.554  0.9843  0.4550 -0.2879
   89SAPS    HS 8566   4.190   1.482  10.510 -0.2132  0.1046  0.8680
   89SAPS   O21 8567   4.336   1.637  10.541 -0.0212  0.1023  0.4837
   89SAPS   C21 8568   4.430   1.550  10.556 -0.7562  0.1961  0.5450
   89SAPS   O22 8569   4.415   1.426  10.564  0.0568 -0.9005  0.4396
   89SAPS   C22 8570   4.560   1.618  10.561 -0.0152  0.0100 -0.6256
   89SAPS   H2R 8571   4.561   1.727  10.537  2.1187 -0.4250 -2.9769
   89SAPS   H2S 8572   4.597   1.621  10.666  0.9461  3.3278 -0.9465
   89SAPS    C3 8573   4.108   1.678  10.480  1.1631  0.8330 -0.7798
   89SAPS    HX 8574   4.115   1.783  10.517 -0.2278 -0.1756  2.8148
   89SAPS    HY 8575   4.010   1.640  10.518  2.7627 -2.2956  0.5919
   89SAPS   O31 8576   4.109   1.672  10.341  0.1613  0.0565 -0.1684
   89SAPS   C31 8577   4.055   1.563  10.296  0.3097 -0.1494  0.7992
   89SAPS   O32 8578   3.997   1.476  10.354 -0.4087  0.4353  0.1661
   89SAPS   C32 8579   4.084   1.557  10.153 -1.1059 -0.1408  0.1554
   89SAPS   H2X 8580   4.193   1.573  10.137 -0.5519  0.8101  4.0085
   89SAPS   H2Y 8581   4.022   1.633  10.102 -0.9802 -0.8695 -1.1371
   89SAPS   C23 8582   4.664   1.550  10.473 -0.5117  0.1009 -0.0630
   89SAPS   H3R 8583   4.672   1.445  10.508 -3.7075  0.3848  1.9564
   89SAPS   H3S 8584   4.766   1.593  10.485 -1.0587  1.0446  1.5026
   89SAPS   C24 8585   4.610   1.549  10.328  0.3354  0.5694  0.4724
   89SAPS   H4R 8586   4.580   1.654  10.311  0.9770  0.7595  0.4705
   89SAPS   H4S 8587   4.516   1.493  10.310 -0.7613  2.9140 -1.6517
   89SAPS   C25 8588   4.713   1.502  10.228  0.3913 -0.2916  0.8945
   89SAPS   H5R 8589   4.798   1.446  10.270  0.1818 -0.6391  0.8606
   89SAPS   C26 8590   4.706   1.504  10.095  0.3184 -0.3815  0.1375
   89SAPS   H6R 8591   4.783   1.454  10.035  0.1555  1.9642 -2.2165
   89SAPS   C27 8592   4.597   1.566  10.014 -0.1708 -0.1940  0.3993
   89SAPS   H7R 8593   4.638   1.648   9.951 -0.1416 -1.2246 -0.9832
   89SAPS   H7S 8594   4.519   1.612  10.078 -0.6489 -0.3044 -0.0978
   89SAPS   C28 8595   4.541   1.458   9.928 -0.0738  0.2313  0.5683
   89SAPS   H8R 8596   4.451   1.410   9.968  0.6522 -1.3851  0.3537
   89SAPS   C29 8597   4.567   1.442   9.796 -0.0418  0.2834 -1.0745
   89SAPS   H9R 8598   4.508   1.365   9.745 -1.2729  0.1243  0.5030
   89SAPS  C210 8599   4.666   1.518   9.711 -0.3510  0.7237  0.5435
   89SAPS  H10R 8600   4.748   1.448   9.682 -2.8400 -1.4266 -1.9933
   89SAPS  H10S 8601   4.728   1.585   9.774 -0.4502  1.6655 -0.3452
   89SAPS  C211 8602   4.618   1.602   9.601 -0.0600  0.3438  0.1255
   89SAPS  H11R 8603   4.523   1.655   9.619  0.1615  0.6807  0.3028
   89SAPS  C212 8604   4.671   1.601   9.481 -0.8603 -0.1783  0.2893
   89SAPS  H12R 8605   4.614   1.631   9.392 -0.4693  0.4506  0.2495
   89SAPS  C213 8606   4.801   1.526   9.433  0.6578 -0.7485  0.0439
   89SAPS  H13R 8607   4.855   1.477   9.517 -1.0347 -2.6122  0.1163
   89SAPS  H13S 8608   4.869   1.591   9.374  0.7558  1.4411  2.4111
   89SAPS  C214 8609   4.754   1.410   9.342  0.3340 -0.6363 -0.1378
   89SAPS  H14R 8610   4.670   1.356   9.388 -0.6075  0.7700 -0.1625
   89SAPS  C215 8611   4.797   1.381   9.221  0.1777  0.1888 -0.6938
   89SAPS  H15R 8612   4.757   1.296   9.163  1.7903 -0.7945 -0.4378
   89SAPS  C216 8613   4.911   1.454   9.153 -0.4212  0.5797 -0.6311
   89SAPS  H16R 8614   5.009   1.406   9.176 -1.5882 -2.6255 -1.7337
   89SAPS  H16S 8615   4.905   1.562   9.176 -0.0854  0.5894 -0.5798
   89SAPS  C217 8616   4.902   1.437   8.998  0.1163 -0.1783 -0.3217
   89SAPS  H17R 8617   4.802   1.466   8.960  0.4356  1.3151 -0.0598
   89SAPS  H17S 8618   4.920   1.330   8.972  1.8123  0.2138 -0.8916
   89SAPS  C218 8619   5.004   1.522   8.917  0.3304  0.1833  0.3169
   89SAPS  H18R 8620   5.106   1.511   8.958  0.7024  1.7241 -0.1187
   89SAPS  H18S 8621   4.977   1.629   8.933 -2.4082 -0.7636  3.0492
   89SAPS  C219 8622   5.017   1.478   8.767  0.0058  0.2331  0.0152
   89SAPS  H19R 8623   5.013   1.367   8.769 -2.6374  0.2612  0.2842
   89SAPS  H19S 8624   5.120   1.501   8.735 -0.2306  1.0750 -0.1623
   89SAPS  C220 8625   4.895   1.517   8.680 -0.7571  0.3146  0.2928
   89SAPS  H20R 8626   4.905   1.472   8.578 -0.5071 -0.1032  0.4982
   89SAPS  H20S 8627   4.880   1.626   8.663 -1.1086  0.2224 -0.0036
   89SAPS  H20T 8628   4.796   1.480   8.713 -1.2881  1.4848  0.0729
   89SAPS   C33 8629   4.047   1.426  10.074 -0.0633  1.0360  0.4486
   89SAPS   H3X 8630   3.957   1.381  10.122 -0.7008  1.1508 -0.6105
   89SAPS   H3Y 8631   4.132   1.355  10.079 -0.5063  0.5558  1.6392
   89SAPS   C34 8632   4.015   1.450   9.924  0.1416  0.6078  0.9728
   89SAPS   H4X 8633   3.950   1.539   9.911 -0.2017  0.3293  0.7888
   89SAPS   H4Y 8634   3.952   1.379   9.866  1.8361 -1.1050  1.1218
   89SAPS   C35 8635   4.148   1.451   9.838  0.3479  0.0555  0.2900
   89SAPS   H5X 8636   4.175   1.345   9.818  0.9042  0.6380 -2.4579
   89SAPS   H5Y 8637   4.230   1.516   9.875  1.1971 -1.4610  1.1758
   89SAPS   C36 8638   4.113   1.504   9.706 -0.0129  0.0242 -0.0356
   89SAPS   H6X 8639   4.102   1.615   9.706 -0.4972 -0.0018  1.6861
   89SAPS   H6Y 8640   4.017   1.462   9.670  0.5555 -0.9842 -0.4135
   89SAPS   C37 8641   4.221   1.484   9.599  0.2164  0.5087  0.0621
   89SAPS   H7X 8642   4.232   1.379   9.564 -0.1420 -0.7474  3.3350
   89SAPS   H7Y 8643   4.323   1.498   9.641  0.9781 -0.7822 -1.2972
   89SAPS   C38 8644   4.197   1.574   9.474 -0.6311  0.1853  0.5139
   89SAPS   H8X 8645   4.296   1.565   9.424  1.1965  0.3545  3.7782
   89SAPS   H8Y 8646   4.164   1.679   9.492 -2.9248  0.1776 -2.7640
   89SAPS   C39 8647   4.086   1.527   9.381 -0.6948  0.1822  0.3767
   89SAPS   H9X 8648   3.997   1.516   9.447 -1.6878  2.5118 -0.4787
   89SAPS   H9Y 8649   4.123   1.430   9.342  0.6452  0.8451 -0.0554
   89SAPS  C310 8650   4.059   1.616   9.256 -0.3064  0.3020  0.5224
   89SAPS  H10X 8651   3.971   1.682   9.274 -1.1548 -0.1055 -1.8673
   89SAPS  H10Y 8652   4.024   1.556   9.170  1.0414 -1.8958  1.4204
   89SAPS  C311 8653   4.172   1.713   9.215  0.5900  0.1855 -0.3140
   89SAPS  H11X 8654   4.202   1.773   9.304 -1.4479  0.0915  0.5047
   89SAPS  H11Y 8655   4.136   1.783   9.137  0.4980  0.1766 -0.2808
   89SAPS  C312 8656   4.293   1.640   9.155  0.5347 -0.0097 -0.0823
   89SAPS  H12X 8657   4.256   1.578   9.071 -0.2577  0.1315  0.1478
   89SAPS  H12Y 8658   4.339   1.570   9.228  3.1526  1.2853 -0.3639
   89SAPS  C313 8659   4.412   1.728   9.111 -0.1730  0.4040  0.4454
   89SAPS  H13X 8660   4.461   1.753   9.207 -1.4916 -0.0054  1.2499
   89SAPS  H13Y 8661   4.376   1.818   9.058  1.5127  1.3687  0.8591
   89SAPS  C314 8662   4.508   1.650   9.018  0.3330 -0.3767 -0.2053
   89SAPS  H14X 8663   4.462   1.627   8.920  2.4253 -0.6013 -1.1821
   89SAPS  H14Y 8664   4.533   1.551   9.062  0.0067 -0.1342  0.5347
   89SAPS  C315 8665   4.644   1.725   8.990  0.0759 -0.5603  0.3501
   89SAPS  H15X 8666   4.617   1.819   8.938  0.1005 -0.4438  0.5476
   89SAPS  H15Y 8667   4.704   1.656   8.927  0.0074 -0.2430 -0.0662
   89SAPS  C316 8668   4.725   1.778   9.116  0.2040  0.1802 -0.2096
   89SAPS  H16X 8669   4.744   1.691   9.182 -0.8631 -0.1439 -0.3244
   89SAPS  H16Y 8670   4.664   1.855   9.168  0.3111  0.8686 -1.0615
   89SAPS  C317 8671   4.853   1.848   9.069 -0.1815 -0.0181  0.3131
   89SAPS  H17X 8672   4.846   1.950   9.024  2.1173  1.0474  2.1015
   89SAPS  H17Y 8673   4.881   1.799   8.973 -0.3537  2.0642 -0.8742
   89SAPS  C318 8674   4.966   1.859   9.171 -0.6668 -1.1400 -0.1054
   89SAPS  H18X 8675   4.923   1.923   9.250 -1.8215  0.0044 -1.6026
   89SAPS  H18Y 8676   5.054   1.915   9.133 -0.6879 -0.8712  0.2467
   89SAPS  H18Z 8677   4.996   1.753   9.189  2.3723 -0.3329  0.1216
   90SAPS     N 8678   6.254   0.488  10.777 -0.1020 -0.5308  0.2047
   90SAPS   HN1 8679   6.324   0.445  10.712 -0.7345 -1.0726 -0.1307
   90SAPS   HN2 8680   6.165   0.435  10.773  1.6177 -3.6240 -0.3904
   90SAPS   HN3 8681   6.239   0.586  10.747  1.4608 -0.1337  0.6510
   90SAPS   C12 8682   6.296   0.500  10.919 -0.4049 -0.4455 -0.2500
   90SAPS  H12A 8683   6.219   0.548  10.977 -0.2037 -0.4172 -0.0028
   90SAPS   C13 8684   6.321   0.358  10.984  0.7908 -0.4935 -0.0839
   90SAPS  O13A 8685   6.306   0.254  10.914  0.1999 -0.6651  0.1277
   90SAPS  O13B 8686   6.366   0.355  11.102  0.5034 -0.2406  0.2061
   90SAPS   C11 8687   6.425   0.579  10.932 -0.7491  0.8004  0.1347
   90SAPS  H11A 8688   6.503   0.511  10.891 -0.4185  0.6788  0.9632
   90SAPS  H11B 8689   6.445   0.601  11.039 -0.3265 -0.4006  0.3155
   90SAPS     P 8690   6.415   0.831  10.910  0.2961 -0.0683  0.0691
   90SAPS   O13 8691   6.295   0.829  10.993 -0.1957  0.0432  0.1401
   90SAPS   O14 8692   6.539   0.873  10.982  0.4307 -0.4897 -0.2234
   90SAPS   O12 8693   6.431   0.690  10.842  0.8282  0.0206  0.2961
   90SAPS   O11 8694   6.392   0.927  10.792 -0.1630  0.3869 -0.2418
   90SAPS    C1 8695   6.454   0.909  10.662 -0.6235 -0.1817  0.2841
   90SAPS    HA 8696   6.474   1.009  10.619 -0.4881 -1.3932 -2.6519
   90SAPS    HB 8697   6.548   0.849  10.660 -0.5651 -0.1529 -3.4576
   90SAPS    C2 8698   6.350   0.840  10.566  1.0786  0.8451 -0.2733
   90SAPS    HS 8699   6.336   0.733  10.591 -2.2165  0.2336 -3.7196
   90SAPS   O21 8700   6.372   0.861  10.427  0.2107  0.4394  0.3274
   90SAPS   C21 8701   6.396   0.757  10.355  0.3296  0.1203 -0.2537
   90SAPS   O22 8702   6.403   0.642  10.396 -0.1546 -0.4631  0.5376
   90SAPS   C22 8703   6.401   0.802  10.206  0.0886  0.2942 -0.3721
   90SAPS   H2R 8704   6.298   0.832  10.177 -2.0269 -2.6998  3.1444
   90SAPS   H2S 8705   6.453   0.899  10.191  1.0742 -0.2139 -0.2663
   90SAPS    C3 8706   6.207   0.904  10.595  0.4615 -0.3657 -1.0747
   90SAPS    HX 8707   6.219   1.015  10.586 -0.0552 -0.2957 -0.9117
   90SAPS    HY 8708   6.187   0.886  10.702  1.4652  1.0421 -0.6259
   90SAPS   O31 8709   6.109   0.844  10.509  0.2243 -0.2510  0.3282
   90SAPS   C31 8710   6.060   0.724  10.544 -0.5548 -0.3271 -0.2198
   90SAPS   O32 8711   6.108   0.659  10.634 -0.5920  0.0213 -0.1154
   90SAPS   C32 8712   5.945   0.695  10.448 -0.1151  0.0110 -0.2506
   90SAPS   H2X 8713   5.852   0.753  10.470 -0.6938 -0.8083 -0.4712
   90SAPS   H2Y 8714   5.926   0.587  10.466  0.9121  0.0424  1.2382
   90SAPS   C23 8715   6.436   0.697  10.107  0.3202 -0.5503  0.0541
   90SAPS   H3R 8716   6.351   0.628  10.091 -1.2226  1.3871 -0.5698
   90SAPS   H3S 8717   6.529   0.643  10.136 -1.4367 -3.9185 -0.0809
   90SAPS   C24 8718   6.472   0.747   9.965 -0.1537  0.1213  0.1994
   90SAPS   H4R 8719   6.514   0.658   9.913 -1.3606  0.7153 -1.9119
   90SAPS   H4S 8720   6.557   0.817   9.981  2.2073 -2.8685  1.7150
   90SAPS   C25 8721   6.351   0.805   9.903  0.6014 -0.5534 -0.0102
   90SAPS   H5R 8722   6.253   0.763   9.930  0.0884 -0.8679 -2.2117
   90SAPS   C26 8723   6.348   0.903   9.812  0.0747  0.1094  0.1589
   90SAPS   H6R 8724   6.257   0.955   9.776 -0.2088  0.1121  0.8723
   90SAPS   C27 8725   6.463   0.977   9.749 -0.3495 -0.6774  0.0957
   90SAPS   H7R 8726   6.547   0.905   9.740 -1.9040 -2.5520 -0.1575
   90SAPS   H7S 8727   6.501   1.054   9.820 -2.9886  2.1889 -1.3349
   90SAPS   C28 8728   6.427   1.042   9.617 -0.5043  0.1399  0.4409
   90SAPS   H8R 8729   6.354   1.123   9.631 -1.4691 -1.0223  2.5872
   90SAPS   C29 8730   6.472   0.998   9.496  0.0357  0.5681  0.1486
   90SAPS   H9R 8731   6.459   1.060   9.406  0.0588 -2.9168 -2.4898
   90SAPS  C210 8732   6.578   0.891   9.477  0.2964 -0.1715 -0.3831
   90SAPS  H10R 8733   6.579   0.807   9.550 -0.2463 -1.3490 -1.6742
   90SAPS  H10S 8734   6.678   0.937   9.487 -0.0347  0.4637  0.0572
   90SAPS  C211 8735   6.590   0.834   9.341  0.8050 -0.2025  0.3366
   90SAPS  H11R 8736   6.550   0.732   9.332 -0.3294  0.2173  0.4284
   90SAPS  C212 8737   6.630   0.892   9.227 -0.3200  0.2435  0.1556
   90SAPS  H12R 8738   6.615   0.831   9.136  0.4100 -1.3062  1.0291
   90SAPS  C213 8739   6.673   1.038   9.206 -0.1514  0.2005 -0.1771
   90SAPS  H13R 8740   6.673   1.099   9.299  0.2336  1.9224 -1.2677
   90SAPS  H13S 8741   6.611   1.090   9.129 -0.0579  0.5092 -0.0449
   90SAPS  C214 8742   6.817   1.034   9.165  0.1299  0.1487  0.4743
   90SAPS  H14R 8743   6.895   1.041   9.242  2.2824 -1.6882 -1.3901
   90SAPS  C215 8744   6.867   1.033   9.042  0.5613  0.7660 -0.4795
   90SAPS  H15R 8745   6.977   1.031   9.043  0.5516 -1.1188 -0.4823
   90SAPS  C216 8746   6.796   1.030   8.907 -0.2697  0.3379  0.0871
   90SAPS  H16R 8747   6.689   1.054   8.925 -0.0015  0.4210  1.7589
   90SAPS  H16S 8748   6.792   0.925   8.870  2.1320  0.6023 -1.1228
   90SAPS  C217 8749   6.873   1.108   8.802 -0.3206 -0.1574  0.7721
   90SAPS  H17R 8750   6.829   1.095   8.701 -0.6845  1.8448  0.6229
   90SAPS  H17S 8751   6.977   1.070   8.800  0.0671  0.7576  2.0372
   90SAPS  C218 8752   6.899   1.266   8.828 -0.5147  0.1307  0.3780
   90SAPS  H18R 8753   6.952   1.279   8.925  3.8176 -1.0385 -1.5812
   90SAPS  H18S 8754   6.796   1.304   8.812 -0.0544  1.1875 -0.2772
   90SAPS  C219 8755   7.000   1.341   8.735  0.4500  0.4937 -0.1065
   90SAPS  H19R 8756   6.983   1.448   8.763 -1.5452 -0.0484  0.9992
   90SAPS  H19S 8757   6.966   1.321   8.631 -0.4612  1.7122 -0.0662
   90SAPS  C220 8758   7.143   1.291   8.756  0.8824 -0.0379 -0.3389
   90SAPS  H20R 8759   7.216   1.345   8.691  0.8600 -1.2533 -1.4083
   90SAPS  H20S 8760   7.160   1.187   8.720  0.9746  0.7621 -2.8178
   90SAPS  H20T 8761   7.167   1.300   8.864 -1.4230 -2.0156  0.4093
   90SAPS   C33 8762   5.983   0.706  10.302  0.0268 -0.1277  0.4068
   90SAPS   H3X 8763   6.076   0.648  10.283 -0.2292 -0.4860  0.2418
   90SAPS   H3Y 8764   5.993   0.813  10.272 -0.6573  0.3839  1.9112
   90SAPS   C34 8765   5.878   0.653  10.205  0.0766 -0.3589  0.1948
   90SAPS   H4X 8766   5.785   0.713  10.214  0.4765  0.5879 -1.5908
   90SAPS   H4Y 8767   5.852   0.551  10.242  1.1751 -0.8196 -0.2626
   90SAPS   C35 8768   5.925   0.644  10.056  0.8450  0.3170  0.8919
   90SAPS   H5X 8769   6.022   0.593  10.045  1.2866  1.2862  0.0790
   90SAPS   H5Y 8770   5.928   0.747  10.014 -3.0828  1.5966  3.1571
   90SAPS   C36 8771   5.833   0.558   9.969  0.6734  0.0943  0.3409
   90SAPS   H6X 8772   5.730   0.600   9.962  0.9864  0.5601 -3.0936
   90SAPS   H6Y 8773   5.836   0.458  10.017 -1.1885  0.2733  0.9063
   90SAPS   C37 8774   5.860   0.533   9.821  0.4534  0.4317 -0.3975
   90SAPS   H7X 8775   5.758   0.527   9.778  0.1292 -0.2905  0.4545
   90SAPS   H7Y 8776   5.912   0.441   9.789  1.6111  1.4517 -1.5574
   90SAPS   C38 8777   5.951   0.636   9.758 -0.3413  0.3021  0.2974
   90SAPS   H8X 8778   6.030   0.638   9.835 -2.1955 -0.1651  2.3125
   90SAPS   H8Y 8779   5.906   0.737   9.762  3.5246  2.2902 -1.1398
   90SAPS   C39 8780   5.988   0.612   9.611  0.3900  0.0947 -0.2252
   90SAPS   H9X 8781   5.887   0.609   9.564  1.0040  1.2617 -1.7056
   90SAPS   H9Y 8782   6.044   0.516   9.607  0.4425  0.0885  0.5291
   90SAPS  C310 8783   6.058   0.721   9.532  0.0252  0.0447 -0.4668
   90SAPS  H10X 8784   6.148   0.745   9.592 -0.1586 -0.6742  0.1099
   90SAPS  H10Y 8785   6.005   0.816   9.509 -0.1349 -0.2785 -1.4681
   90SAPS  C311 8786   6.090   0.658   9.391 -0.2247 -0.2790 -0.6916
   90SAPS  H11X 8787   5.988   0.631   9.355 -3.2692  3.1179  4.1051
   90SAPS  H11Y 8788   6.160   0.574   9.407  0.1779  0.3071  0.8020
   90SAPS  C312 8789   6.165   0.762   9.310  0.3685  0.2307  0.1835
   90SAPS  H12X 8790   6.251   0.805   9.365  0.0511  0.8258  0.2266
   90SAPS  H12Y 8791   6.107   0.856   9.297  0.9261  0.7809  1.5203
   90SAPS  C313 8792   6.208   0.706   9.174 -0.1315 -0.2196  0.5619
   90SAPS  H13X 8793   6.135   0.647   9.114  1.3764 -1.3069 -0.2555
   90SAPS  H13Y 8794   6.282   0.631   9.209  2.6301  2.7583  1.5307
   90SAPS  C314 8795   6.266   0.814   9.087  0.2855 -0.4093  0.2661
   90SAPS  H14X 8796   6.309   0.900   9.143 -0.4707  0.6538 -0.7356
   90SAPS  H14Y 8797   6.179   0.868   9.043  0.6931  1.3294  1.4922
   90SAPS  C315 8798   6.370   0.757   8.995  0.4335  0.4850  0.5536
   90SAPS  H15X 8799   6.315   0.678   8.940  1.0928  0.1243  0.4045
   90SAPS  H15Y 8800   6.450   0.699   9.044  1.1272  0.1790 -0.9068
   90SAPS  C316 8801   6.431   0.844   8.889 -0.1063  0.7130  0.1555
   90SAPS  H16X 8802   6.485   0.923   8.944 -0.3213  0.7882  0.2582
   90SAPS  H16Y 8803   6.352   0.882   8.820  0.6737  1.2425 -0.4662
   90SAPS  C317 8804   6.525   0.766   8.795 -0.5200  0.4240  0.1304
   90SAPS  H17X 8805   6.568   0.853   8.740  0.9428  1.0432  2.1538
   90SAPS  H17Y 8806   6.467   0.704   8.723 -0.1505  2.5239 -2.0989
   90SAPS  C318 8807   6.640   0.688   8.862  0.5435 -0.0671 -0.5241
   90SAPS  H18X 8808   6.607   0.584   8.886 -0.8070  0.8072  1.5730
   90SAPS  H18Y 8809   6.683   0.747   8.945  0.7089  0.0070 -0.6603
   90SAPS  H18Z 8810   6.726   0.665   8.795  0.6823 -1.5078  0.0933
   91SAPS     N 8811   3.877   6.274   6.126 -0.1237  0.1444 -0.5451
   91SAPS   HN1 8812   3.957   6.286   6.192 -0.4116 -1.2546  0.1043
   91SAPS   HN2 8813   3.863   6.355   6.062  0.2149 -0.0049 -0.8086
   91SAPS   HN3 8814   3.786   6.246   6.169 -0.1151  0.5757 -0.2431
   91SAPS   C12 8815   3.940   6.170   6.036 -0.0183 -0.5328  0.9380
   91SAPS  H12A 8816   3.869   6.141   5.959  2.3522 -1.1907 -1.1171
   91SAPS   C13 8817   4.067   6.223   5.968 -0.7320  0.2485  0.0102
   91SAPS  O13A 8818   4.111   6.339   5.988 -0.5822  0.1336 -0.0892
   91SAPS  O13B 8819   4.113   6.144   5.884  0.1639  0.8252  0.3702
   91SAPS   C11 8820   3.979   6.045   6.128  0.3911  0.3596  0.1305
   91SAPS  H11A 8821   4.049   6.083   6.206  1.9619 -0.4056 -0.8431
   91SAPS  H11B 8822   4.038   5.977   6.062  1.1954  0.6257  0.5598
   91SAPS     P 8823   3.906   5.866   6.287 -0.3319  0.1511  0.0609
   91SAPS   O13 8824   3.822   5.745   6.270  0.3373 -0.7077  0.0992
   91SAPS   O14 8825   4.049   5.840   6.295  0.9142  0.6360  0.4936
   91SAPS   O12 8826   3.865   5.977   6.175  0.1921 -0.2471 -0.0044
   91SAPS   O11 8827   3.870   5.944   6.424  0.7847  0.3309  0.5350
   91SAPS    C1 8828   3.774   6.054   6.421  0.3186  0.2051 -0.6217
   91SAPS    HA 8829   3.832   6.136   6.374  0.6901  0.2307 -0.1239
   91SAPS    HB 8830   3.684   6.026   6.362  0.6415  1.0851 -1.5591
   91SAPS    C2 8831   3.724   6.094   6.566  0.0491 -0.1997 -0.3752
   91SAPS    HS 8832   3.807   6.160   6.601 -1.1133  0.9344  0.3541
   91SAPS   O21 8833   3.675   5.979   6.645 -0.1367 -0.4933 -0.3233
   91SAPS   C21 8834   3.701   5.982   6.768  0.1689  0.2279  0.2889
   91SAPS   O22 8835   3.767   6.064   6.835  0.4774  0.0289  0.2775
   91SAPS   C22 8836   3.629   5.857   6.827  0.3070  0.1244  0.0106
   91SAPS   H2R 8837   3.521   5.880   6.819  0.5162  1.0146 -0.3585
   91SAPS   H2S 8838   3.641   5.764   6.768 -2.3719  0.1158 -0.6507
   91SAPS    C3 8839   3.600   6.181   6.538  0.6113 -0.3644 -0.2772
   91SAPS    HX 8840   3.519   6.133   6.480  1.5367 -1.4929 -0.6759
   91SAPS    HY 8841   3.631   6.264   6.470  1.5471 -1.5254 -1.3217
   91SAPS   O31 8842   3.554   6.239   6.653 -0.3684 -0.5396 -0.0915
   91SAPS   C31 8843   3.453   6.185   6.721 -0.1239  0.5352 -0.2623
   91SAPS   O32 8844   3.403   6.077   6.694 -0.0796 -0.1425 -0.2825
   91SAPS   C32 8845   3.413   6.262   6.841 -0.2431 -0.2984 -0.2747
   91SAPS   H2X 8846   3.335   6.205   6.896 -0.9167 -0.0193 -0.9168
   91SAPS   H2Y 8847   3.377   6.366   6.820 -1.4598  0.1647  3.3713
   91SAPS   C23 8848   3.666   5.827   6.977 -0.0354 -0.5234 -0.3376
   91SAPS   H3R 8849   3.591   5.873   7.046 -1.4005  1.0919 -2.7493
   91SAPS   H3S 8850   3.756   5.885   7.006  0.2931 -1.0015 -0.4018
   91SAPS   C24 8851   3.683   5.680   7.019  0.0282  0.3186  0.3278
   91SAPS   H4R 8852   3.712   5.691   7.126  0.3152  3.9577 -0.0084
   91SAPS   H4S 8853   3.767   5.624   6.974 -0.9406 -0.6662 -0.3102
   91SAPS   C25 8854   3.552   5.597   6.992 -0.3325 -0.4210 -0.7629
   91SAPS   H5R 8855   3.530   5.586   6.885  0.0230  2.5135 -1.2369
   91SAPS   C26 8856   3.450   5.572   7.085 -0.0320  0.3028 -0.2805
   91SAPS   H6R 8857   3.353   5.533   7.049  0.2249 -0.6742  0.0380
   91SAPS   C27 8858   3.459   5.613   7.228 -0.0460  0.7436  0.7822
   91SAPS   H7R 8859   3.352   5.624   7.254 -0.0449  0.8981  0.7195
   91SAPS   H7S 8860   3.498   5.717   7.235  2.6603 -0.0712 -0.5694
   91SAPS   C28 8861   3.540   5.524   7.318  0.0267 -0.3804  0.1471
   91SAPS   H8R 8862   3.592   5.443   7.265  0.0977 -1.1651  1.3922
   91SAPS   C29 8863   3.552   5.532   7.452  0.0799  0.5817 -0.5051
   91SAPS   H9R 8864   3.621   5.462   7.501 -0.0329  0.9130  0.1239
   91SAPS  C210 8865   3.485   5.641   7.531  0.0792 -0.0507 -0.2568
   91SAPS  H10R 8866   3.418   5.598   7.609  0.3127 -1.4655 -0.8117
   91SAPS  H10S 8867   3.407   5.688   7.468 -2.3648 -1.8898  1.2410
   91SAPS  C211 8868   3.584   5.751   7.574  0.1215 -0.6525 -0.1167
   91SAPS  H11R 8869   3.636   5.815   7.501  0.0280 -0.7463 -0.2664
   91SAPS  C212 8870   3.616   5.784   7.697  0.2581  1.0734  0.1776
   91SAPS  H12R 8871   3.683   5.869   7.719  2.3252 -0.5430  0.5268
   91SAPS  C213 8872   3.561   5.710   7.814  0.0692  0.3240 -0.0102
   91SAPS  H13R 8873   3.461   5.663   7.802 -0.6504  0.4872  3.8617
   91SAPS  H13S 8874   3.548   5.779   7.900  2.9347 -1.3842  2.0064
   91SAPS  C214 8875   3.657   5.606   7.866  0.3801  0.1128  0.1453
   91SAPS  H14R 8876   3.699   5.538   7.791 -1.0389 -1.7723  0.9504
   91SAPS  C215 8877   3.706   5.595   7.991 -0.2544  0.1791  0.0758
   91SAPS  H15R 8878   3.777   5.512   8.004  1.4776  1.1060 -2.5171
   91SAPS  C216 8879   3.687   5.684   8.112 -0.7787  0.2453  0.6313
   91SAPS  H16R 8880   3.655   5.786   8.082 -0.1068  0.0726 -0.7474
   91SAPS  H16S 8881   3.786   5.697   8.161 -0.8271  1.0864  0.5287
   91SAPS  C217 8882   3.595   5.619   8.214  0.1317 -0.0549 -0.7493
   91SAPS  H17R 8883   3.627   5.516   8.240  1.2577  0.3392 -0.5243
   91SAPS  H17S 8884   3.491   5.624   8.175  0.6297  1.6628 -1.9793
   91SAPS  C218 8885   3.583   5.687   8.354 -0.4108  0.7048  0.3881
   91SAPS  H18R 8886   3.559   5.793   8.330  0.4548  0.8664  0.2003
   91SAPS  H18S 8887   3.686   5.676   8.395  0.2402  0.1697 -1.2910
   91SAPS  C219 8888   3.485   5.624   8.447  0.1395  0.0500  0.0832
   91SAPS  H19R 8889   3.509   5.515   8.451  0.1704 -0.0020 -1.1205
   91SAPS  H19S 8890   3.393   5.612   8.385  1.1176 -3.8983 -0.9134
   91SAPS  C220 8891   3.470   5.689   8.581  0.5152 -0.0161 -1.1729
   91SAPS  H20R 8892   3.427   5.615   8.651  2.0280  0.2474  0.1050
   91SAPS  H20S 8893   3.396   5.771   8.566 -0.3764 -0.3290  1.1380
   91SAPS  H20T 8894   3.563   5.729   8.629 -0.4687 -0.9265  1.7105
   91SAPS   C33 8895   3.522   6.271   6.947 -0.0578  0.4408 -0.7478
   91SAPS   H3X 8896   3.611   6.316   6.900  0.0528  0.1537 -0.8174
   91SAPS   H3Y 8897   3.544   6.168   6.984 -1.8382  0.3606  0.2128
   91SAPS   C34 8898   3.470   6.351   7.067  0.4849 -0.6157  0.0505
   91SAPS   H4X 8899   3.382   6.304   7.115 -0.4602  1.5277  0.5062
   91SAPS   H4Y 8900   3.431   6.448   7.031  0.7338 -0.6641 -0.3547
   91SAPS   C35 8901   3.578   6.372   7.171 -0.5622  0.1100 -1.0695
   91SAPS   H5X 8902   3.668   6.427   7.138 -0.8555  1.5191  0.3797
   91SAPS   H5Y 8903   3.622   6.273   7.196  0.0235  1.1724  2.8427
   91SAPS   C36 8904   3.518   6.450   7.294 -0.6044  0.4065  0.2989
   91SAPS   H6X 8905   3.429   6.391   7.325 -1.8382  1.5142 -0.9806
   91SAPS   H6Y 8906   3.482   6.549   7.259  3.4480  1.9436 -0.1234
   91SAPS   C37 8907   3.616   6.448   7.412  0.0190 -0.2409  0.1350
   91SAPS   H7X 8908   3.685   6.530   7.382  0.2437  0.1215  1.5841
   91SAPS   H7Y 8909   3.663   6.347   7.416 -2.4738 -1.4334  1.0991
   91SAPS   C38 8910   3.545   6.485   7.544  0.3056  0.6147  0.2591
   91SAPS   H8X 8911   3.475   6.405   7.576 -0.1601  0.6699 -0.5864
   91SAPS   H8Y 8912   3.488   6.579   7.527  0.5921  0.2504 -3.3802
   91SAPS   C39 8913   3.649   6.516   7.658  0.3425  0.3059 -0.1991
   91SAPS   H9X 8914   3.702   6.614   7.650 -0.2591  0.7226  0.7872
   91SAPS   H9Y 8915   3.721   6.432   7.668  0.7507  0.6130 -0.4719
   91SAPS  C310 8916   3.578   6.528   7.795  0.3530  0.8570  0.1514
   91SAPS  H10X 8917   3.495   6.455   7.806 -0.2918  1.6238  0.4392
   91SAPS  H10Y 8918   3.540   6.631   7.812  0.7204  1.0507 -0.1823
   91SAPS  C311 8919   3.669   6.495   7.915  0.6303 -0.2594 -0.3081
   91SAPS  H11X 8920   3.758   6.561   7.916  0.3078  0.1682  0.2154
   91SAPS  H11Y 8921   3.712   6.394   7.897  0.3353 -0.5226  0.4371
   91SAPS  C312 8922   3.601   6.489   8.063 -0.1004 -0.3620  0.5594
   91SAPS  H12X 8923   3.662   6.416   8.122 -1.1209 -1.7180 -0.0111
   91SAPS  H12Y 8924   3.498   6.450   8.050 -1.1088  1.1289  3.3429
   91SAPS  C313 8925   3.601   6.620   8.137 -0.2015 -0.5609  0.4161
   91SAPS  H13X 8926   3.518   6.679   8.092  2.3397  1.7623 -1.5760
   91SAPS  H13Y 8927   3.696   6.664   8.101 -0.6026 -2.2463 -3.1372
   91SAPS  C314 8928   3.594   6.600   8.289 -0.1443  0.3668 -0.3577
   91SAPS  H14X 8929   3.600   6.703   8.328  0.2888  0.6584 -1.1593
   91SAPS  H14Y 8930   3.685   6.546   8.325 -0.9552  0.0333  1.2657
   91SAPS  C315 8931   3.460   6.531   8.328 -0.0537 -0.2877 -0.3934
   91SAPS  H15X 8932   3.426   6.465   8.246 -1.8009 -1.1531  0.9624
   91SAPS  H15Y 8933   3.386   6.614   8.334  0.8276  0.4362  1.7180
   91SAPS  C316 8934   3.464   6.444   8.455  0.5271 -0.1229  0.2621
   91SAPS  H16X 8935   3.548   6.372   8.446  0.2947 -0.2814 -0.7581
   91SAPS  H16Y 8936   3.366   6.394   8.464  0.1804  0.7350  1.5175
   91SAPS  C317 8937   3.471   6.523   8.584 -0.5234 -0.1707 -0.1867
   91SAPS  H17X 8938   3.380   6.584   8.606  0.5854  0.5100  3.1271
   91SAPS  H17Y 8939   3.565   6.581   8.576  1.0889 -2.7286 -0.9224
   91SAPS  C318 8940   3.485   6.431   8.702 -0.3009  0.3595 -0.0654
   91SAPS  H18X 8941   3.410   6.350   8.690 -0.5168  0.9224 -3.1075
   91SAPS  H18Y 8942   3.486   6.481   8.802 -0.8306  1.7429 -0.7337
   91SAPS  H18Z 8943   3.582   6.378   8.692  0.2995  1.1958  1.0508
   92SAPS     N 8944   3.125   5.082   6.576 -0.2556 -0.4923 -0.6652
   92SAPS   HN1 8945   3.206   5.132   6.619 -0.8554 -0.9563  1.1065
   92SAPS   HN2 8946   3.051   5.152   6.559  3.7955  4.1022 -1.4329
   92SAPS   HN3 8947   3.092   5.007   6.640 -1.7580  0.7731  0.0879
   92SAPS   C12 8948   3.166   5.015   6.452 -0.6537  0.1545 -0.4858
   92SAPS  H12A 8949   3.079   4.956   6.427 -1.2288  0.2391  1.2112
   92SAPS   C13 8950   3.202   5.105   6.329 -0.4188 -0.4132 -0.5542
   92SAPS  O13A 8951   3.161   5.229   6.326  0.6179 -0.5991 -0.0204
   92SAPS  O13B 8952   3.225   5.047   6.223  0.0847  0.1611  0.7626
   92SAPS   C11 8953   3.292   4.933   6.484  0.3622  0.5760 -0.5300
   92SAPS  H11A 8954   3.386   4.991   6.499  1.8915 -1.9312  0.3200
   92SAPS  H11B 8955   3.306   4.865   6.397  0.4736 -2.7537  1.8785
   92SAPS     P 8956   3.236   4.711   6.634 -0.0160  0.3101 -0.4667
   92SAPS   O13 8957   3.093   4.676   6.616 -0.2347  0.5316  0.1420
   92SAPS   O14 8958   3.322   4.620   6.555  0.6368 -0.1522  0.2304
   92SAPS   O12 8959   3.264   4.859   6.600 -0.0844  0.4190  0.2607
   92SAPS   O11 8960   3.270   4.681   6.787 -0.1280  0.2204  0.2569
   92SAPS    C1 8961   3.215   4.762   6.888  0.4628 -0.2853  0.0490
   92SAPS    HA 8962   3.263   4.861   6.893  3.4700 -1.7204  1.7510
   92SAPS    HB 8963   3.105   4.770   6.871  0.6006 -1.5658 -1.8561
   92SAPS    C2 8964   3.211   4.691   7.031 -0.2965 -0.4612  0.4061
   92SAPS    HS 8965   3.144   4.743   7.103  0.0725 -0.2390  0.5879
   92SAPS   O21 8966   3.343   4.697   7.084 -0.5589  0.0760 -0.0254
   92SAPS   C21 8967   3.351   4.698   7.217 -0.1237 -0.2048 -0.2472
   92SAPS   O22 8968   3.260   4.711   7.296  0.1210  0.0726  0.4243
   92SAPS   C22 8969   3.502   4.677   7.263  1.5273  0.3333 -0.0739
   92SAPS   H2R 8970   3.555   4.620   7.184  0.0571  1.7154 -2.1494
   92SAPS   H2S 8971   3.546   4.779   7.266  1.0423  0.5340  1.1180
   92SAPS    C3 8972   3.163   4.552   7.026 -0.4460 -0.2091  0.8003
   92SAPS    HX 8973   3.238   4.496   6.967 -2.6346 -0.5946 -1.7836
   92SAPS    HY 8974   3.068   4.543   6.970 -0.2144  1.9538 -0.0237
   92SAPS   O31 8975   3.152   4.486   7.150  0.0935 -0.2932  0.5771
   92SAPS   C31 8976   3.032   4.472   7.208  0.3265 -0.0489  0.0558
   92SAPS   O32 8977   2.925   4.515   7.162 -0.4004  0.9149  0.0651
   92SAPS   C32 8978   3.050   4.393   7.334 -0.0177 -0.6220  0.0379
   92SAPS   H2X 8979   3.122   4.443   7.402 -0.0527 -1.5446  0.7822
   92SAPS   H2Y 8980   3.099   4.295   7.312  0.0762 -0.1581 -2.0372
   92SAPS   C23 8981   3.504   4.623   7.410  0.3973  0.8481  0.0022
   92SAPS   H3R 8982   3.458   4.522   7.412 -1.0004  1.4359  2.6247
   92SAPS   H3S 8983   3.434   4.679   7.475  2.0918  2.1502  0.7850
   92SAPS   C24 8984   3.642   4.619   7.466  0.2461  0.5305  0.1758
   92SAPS   H4R 8985   3.684   4.722   7.461 -2.9682  2.0140  1.3823
   92SAPS   H4S 8986   3.706   4.555   7.401  1.7999  1.1507  1.0374
   92SAPS   C25 8987   3.635   4.550   7.604  0.9737 -0.3059  0.9307
   92SAPS   H5R 8988   3.586   4.452   7.604  0.5854 -0.1141  0.7269
   92SAPS   C26 8989   3.660   4.608   7.724 -0.7658  0.1290 -1.1334
   92SAPS   H6R 8990   3.658   4.547   7.816 -0.3234  1.7626 -0.0060
   92SAPS   C27 8991   3.694   4.752   7.756 -0.3824  0.1632  0.6856
   92SAPS   H7R 8992   3.691   4.818   7.667 -0.2161 -1.6050 -0.6809
   92SAPS   H7S 8993   3.802   4.752   7.783 -0.5594 -0.3924  1.4428
   92SAPS   C28 8994   3.619   4.812   7.874 -0.9466  0.3595 -0.5878
   92SAPS   H8R 8995   3.524   4.859   7.842  0.1809  2.1893 -1.3810
   92SAPS   C29 8996   3.634   4.782   8.006  0.5993  0.4566 -0.2072
   92SAPS   H9R 8997   3.585   4.836   8.089 -1.5426 -2.4677  0.5639
   92SAPS  C210 8998   3.754   4.692   8.045  0.6910  0.7236 -0.2384
   92SAPS  H10R 8999   3.835   4.698   7.969  0.7550  3.5682 -0.0366
   92SAPS  H10S 9000   3.723   4.585   8.044  0.0423  0.9094 -0.7623
   92SAPS  C211 9001   3.800   4.729   8.187  0.1487  0.2286 -0.5020
   92SAPS  H11R 9002   3.884   4.800   8.178  0.9452 -0.8207 -1.4972
   92SAPS  C212 9003   3.759   4.682   8.311 -0.2894 -0.3217  0.7303
   92SAPS  H12R 9004   3.811   4.723   8.399  2.3024  0.6132 -1.0885
   92SAPS  C213 9005   3.648   4.589   8.333  0.3678  0.4445 -0.7416
   92SAPS  H13R 9006   3.610   4.570   8.230 -0.2427  0.1129 -0.4666
   92SAPS  H13S 9007   3.567   4.631   8.397 -0.3583  1.6299 -2.3724
   92SAPS  C214 9008   3.687   4.454   8.398  0.9109 -0.0535 -0.4972
   92SAPS  H14R 9009   3.762   4.463   8.478  0.3354 -1.6137  0.2656
   92SAPS  C215 9010   3.631   4.331   8.377 -0.0591 -0.7565 -0.2591
   92SAPS  H15R 9011   3.678   4.248   8.433 -0.5246 -1.0526 -0.3018
   92SAPS  C216 9012   3.519   4.309   8.277  0.0325  0.0439  0.2027
   92SAPS  H16R 9013   3.554   4.237   8.200  0.2430  0.0609  0.2830
   92SAPS  H16S 9014   3.500   4.403   8.220  0.6436 -0.8433 -1.5379
   92SAPS  C217 9015   3.396   4.248   8.337  0.3400  0.0380  0.4632
   92SAPS  H17R 9016   3.422   4.146   8.372 -1.4229 -0.7489 -0.3865
   92SAPS  H17S 9017   3.315   4.223   8.265 -0.7886 -3.3183  2.6395
   92SAPS  C218 9018   3.339   4.325   8.455 -0.5163 -0.0107  0.9934
   92SAPS  H18R 9019   3.321   4.429   8.419 -0.2297 -0.3375 -0.1358
   92SAPS  H18S 9020   3.415   4.337   8.535 -1.0044  0.6486  1.3718
   92SAPS  C219 9021   3.217   4.262   8.519  0.0444 -0.3451 -0.0704
   92SAPS  H19R 9022   3.227   4.153   8.540 -0.8947 -0.1928  1.2976
   92SAPS  H19S 9023   3.129   4.272   8.452  0.8455  0.1141 -1.0753
   92SAPS  C220 9024   3.174   4.326   8.647 -0.0174 -0.0995  0.0949
   92SAPS  H20R 9025   3.227   4.423   8.661 -0.5885  0.4220 -1.1770
   92SAPS  H20S 9026   3.183   4.261   8.736 -1.7297 -1.5377 -0.7086
   92SAPS  H20T 9027   3.067   4.357   8.645  0.3654  1.2786 -0.0929
   92SAPS   C33 9028   2.920   4.357   7.403  1.3359 -0.3891 -0.2278
   92SAPS   H3X 9029   2.938   4.276   7.477 -2.2635  1.6121  3.1864
   92SAPS   H3Y 9030   2.839   4.322   7.335  0.6769 -2.2765  1.4260
   92SAPS   C34 9031   2.856   4.466   7.491  0.8312  0.4633 -0.7016
   92SAPS   H4X 9032   2.748   4.443   7.498  1.1008 -0.9210 -0.9147
   92SAPS   H4Y 9033   2.865   4.562   7.434 -1.1068  0.1840 -1.5443
   92SAPS   C35 9034   2.910   4.482   7.636  0.3615 -0.5112 -0.3454
   92SAPS   H5X 9035   3.005   4.538   7.625  1.5190 -1.3424  3.6965
   92SAPS   H5Y 9036   2.935   4.381   7.676  0.8043 -0.1256  0.3478
   92SAPS   C36 9037   2.803   4.528   7.729 -0.6351  0.1461 -0.5548
   92SAPS   H6X 9038   2.713   4.464   7.718 -1.4388  1.5289 -2.7246
   92SAPS   H6Y 9039   2.770   4.628   7.693  1.9033  0.1669 -3.1759
   92SAPS   C37 9040   2.860   4.534   7.872 -0.6424  0.0983  0.4990
   92SAPS   H7X 9041   2.939   4.612   7.871 -0.6865  0.1875 -2.0160
   92SAPS   H7Y 9042   2.908   4.434   7.881 -0.9387 -0.4524 -2.8563
   92SAPS   C38 9043   2.751   4.550   7.978  0.0833 -0.5708 -0.2352
   92SAPS   H8X 9044   2.684   4.463   7.962 -1.9623  0.8604  0.2112
   92SAPS   H8Y 9045   2.693   4.644   7.965 -1.0933 -1.5547 -2.5567
   92SAPS   C39 9046   2.800   4.550   8.124 -0.9020 -0.3523  0.1343
   92SAPS   H9X 9047   2.873   4.634   8.122  1.7445 -2.5091 -2.2089
   92SAPS   H9Y 9048   2.852   4.454   8.142  2.1054  1.1963  0.3085
   92SAPS  C310 9049   2.690   4.564   8.222 -0.2471  0.3522  0.5210
   92SAPS  H10X 9050   2.605   4.507   8.179 -0.8868 -0.9645  3.2620
   92SAPS  H10Y 9051   2.651   4.668   8.229  0.1431  0.6159 -1.0753
   92SAPS  C311 9052   2.725   4.490   8.356  0.1427 -0.0884 -0.8072
   92SAPS  H11X 9053   2.799   4.548   8.414 -1.1841 -0.1748  1.0778
   92SAPS  H11Y 9054   2.764   4.390   8.328 -0.2515 -0.6903  0.6981
   92SAPS  C312 9055   2.590   4.469   8.435  0.4630  0.0866  0.1789
   92SAPS  H12X 9056   2.519   4.400   8.384  1.5229 -0.6958 -0.2791
   92SAPS  H12Y 9057   2.551   4.572   8.448  0.0694 -0.0658  0.2460
   92SAPS  C313 9058   2.620   4.415   8.573  0.4997  0.2405 -0.3915
   92SAPS  H13X 9059   2.667   4.495   8.634 -2.7169 -0.6938  3.8566
   92SAPS  H13Y 9060   2.682   4.328   8.543  1.8151  1.2789 -0.7787
   92SAPS  C314 9061   2.493   4.370   8.650  0.1974  1.1149  0.1162
   92SAPS  H14X 9062   2.454   4.279   8.599 -2.0119  2.3891 -0.6233
   92SAPS  H14Y 9063   2.415   4.445   8.627 -1.2756  0.2307  1.9680
   92SAPS  C315 9064   2.501   4.364   8.804  0.3032 -0.2250 -0.6185
   92SAPS  H15X 9065   2.405   4.332   8.850  0.4474  0.8791  0.5083
   92SAPS  H15Y 9066   2.515   4.468   8.840  0.5699 -0.3562 -0.3370
   92SAPS  C316 9067   2.612   4.271   8.867  0.8413  0.2072 -0.3438
   92SAPS  H16X 9068   2.709   4.291   8.815  1.5334 -0.4012  0.6810
   92SAPS  H16Y 9069   2.586   4.168   8.837 -0.4561  1.1551 -2.7961
   92SAPS  C317 9070   2.637   4.284   9.019  0.4131 -0.6137 -0.2000
   92SAPS  H17X 9071   2.548   4.255   9.079  0.9037  0.0286  0.8732
   92SAPS  H17Y 9072   2.650   4.395   9.022  0.5136 -0.6248 -0.2280
   92SAPS  C318 9073   2.770   4.230   9.072  0.8930 -0.2006  0.8472
   92SAPS  H18X 9074   2.849   4.265   9.003 -0.7099  1.5018 -0.2294
   92SAPS  H18Y 9075   2.767   4.119   9.075  0.7604 -0.1781  2.3377
   92SAPS  H18Z 9076   2.783   4.279   9.171  1.4354  2.3671 -0.4291
   93SAPS     N 9077   4.108   3.799   6.530  0.4952  0.0769 -0.5712
   93SAPS   HN1 9078   4.089   3.868   6.606  0.4204 -1.6884  1.0850
   93SAPS   HN2 9079   4.129   3.708   6.575 -1.0779  0.3407  0.8261
   93SAPS   HN3 9080   4.184   3.837   6.470 -0.8007  0.2724 -2.1549
   93SAPS   C12 9081   3.975   3.792   6.457 -0.2052 -0.0353 -0.3413
   93SAPS  H12A 9082   3.952   3.884   6.404 -0.7238 -0.1012 -0.2359
   93SAPS   C13 9083   3.965   3.676   6.359 -0.7226 -0.4658  0.6728
   93SAPS  O13A 9084   4.066   3.602   6.342  0.9045 -0.1047 -0.6484
   93SAPS  O13B 9085   3.852   3.643   6.317  0.0020  0.0613 -0.0961
   93SAPS   C11 9086   3.866   3.764   6.570 -0.0359  0.0633 -0.0721
   93SAPS  H11A 9087   3.890   3.664   6.612 -1.7003 -0.0680  0.6529
   93SAPS  H11B 9088   3.764   3.746   6.528 -0.0974  0.7264 -0.2156
   93SAPS     P 9089   3.810   4.009   6.645 -0.0489  0.1371  0.2359
   93SAPS   O13 9090   3.890   4.058   6.531 -0.0885 -0.2182  0.3549
   93SAPS   O14 9091   3.663   3.996   6.632  0.0122 -0.0438  0.0938
   93SAPS   O12 9092   3.859   3.865   6.682 -0.1582  0.5390  0.5710
   93SAPS   O11 9093   3.848   4.080   6.782  0.3050  0.5293 -0.0508
   93SAPS    C1 9094   3.887   4.219   6.770 -0.3572 -0.2877 -0.5126
   93SAPS    HA 9095   3.820   4.280   6.706 -1.1135 -1.9737 -1.4067
   93SAPS    HB 9096   3.869   4.261   6.872 -0.3223  0.7129 -0.9086
   93SAPS    C2 9097   4.035   4.254   6.734  0.2729 -0.2038  0.1011
   93SAPS    HS 9098   4.055   4.208   6.634  1.3301 -3.3678  1.6010
   93SAPS   O21 9099   4.120   4.191   6.836  0.3194 -0.4588 -0.0099
   93SAPS   C21 9100   4.153   4.057   6.813  0.4099 -0.7651  0.0941
   93SAPS   O22 9101   4.126   3.999   6.713  0.4389 -0.1800  0.4774
   93SAPS   C22 9102   4.239   3.995   6.928 -0.2938 -0.8883  0.4445
   93SAPS   H2R 9103   4.228   3.886   6.910 -1.3642 -0.8025  0.4838
   93SAPS   H2S 9104   4.344   4.026   6.911 -0.0799 -1.9428 -0.2402
   93SAPS    C3 9105   4.044   4.400   6.741  0.2562 -0.8764  0.3596
   93SAPS    HX 9106   3.986   4.429   6.650  0.3310 -1.2864  0.1770
   93SAPS    HY 9107   4.145   4.438   6.715 -0.4782  0.7346 -0.3169
   93SAPS   O31 9108   3.999   4.468   6.862 -0.1565 -0.3517 -0.4044
   93SAPS   C31 9109   3.962   4.598   6.844  0.0881 -0.2374  0.0610
   93SAPS   O32 9110   3.970   4.661   6.739 -0.4928  0.0893 -0.8415
   93SAPS   C32 9111   3.919   4.654   6.972 -0.1099 -0.4887  0.2089
   93SAPS   H2X 9112   3.983   4.624   7.057  2.4995 -0.0448 -1.4525
   93SAPS   H2Y 9113   3.817   4.617   6.995  0.3176 -2.2636 -0.6254
   93SAPS   C23 9114   4.176   4.022   7.063  0.5877  0.4735  0.3624
   93SAPS   H3R 9115   4.075   3.975   7.066  0.9594 -0.5014 -1.3546
   93SAPS   H3S 9116   4.164   4.130   7.085  0.4247  0.6810 -0.7005
   93SAPS   C24 9117   4.263   3.961   7.184 -0.2746  0.9883 -0.9239
   93SAPS   H4R 9118   4.284   3.855   7.155 -1.7037  0.4470 -0.0705
   93SAPS   H4S 9119   4.195   3.970   7.271 -1.5707 -0.4633 -1.7221
   93SAPS   C25 9120   4.390   4.046   7.190  0.0701  0.7960  0.3544
   93SAPS   H5R 9121   4.453   4.051   7.100 -1.2521  1.4660 -0.5660
   93SAPS   C26 9122   4.425   4.125   7.289 -0.0826  0.0120 -0.3889
   93SAPS   H6R 9123   4.522   4.175   7.287 -0.1788  0.2565  0.5222
   93SAPS   C27 9124   4.347   4.148   7.414  0.5035 -0.1878 -0.0621
   93SAPS   H7R 9125   4.243   4.163   7.378  0.2261 -0.4146  0.6346
   93SAPS   H7S 9126   4.375   4.243   7.464  2.5085 -1.2366  0.9091
   93SAPS   C28 9127   4.351   4.027   7.502  0.2774  0.2560 -1.0452
   93SAPS   H8R 9128   4.327   3.939   7.441  1.9935  0.9061 -2.7794
   93SAPS   C29 9129   4.378   4.032   7.636  0.9561  0.0549  0.0670
   93SAPS   H9R 9130   4.372   3.938   7.693  0.9326 -0.2948 -0.5070
   93SAPS  C210 9131   4.420   4.150   7.717  0.1472 -0.0961  0.1267
   93SAPS  H10R 9132   4.399   4.240   7.655  0.4469 -1.3485 -1.8953
   93SAPS  H10S 9133   4.531   4.145   7.717  0.2613  0.0366 -2.9821
   93SAPS  C211 9134   4.366   4.172   7.857 -0.0008  0.4905  0.0146
   93SAPS  H11R 9135   4.270   4.226   7.861 -1.1191 -1.1970 -1.8645
   93SAPS  C212 9136   4.427   4.138   7.971  0.2176  0.0016  0.1177
   93SAPS  H12R 9137   4.385   4.175   8.066 -2.2405 -0.5655 -0.6822
   93SAPS  C213 9138   4.558   4.069   7.979  0.1630  0.2976 -0.0542
   93SAPS  H13R 9139   4.585   4.014   7.886 -0.8960  1.6336 -1.2007
   93SAPS  H13S 9140   4.556   3.979   8.044  2.3274 -0.5951 -1.1565
   93SAPS  C214 9141   4.673   4.150   8.032 -0.0036 -0.4292 -0.0616
   93SAPS  H14R 9142   4.724   4.219   7.963 -2.5218  1.2470 -0.3947
   93SAPS  C215 9143   4.725   4.152   8.152  0.4088 -0.1087  0.0261
   93SAPS  H15R 9144   4.808   4.223   8.163  1.3263 -0.8924 -1.4277
   93SAPS  C216 9145   4.707   4.075   8.279  0.5745  0.0982  0.3196
   93SAPS  H16R 9146   4.805   4.059   8.329  2.2323  2.6369 -1.8238
   93SAPS  H16S 9147   4.653   3.978   8.274  2.0456 -0.7191 -0.1820
   93SAPS  C217 9148   4.625   4.170   8.364  0.4888  0.1249 -0.4963
   93SAPS  H17R 9149   4.590   4.117   8.456 -0.5881  1.6741  0.0274
   93SAPS  H17S 9150   4.529   4.196   8.314  0.3354  2.2101  0.7354
   93SAPS  C218 9151   4.701   4.293   8.409 -1.3632 -0.6587 -0.0599
   93SAPS  H18R 9152   4.690   4.370   8.329 -4.9723  1.1002  1.8871
   93SAPS  H18S 9153   4.810   4.271   8.400 -1.7759 -2.2013 -2.0405
   93SAPS  C219 9154   4.671   4.343   8.549 -0.2022 -0.1406 -0.3395
   93SAPS  H19R 9155   4.718   4.442   8.566  0.8400 -0.7487  0.4459
   93SAPS  H19S 9156   4.709   4.278   8.630  0.9725 -0.0825 -0.8295
   93SAPS  C220 9157   4.522   4.369   8.565 -1.0613  0.1730 -0.5937
   93SAPS  H20R 9158   4.500   4.456   8.499 -0.7174 -0.3815 -1.4651
   93SAPS  H20S 9159   4.488   4.389   8.668 -0.3842 -0.7356 -0.1772
   93SAPS  H20T 9160   4.468   4.280   8.525 -1.7256  0.1571  0.3222
   93SAPS   C33 9161   3.904   4.816   6.967  0.4502 -0.3928 -0.9032
   93SAPS   H3X 9162   3.861   4.850   6.870 -1.0761 -1.9203 -0.7933
   93SAPS   H3Y 9163   4.009   4.851   6.982 -0.3332  1.9841 -0.4801
   93SAPS   C34 9164   3.807   4.857   7.080 -0.3220 -0.8061  0.7066
   93SAPS   H4X 9165   3.705   4.819   7.057 -0.4098 -0.3519  0.3109
   93SAPS   H4Y 9166   3.799   4.968   7.079  0.2068 -0.7353 -1.4534
   93SAPS   C35 9167   3.848   4.807   7.216 -0.6316 -0.2760  0.4364
   93SAPS   H5X 9168   3.855   4.697   7.220  2.7356 -0.3651 -2.7959
   93SAPS   H5Y 9169   3.759   4.834   7.276 -0.8224  1.6855 -0.6337
   93SAPS   C36 9170   3.983   4.875   7.264  0.4146 -0.5134  0.1483
   93SAPS   H6X 9171   3.982   4.986   7.265 -0.1789 -0.5115  0.9781
   93SAPS   H6Y 9172   4.068   4.854   7.196  0.6288 -0.5133  0.4116
   93SAPS   C37 9173   4.037   4.825   7.401  0.4711 -0.3463 -0.0427
   93SAPS   H7X 9174   4.147   4.837   7.410  0.1892  3.5020 -0.1587
   93SAPS   H7Y 9175   4.022   4.718   7.425 -0.0792 -0.6795 -1.7096
   93SAPS   C38 9176   3.979   4.915   7.515  0.7570  0.1184  0.0532
   93SAPS   H8X 9177   3.872   4.888   7.522  0.3919  1.6130  0.6784
   93SAPS   H8Y 9178   3.997   5.021   7.484  2.7194 -0.5018 -1.0812
   93SAPS   C39 9179   4.045   4.900   7.655 -0.0412  0.4052  0.2399
   93SAPS   H9X 9180   4.153   4.921   7.642 -0.2206  1.0313 -0.3364
   93SAPS   H9Y 9181   4.031   4.799   7.698 -2.4099  0.7289  0.3921
   93SAPS  C310 9182   3.986   4.993   7.765 -0.1293  0.7800 -0.0831
   93SAPS  H10X 9183   3.880   4.970   7.790  0.7014 -1.9774  1.3154
   93SAPS  H10Y 9184   3.986   5.097   7.725 -1.7049  0.6708 -0.4474
   93SAPS  C311 9185   4.065   4.989   7.901  0.0532  0.0606 -0.3710
   93SAPS  H11X 9186   4.171   5.002   7.870 -0.7693  1.2461 -2.9814
   93SAPS  H11Y 9187   4.045   4.882   7.926  0.6392 -0.2389 -1.1143
   93SAPS  C312 9188   4.015   5.094   7.992 -0.2477 -0.3118 -0.9036
   93SAPS  H12X 9189   3.916   5.069   8.036  0.4231  1.1236  1.5814
   93SAPS  H12Y 9190   4.014   5.194   7.943  2.6328  0.8058  1.0817
   93SAPS  C313 9191   4.106   5.106   8.117  0.1151 -0.0462 -0.0931
   93SAPS  H13X 9192   4.082   5.194   8.179  1.1128 -0.1513  0.4535
   93SAPS  H13Y 9193   4.205   5.100   8.068  0.4503  2.5104  0.1824
   93SAPS  C314 9194   4.089   4.994   8.220 -0.2986 -0.3493 -0.2128
   93SAPS  H14X 9195   4.101   4.897   8.166  2.0498  0.7449 -1.8367
   93SAPS  H14Y 9196   3.987   4.998   8.263 -0.5692  1.6433 -0.9406
   93SAPS  C315 9197   4.189   4.986   8.340 -0.2820 -0.0845  0.4724
   93SAPS  H15X 9198   4.192   5.092   8.371  0.7512  0.1053 -0.2433
   93SAPS  H15Y 9199   4.293   4.963   8.308  0.1700  0.7611  1.3066
   93SAPS  C316 9200   4.150   4.903   8.459 -0.9206  0.3170  0.4004
   93SAPS  H16X 9201   4.242   4.858   8.501 -0.7815  0.6484  0.4530
   93SAPS  H16Y 9202   4.098   4.815   8.414  1.4653  0.0016 -1.9700
   93SAPS  C317 9203   4.062   4.964   8.567 -0.0960  0.1792  0.1714
   93SAPS  H17X 9204   4.013   4.886   8.628 -2.2271  1.9440  0.8466
   93SAPS  H17Y 9205   3.966   4.998   8.524  1.4688  2.7353 -1.6206
   93SAPS  C318 9206   4.120   5.076   8.659 -0.4149 -0.3336  0.2483
   93SAPS  H18X 9207   4.037   5.113   8.723 -0.4959  1.8562 -0.9875
   93SAPS  H18Y 9208   4.172   5.156   8.602  1.2773 -1.6043 -0.0541
   93SAPS  H18Z 9209   4.195   5.027   8.724 -0.4413 -0.7936 -0.0593
   94SAPS     N 9210   4.122   0.391   5.926  0.0076  0.1342 -0.0061
   94SAPS   HN1 9211   4.120   0.433   5.830 -3.2671 -0.3479 -0.2547
   94SAPS   HN2 9212   4.054   0.429   5.995 -2.3098  2.1978 -3.1135
   94SAPS   HN3 9213   4.216   0.401   5.968 -0.2709 -0.9561  0.9203
   94SAPS   C12 9214   4.078   0.249   5.911 -1.0178 -0.3732  0.6632
   94SAPS  H12A 9215   4.079   0.202   6.008 -1.4402 -1.7584  0.0261
   94SAPS   C13 9216   3.933   0.225   5.870 -0.3374 -0.5191 -0.1784
   94SAPS  O13A 9217   3.856   0.325   5.850  0.1504  0.3068 -0.5378
   94SAPS  O13B 9218   3.881   0.109   5.872  0.5976 -0.3469 -0.2350
   94SAPS   C11 9219   4.178   0.171   5.813  1.0001  0.2260  0.1206
   94SAPS  H11A 9220   4.156   0.225   5.719 -0.7287  0.1004  0.4208
   94SAPS  H11B 9221   4.140   0.067   5.799  0.8898  0.4100 -1.0611
   94SAPS     P 9222   4.385   0.071   5.937 -0.1468  0.0632  0.2306
   94SAPS   O13 9223   4.347  -0.063   5.894 -0.5687 -0.6057  0.8516
   94SAPS   O14 9224   4.530   0.103   5.944  0.3900  0.6531  0.3012
   94SAPS   O12 9225   4.316   0.174   5.839 -0.6313 -0.4728 -0.1707
   94SAPS   O11 9226   4.309   0.110   6.066  0.4540 -0.5243  0.1083
   94SAPS    C1 9227   4.349   0.220   6.144 -0.2738  0.0484  0.1334
   94SAPS    HA 9228   4.361   0.312   6.082 -0.3400  1.2274  1.8199
   94SAPS    HB 9229   4.266   0.244   6.214  2.0061  2.2901  2.2642
   94SAPS    C2 9230   4.467   0.197   6.241 -0.7072  0.1450  0.8255
   94SAPS    HS 9231   4.554   0.157   6.185 -0.1051  2.0135  0.3543
   94SAPS   O21 9232   4.434   0.103   6.346 -0.3448 -0.2676 -0.2049
   94SAPS   C21 9233   4.505  -0.016   6.363 -0.6018  0.4472 -0.0954
   94SAPS   O22 9234   4.599  -0.055   6.291 -0.4966  0.1496 -0.0412
   94SAPS   C22 9235   4.459  -0.082   6.494 -0.4051  0.3822 -0.5388
   94SAPS   H2R 9236   4.348  -0.077   6.497 -0.4485 -0.3792 -0.4691
   94SAPS   H2S 9237   4.487  -0.190   6.491  0.6947  0.5557  1.4273
   94SAPS    C3 9238   4.526   0.329   6.306  0.4051  0.1702 -0.9399
   94SAPS    HX 9239   4.551   0.398   6.223 -0.0682 -0.9827 -2.0589
   94SAPS    HY 9240   4.621   0.308   6.361 -1.0314 -0.5522  1.4124
   94SAPS   O31 9241   4.424   0.390   6.384  0.6334  0.1506 -0.2819
   94SAPS   C31 9242   4.451   0.404   6.517 -0.0023 -0.2825  0.2188
   94SAPS   O32 9243   4.557   0.369   6.570 -0.1345 -0.4598 -0.4450
   94SAPS   C32 9244   4.321   0.443   6.589  0.0081 -0.0785 -0.6162
   94SAPS   H2X 9245   4.234   0.383   6.554  1.2947 -0.5170 -3.3337
   94SAPS   H2Y 9246   4.287   0.541   6.548 -0.8024 -0.7694 -1.6235
   94SAPS   C23 9247   4.536  -0.028   6.618  0.4712  0.0207 -0.1264
   94SAPS   H3R 9248   4.560   0.080   6.606  1.7030 -0.4955 -3.0534
   94SAPS   H3S 9249   4.635  -0.077   6.628  0.8200  1.0994  2.9587
   94SAPS   C24 9250   4.458  -0.060   6.745 -0.2464  0.1670 -0.4887
   94SAPS   H4R 9251   4.352  -0.027   6.740 -0.6218 -0.7004  0.9981
   94SAPS   H4S 9252   4.495  -0.005   6.834 -1.7596 -1.0908  0.9991
   94SAPS   C25 9253   4.457  -0.209   6.778 -0.3772  0.4409 -0.1629
   94SAPS   H5R 9254   4.384  -0.265   6.719 -0.1467  0.2488 -0.2695
   94SAPS   C26 9255   4.544  -0.284   6.856 -0.6144  0.4697 -0.7047
   94SAPS   H6R 9256   4.516  -0.390   6.871  0.8989  0.1666  0.2566
   94SAPS   C27 9257   4.652  -0.229   6.946 -0.2068 -0.2947  0.4245
   94SAPS   H7R 9258   4.632  -0.123   6.969 -0.2800 -0.7532  2.6767
   94SAPS   H7S 9259   4.740  -0.247   6.880 -1.3751 -0.8442 -1.0507
   94SAPS   C28 9260   4.668  -0.294   7.083 -0.2580  1.1621 -0.4789
   94SAPS   H8R 9261   4.754  -0.364   7.083 -3.1653 -2.8334  1.9326
   94SAPS   C29 9262   4.589  -0.284   7.192  0.6989 -0.0985 -0.2423
   94SAPS   H9R 9263   4.614  -0.332   7.288  0.9411  0.6450  0.0752
   94SAPS  C210 9264   4.459  -0.199   7.197 -0.5071 -0.2847  0.0794
   94SAPS  H10R 9265   4.388  -0.263   7.253 -0.5634  0.4804  0.9069
   94SAPS  H10S 9266   4.415  -0.171   7.099  0.8291 -1.7872 -1.0134
   94SAPS  C211 9267   4.477  -0.082   7.290 -0.0143  0.2316  0.4580
   94SAPS  H11R 9268   4.473   0.007   7.226  2.5485 -0.9410 -1.5168
   94SAPS  C212 9269   4.467  -0.072   7.424  0.2294 -0.3898  0.0139
   94SAPS  H12R 9270   4.482   0.027   7.470 -3.9683  1.2457 -1.6150
   94SAPS  C213 9271   4.449  -0.178   7.522  1.2645 -0.4494  0.8115
   94SAPS  H13R 9272   4.442  -0.268   7.457  0.3712  2.5453 -3.7240
   94SAPS  H13S 9273   4.355  -0.156   7.578  1.9085  4.7255  0.3393
   94SAPS  C214 9274   4.570  -0.176   7.612  0.8737 -0.0268 -0.2345
   94SAPS  H14R 9275   4.664  -0.171   7.554  0.2866  0.4513 -1.1667
   94SAPS  C215 9276   4.570  -0.206   7.746 -1.6066 -0.3583  0.8253
   94SAPS  H15R 9277   4.666  -0.233   7.791 -1.5519 -2.0345 -0.2262
   94SAPS  C216 9278   4.452  -0.222   7.836 -0.0859  0.5000  0.1165
   94SAPS  H16R 9279   4.440  -0.328   7.867 -1.0410  0.4428 -0.3845
   94SAPS  H16S 9280   4.358  -0.207   7.778  0.4147 -1.7461 -1.3937
   94SAPS  C217 9281   4.448  -0.132   7.957  0.2745  0.1063  0.2644
   94SAPS  H17R 9282   4.342  -0.129   7.990  0.1261  0.9560 -0.2690
   94SAPS  H17S 9283   4.479  -0.030   7.925  1.3449 -0.2810  0.0414
   94SAPS  C218 9284   4.544  -0.175   8.063 -0.2300 -0.8623 -0.1780
   94SAPS  H18R 9285   4.649  -0.175   8.026  0.2525 -0.7874  1.1479
   94SAPS  H18S 9286   4.528  -0.281   8.092  0.5228 -1.0466 -0.4032
   94SAPS  C219 9287   4.530  -0.099   8.193 -0.0916  0.7186 -0.0107
   94SAPS  H19R 9288   4.605  -0.135   8.266  1.5499  2.3495 -0.8062
   94SAPS  H19S 9289   4.435  -0.122   8.244 -0.1209  1.0487  0.0885
   94SAPS  C220 9290   4.521   0.055   8.191  0.5923  0.6268 -0.0661
   94SAPS  H20R 9291   4.425   0.086   8.145  0.5552 -0.9465 -1.1107
   94SAPS  H20S 9292   4.600   0.103   8.130  1.4575 -1.3040 -0.5227
   94SAPS  H20T 9293   4.528   0.096   8.295  0.7676  0.0407  0.1547
   94SAPS   C33 9294   4.329   0.436   6.747  0.2278  0.0035 -0.0264
   94SAPS   H3X 9295   4.247   0.499   6.785  0.6654 -1.0366  2.8605
   94SAPS   H3Y 9296   4.425   0.484   6.776  0.5673  0.7427 -2.1530
   94SAPS   C34 9297   4.309   0.293   6.805  0.6893 -0.1713  0.1362
   94SAPS   H4X 9298   4.396   0.231   6.775  0.0408 -1.3961  0.7446
   94SAPS   H4Y 9299   4.216   0.258   6.756 -0.0660  1.0787  0.6398
   94SAPS   C35 9300   4.273   0.294   6.957  0.0478 -0.1877  0.3422
   94SAPS   H5X 9301   4.180   0.355   6.963 -0.9710 -1.6418 -0.1114
   94SAPS   H5Y 9302   4.348   0.350   7.017 -0.2201  1.1943 -0.5657
   94SAPS   C36 9303   4.268   0.152   7.014 -0.2993  0.6178 -0.0973
   94SAPS   H6X 9304   4.371   0.110   7.016 -0.2688  0.6870 -0.2039
   94SAPS   H6Y 9305   4.211   0.086   6.946  0.5735  1.1188 -1.3616
   94SAPS   C37 9306   4.216   0.144   7.161 -0.0974 -0.4862 -0.2672
   94SAPS   H7X 9307   4.226   0.040   7.198  0.5054 -1.1470 -2.1437
   94SAPS   H7Y 9308   4.108   0.165   7.148  0.1748  3.0196  1.9732
   94SAPS   C38 9309   4.284   0.237   7.260  0.3255  0.4812 -0.0935
   94SAPS   H8X 9310   4.294   0.341   7.223  3.9263  0.3519  0.1705
   94SAPS   H8Y 9311   4.386   0.193   7.259 -0.2636 -0.9549  0.2873
   94SAPS   C39 9312   4.212   0.239   7.402 -0.4423 -0.0566  0.2026
   94SAPS   H9X 9313   4.167   0.140   7.427  1.2510 -2.0517 -3.7502
   94SAPS   H9Y 9314   4.126   0.308   7.389  0.1609  0.3670 -1.9558
   94SAPS  C310 9315   4.289   0.296   7.519  0.1491 -0.3837 -0.0568
   94SAPS  H10X 9316   4.276   0.407   7.516  1.4593 -0.2122 -2.8490
   94SAPS  H10Y 9317   4.399   0.292   7.502  0.0510 -1.1668 -0.5529
   94SAPS  C311 9318   4.252   0.235   7.651  0.4259  0.0348 -0.3268
   94SAPS  H11X 9319   4.261   0.125   7.652  1.0041  0.0748  1.5802
   94SAPS  H11Y 9320   4.146   0.265   7.671 -0.7018 -2.7359 -1.5906
   94SAPS  C312 9321   4.326   0.287   7.775  0.0020 -0.1629 -0.3441
   94SAPS  H12X 9322   4.293   0.235   7.867  0.3365  0.5959  0.2225
   94SAPS  H12Y 9323   4.332   0.398   7.783  1.5991 -0.2614  0.2464
   94SAPS  C313 9324   4.479   0.253   7.762  0.1974  0.1478  0.5211
   94SAPS  H13X 9325   4.536   0.296   7.677  1.8192 -1.0244  0.9772
   94SAPS  H13Y 9326   4.474   0.142   7.761  0.6332  0.0830  2.1225
   94SAPS  C314 9327   4.552   0.275   7.895 -0.6071  0.0449 -0.1331
   94SAPS  H14X 9328   4.620   0.189   7.907  0.0333  0.0989 -2.8829
   94SAPS  H14Y 9329   4.471   0.274   7.972  0.2262 -0.8641  0.7619
   94SAPS  C315 9330   4.639   0.405   7.905  0.9413 -0.0586  0.0670
   94SAPS  H15X 9331   4.580   0.497   7.883  1.0784  0.0557  0.1733
   94SAPS  H15Y 9332   4.718   0.391   7.828 -0.5400 -2.9330 -1.0980
   94SAPS  C316 9333   4.690   0.412   8.050  0.4208 -0.3791  0.3696
   94SAPS  H16X 9334   4.730   0.308   8.058  1.4079 -0.2215 -1.7788
   94SAPS  H16Y 9335   4.613   0.414   8.130  0.7188  1.1744  0.6493
   94SAPS  C317 9336   4.805   0.509   8.076  0.2046 -0.0834 -0.1932
   94SAPS  H17X 9337   4.766   0.612   8.096  2.0527  0.5294  0.4046
   94SAPS  H17Y 9338   4.862   0.516   7.982  1.3505  1.2147  0.5617
   94SAPS  C318 9339   4.889   0.458   8.192 -0.1505 -0.3477  0.3728
   94SAPS  H18X 9340   4.954   0.372   8.165  0.7604  0.0455  1.2387
   94SAPS  H18Y 9341   4.817   0.437   8.273 -2.1749  0.7265 -1.0715
   94SAPS  H18Z 9342   4.953   0.541   8.229 -1.4889  0.5995  0.6516
   95SAPS     N 9343   0.026   5.998   6.331 -0.2081 -0.1141  0.0611
   95SAPS   HN1 9344  -0.016   6.066   6.264  2.1486 -1.8661 -3.5044
   95SAPS   HN2 9345   0.105   6.046   6.380  0.3029  0.3085 -1.1472
   95SAPS   HN3 9346   0.058   5.914   6.280 -0.1265  0.4047 -0.7512
   95SAPS   C12 9347  -0.064   5.935   6.427  0.7234  0.0738 -0.6586
   95SAPS  H12A 9348  -0.073   5.996   6.516 -0.6047 -1.3040  0.2050
   95SAPS   C13 9349  -0.206   5.903   6.375  0.0829 -0.2032  0.3616
   95SAPS  O13A 9350  -0.239   5.935   6.257  0.6390  0.1137 -0.4743
   95SAPS  O13B 9351  -0.285   5.843   6.450  0.1038 -0.2345  0.0663
   95SAPS   C11 9352  -0.002   5.802   6.464  0.0348  0.4353 -1.0210
   95SAPS  H11A 9353  -0.063   5.758   6.545 -1.5509 -0.1318 -2.4621
   95SAPS  H11B 9354   0.094   5.826   6.513  0.1613  1.9962 -1.9585
   95SAPS     P 9355  -0.025   5.568   6.337  0.3969  0.0746 -0.2027
   95SAPS   O13 9356  -0.164   5.552   6.289  0.4911 -0.7424  0.2673
   95SAPS   O14 9357   0.080   5.497   6.263  0.4136 -0.3833 -0.1950
   95SAPS   O12 9358   0.016   5.715   6.350  1.3631  0.2903 -0.0163
   95SAPS   O11 9359  -0.025   5.519   6.486  0.6124 -0.6358  0.0191
   95SAPS    C1 9360   0.088   5.469   6.554  0.0567 -0.0230 -0.3717
   95SAPS    HA 9361   0.133   5.389   6.492 -1.5932 -2.5882  1.5449
   95SAPS    HB 9362   0.160   5.554   6.552 -1.1455  1.0332 -0.5021
   95SAPS    C2 9363   0.062   5.418   6.695 -0.4277 -0.6299 -0.1684
   95SAPS    HS 9364   0.153   5.363   6.727 -1.4168 -2.3496 -0.1551
   95SAPS   O21 9365  -0.050   5.327   6.705 -0.6063 -0.0497 -0.0046
   95SAPS   C21 9366  -0.012   5.202   6.723 -0.1884  0.0240  0.1560
   95SAPS   O22 9367   0.098   5.155   6.698 -0.0241 -0.2166 -0.7770
   95SAPS   C22 9368  -0.127   5.129   6.798 -0.1463 -0.5815  0.4619
   95SAPS   H2R 9369  -0.210   5.202   6.805 -0.2123 -0.5189 -0.7286
   95SAPS   H2S 9370  -0.163   5.050   6.728  0.3635 -1.0065  0.6683
   95SAPS    C3 9371   0.039   5.534   6.797  0.4877  0.5871  0.0348
   95SAPS    HX 9372  -0.049   5.596   6.766  1.0859  1.1455 -0.5622
   95SAPS    HY 9373   0.128   5.600   6.800  0.1166  1.0866  1.8868
   95SAPS   O31 9374   0.024   5.471   6.926  0.3648  0.7075  0.2249
   95SAPS   C31 9375   0.017   5.567   7.021 -0.0975  0.6619  0.0265
   95SAPS   O32 9376   0.007   5.685   7.003  0.1607  0.1035 -0.2478
   95SAPS   C32 9377   0.049   5.499   7.156  0.7548 -0.1776 -0.2446
   95SAPS   H2X 9378   0.159   5.510   7.168  0.6358  0.3044  0.4713
   95SAPS   H2Y 9379   0.022   5.391   7.151  1.6950 -0.3846 -1.3810
   95SAPS   C23 9380  -0.067   5.077   6.931  0.1992  0.4275 -0.4215
   95SAPS   H3R 9381  -0.025   5.164   6.986 -1.0909  0.7979  0.0408
   95SAPS   H3S 9382   0.018   5.009   6.913  0.6356  0.2124  2.0388
   95SAPS   C24 9383  -0.181   5.018   7.017 -0.0515  0.2980 -0.2190
   95SAPS   H4R 9384  -0.276   5.073   6.999 -0.1211  0.4196  0.4827
   95SAPS   H4S 9385  -0.163   5.018   7.127 -0.4058 -0.4496 -0.1495
   95SAPS   C25 9386  -0.222   4.880   6.973 -0.7135  0.0893  0.0289
   95SAPS   H5R 9387  -0.210   4.871   6.864 -0.6576  0.2137  0.0236
   95SAPS   C26 9388  -0.251   4.773   7.053 -0.2546 -0.8162 -0.6740
   95SAPS   H6R 9389  -0.294   4.681   7.011 -1.9783 -0.1158 -0.5482
   95SAPS   C27 9390  -0.251   4.783   7.212  0.1333  0.1797  0.5089
   95SAPS   H7R 9391  -0.155   4.803   7.264 -0.4399  1.4609  1.1299
   95SAPS   H7S 9392  -0.277   4.681   7.247  0.7784 -0.0358  0.3727
   95SAPS   C28 9393  -0.357   4.881   7.276 -0.0456  0.7633  0.0967
   95SAPS   H8R 9394  -0.419   4.931   7.201  0.0218 -0.7666 -1.0347
   95SAPS   C29 9395  -0.389   4.900   7.405 -0.5511 -0.3605 -0.2818
   95SAPS   H9R 9396  -0.455   4.983   7.434  0.7867  0.2902  1.0905
   95SAPS  C210 9397  -0.306   4.840   7.520 -0.0646  0.6424  0.2006
   95SAPS  H10R 9398  -0.244   4.756   7.481 -0.9235  0.4543 -0.8299
   95SAPS  H10S 9399  -0.384   4.791   7.582  1.5662 -0.4971  1.4240
   95SAPS  C211 9400  -0.223   4.941   7.603  0.0328  0.1854 -0.0263
   95SAPS  H11R 9401  -0.129   4.976   7.557 -0.9743  2.0154 -0.7868
   95SAPS  C212 9402  -0.243   4.987   7.724 -0.2276 -0.1809  0.0683
   95SAPS  H12R 9403  -0.167   5.053   7.768  1.1377 -0.3520 -1.9226
   95SAPS  C213 9404  -0.357   4.956   7.819  0.1668 -0.1150  0.1424
   95SAPS  H13R 9405  -0.455   4.967   7.768 -0.2900 -1.0630  0.7924
   95SAPS  H13S 9406  -0.357   5.035   7.897 -1.0762 -1.0818  1.1538
   95SAPS  C214 9407  -0.352   4.819   7.868  0.2415  0.6575 -0.4874
   95SAPS  H14R 9408  -0.342   4.734   7.799  0.5073 -0.8194  1.2790
   95SAPS  C215 9409  -0.375   4.786   7.999  0.7307 -0.9335 -1.0095
   95SAPS  H15R 9410  -0.365   4.681   8.031 -1.3322 -0.8129  0.1610
   95SAPS  C216 9411  -0.410   4.883   8.106 -0.6790 -0.0987 -0.1290
   95SAPS  H16R 9412  -0.520   4.868   8.104 -0.4837 -1.6800 -0.4485
   95SAPS  H16S 9413  -0.396   4.991   8.082 -1.8773  0.0688 -0.1514
   95SAPS  C217 9414  -0.349   4.848   8.242  0.3274 -0.4746  0.5977
   95SAPS  H17R 9415  -0.396   4.913   8.318  0.6687 -0.0873  0.4780
   95SAPS  H17S 9416  -0.243   4.873   8.220 -0.4393  1.5472 -1.1809
   95SAPS  C218 9417  -0.375   4.706   8.298  0.2925 -0.2007 -0.1715
   95SAPS  H18R 9418  -0.312   4.632   8.244  3.5342 -0.0111  2.9055
   95SAPS  H18S 9419  -0.482   4.679   8.291  0.2884 -0.2440  0.0472
   95SAPS  C219 9420  -0.345   4.691   8.447 -0.0998 -0.4941  1.0452
   95SAPS  H19R 9421  -0.407   4.762   8.506 -0.7725 -1.2099  1.2077
   95SAPS  H19S 9422  -0.247   4.741   8.468  0.5924 -1.3945  0.0844
   95SAPS  C220 9423  -0.353   4.556   8.525  0.4317  0.5438 -0.7717
   95SAPS  H20R 9424  -0.451   4.503   8.524  1.5491 -2.0491  3.2200
   95SAPS  H20S 9425  -0.320   4.581   8.628 -1.1805  1.6451 -0.4708
   95SAPS  H20T 9426  -0.278   4.483   8.489  0.4785  0.1965  0.0085
   95SAPS   C33 9427  -0.025   5.575   7.273 -0.8655  0.0422  0.0170
   95SAPS   H3X 9428  -0.136   5.566   7.272 -0.9070  0.4765  0.3436
   95SAPS   H3Y 9429  -0.003   5.684   7.273  0.6754 -0.2545  0.0473
   95SAPS   C34 9430   0.024   5.533   7.411 -0.0834 -0.2210  0.3124
   95SAPS   H4X 9431   0.134   5.546   7.418 -0.0217  0.8224 -1.7556
   95SAPS   H4Y 9432   0.006   5.426   7.432  0.6305 -0.3950  0.0732
   95SAPS   C35 9433  -0.023   5.622   7.534  0.4889  0.4807  0.0998
   95SAPS   H5X 9434  -0.132   5.623   7.556  0.8064  0.2069  1.8593
   95SAPS   H5Y 9435   0.019   5.724   7.517  1.1443 -0.0080 -1.3355
   95SAPS   C36 9436   0.044   5.572   7.663  0.2852  0.0763 -0.2420
   95SAPS   H6X 9437   0.155   5.570   7.657  0.4529  0.0461  2.0095
   95SAPS   H6Y 9438   0.010   5.468   7.681  1.2595 -0.0987  0.7652
   95SAPS   C37 9439  -0.001   5.656   7.777 -0.4859 -0.3436 -0.0094
   95SAPS   H7X 9440  -0.112   5.663   7.772 -0.3930  0.3798 -2.4541
   95SAPS   H7Y 9441   0.048   5.756   7.772  2.9836 -1.8263  1.4160
   95SAPS   C38 9442   0.024   5.593   7.912  1.2007 -0.0783  0.3648
   95SAPS   H8X 9443   0.130   5.571   7.937  1.5623  2.0412  0.8385
   95SAPS   H8Y 9444  -0.030   5.496   7.912  0.0686  0.5286 -0.0690
   95SAPS   C39 9445  -0.044   5.669   8.033 -0.4213  0.0968  0.3836
   95SAPS   H9X 9446  -0.154   5.683   8.025 -0.1051  2.2702 -0.7712
   95SAPS   H9Y 9447  -0.001   5.771   8.033 -2.8996  1.3046 -2.2945
   95SAPS  C310 9448  -0.003   5.599   8.163 -0.0494 -0.1803  0.5505
   95SAPS  H10X 9449   0.106   5.580   8.156  0.4269  2.0675  1.1030
   95SAPS  H10Y 9450  -0.072   5.518   8.194 -0.3140  0.9459  3.2331
   95SAPS  C311 9451  -0.015   5.685   8.297 -0.1423 -0.0962  0.2353
   95SAPS  H11X 9452  -0.115   5.729   8.309 -0.4646  0.4873 -3.4752
   95SAPS  H11Y 9453   0.065   5.761   8.285 -0.7993  0.3519 -1.5102
   95SAPS  C312 9454   0.004   5.595   8.424 -0.3945  0.4569 -0.1797
   95SAPS  H12X 9455   0.096   5.535   8.411 -0.2538  0.6902 -0.2700
   95SAPS  H12Y 9456  -0.086   5.531   8.439 -1.2378  1.4685 -0.7674
   95SAPS  C313 9457   0.032   5.674   8.555 -0.0062  0.2939 -0.4714
   95SAPS  H13X 9458  -0.053   5.744   8.571  0.4843  0.7692  0.0722
   95SAPS  H13Y 9459   0.110   5.750   8.533 -2.0985  2.3835 -1.2050
   95SAPS  C314 9460   0.062   5.589   8.683 -0.2903  0.1676 -0.1494
   95SAPS  H14X 9461   0.169   5.562   8.666 -0.9501 -2.7621 -0.2645
   95SAPS  H14Y 9462  -0.011   5.505   8.676 -1.4645  1.0442  1.1055
   95SAPS  C315 9463   0.068   5.663   8.824 -0.7543  0.4497 -0.0003
   95SAPS  H15X 9464   0.082   5.589   8.906 -3.7535  0.7642  0.9298
   95SAPS  H15Y 9465  -0.024   5.720   8.849 -1.7761 -1.3047  0.4439
   95SAPS  C316 9466   0.193   5.746   8.826  0.7728 -0.2674  0.9895
   95SAPS  H16X 9467   0.200   5.806   8.732 -1.4580 -3.8205 -1.7120
   95SAPS  H16Y 9468   0.280   5.680   8.808  0.2192 -0.3954 -1.7850
   95SAPS  C317 9469   0.205   5.830   8.950  0.2859  0.0319  0.3018
   95SAPS  H17X 9470   0.187   5.764   9.038 -2.0176  1.3839  0.9282
   95SAPS  H17Y 9471   0.121   5.902   8.950 -1.6854 -1.9480  3.9829
   95SAPS  C318 9472   0.343   5.896   8.960  0.3943  0.2844 -0.0689
   95SAPS  H18X 9473   0.359   5.951   8.864  0.1046 -0.8285 -0.7651
   95SAPS  H18Y 9474   0.422   5.818   8.960 -0.8663 -1.0475 -0.9580
   95SAPS  H18Z 9475   0.348   5.973   9.040 -0.9064 -0.0821  0.3824
   96SAPS     N 9476   1.189   6.426   6.268 -0.4796 -0.0975 -0.0112
   96SAPS   HN1 9477   1.141   6.364   6.200 -0.6222  0.5353 -0.5016
   96SAPS   HN2 9478   1.158   6.523   6.249 -0.4943  0.0201  0.5969
   96SAPS   HN3 9479   1.290   6.416   6.243 -0.4983 -1.9164  0.4858
   96SAPS   C12 9480   1.154   6.386   6.414  0.4846  0.3571  0.3883
   96SAPS  H12A 9481   1.186   6.461   6.486  0.4714 -0.6664  1.4915
   96SAPS   C13 9482   1.000   6.353   6.426  0.0986  0.1535  0.3987
   96SAPS  O13A 9483   0.933   6.345   6.316 -0.5529 -0.1993 -0.3584
   96SAPS  O13B 9484   0.952   6.314   6.532 -0.4270  0.2171  0.7065
   96SAPS   C11 9485   1.226   6.253   6.458 -0.2752 -0.8851  0.6785
   96SAPS  H11A 9486   1.174   6.175   6.398  0.5130 -1.4383  0.7063
   96SAPS  H11B 9487   1.206   6.228   6.564 -0.8580  0.0393  0.8013
   96SAPS     P 9488   1.482   6.220   6.522  0.5277 -0.5639  0.2396
   96SAPS   O13 9489   1.477   6.071   6.533 -0.7069  0.1695 -0.1397
   96SAPS   O14 9490   1.598   6.286   6.470 -0.6140  0.4567  0.9563
   96SAPS   O12 9491   1.362   6.264   6.433 -0.4581  0.5113  0.2467
   96SAPS   O11 9492   1.437   6.276   6.665  0.0267  0.1659  0.1339
   96SAPS    C1 9493   1.425   6.416   6.687  0.0133 -0.4433  0.8460
   96SAPS    HA 9494   1.506   6.473   6.636 -1.5951  1.2836  0.0892
   96SAPS    HB 9495   1.334   6.468   6.650  1.7023  1.7485 -0.5378
   96SAPS    C2 9496   1.447   6.445   6.839  0.0739  0.5596 -0.0447
   96SAPS    HS 9497   1.497   6.357   6.885 -2.2674 -1.1478 -0.5920
   96SAPS   O21 9498   1.319   6.464   6.887 -0.0922 -0.2410 -0.0282
   96SAPS   C21 9499   1.266   6.358   6.957  0.1556 -0.1566  0.4848
   96SAPS   O22 9500   1.332   6.263   6.997 -0.2594 -0.3595 -0.1918
   96SAPS   C22 9501   1.117   6.393   6.984 -0.4046  0.7709 -0.2298
   96SAPS   H2R 9502   1.116   6.504   6.992  0.0050  0.6945  1.2156
   96SAPS   H2S 9503   1.060   6.356   6.896 -1.3546  1.2392  0.1800
   96SAPS    C3 9504   1.527   6.573   6.873 -0.5973 -0.2242 -0.3826
   96SAPS    HX 9505   1.487   6.663   6.823  2.6423  1.2660 -0.5374
   96SAPS    HY 9506   1.630   6.562   6.833  0.4916  2.4860  1.4463
   96SAPS   O31 9507   1.526   6.604   7.015  0.1954 -0.3380 -0.1930
   96SAPS   C31 9508   1.618   6.538   7.092  0.1825  0.3560 -0.0091
   96SAPS   O32 9509   1.726   6.503   7.044 -0.3147 -0.0642 -0.3382
   96SAPS   C32 9510   1.568   6.522   7.237  0.3487 -0.1814  0.8412
   96SAPS   H2X 9511   1.476   6.461   7.229 -0.0168  0.4276  0.1830
   96SAPS   H2Y 9512   1.529   6.616   7.281 -1.7996 -1.5638  2.0455
   96SAPS   C23 9513   1.064   6.328   7.114 -0.3210 -0.4535 -0.4631
   96SAPS   H3R 9514   1.095   6.221   7.105  0.5115 -0.1177 -1.8328
   96SAPS   H3S 9515   0.957   6.312   7.140 -0.1800  2.3332  2.3885
   96SAPS   C24 9516   1.137   6.377   7.243 -0.4529  0.2663  0.3485
   96SAPS   H4R 9517   1.248   6.380   7.240 -0.4216  2.3734  1.4452
   96SAPS   H4S 9518   1.114   6.305   7.324  2.4763 -1.2802 -0.0784
   96SAPS   C25 9519   1.098   6.521   7.276  0.5446 -0.0709 -0.2581
   96SAPS   H5R 9520   1.065   6.580   7.189 -1.0746 -3.8119 -2.4314
   96SAPS   C26 9521   1.098   6.573   7.401 -0.0256  0.4557  0.2549
   96SAPS   H6R 9522   1.056   6.674   7.410  0.0623  0.4914  0.2617
   96SAPS   C27 9523   1.146   6.507   7.521  0.4223 -0.1552 -0.2653
   96SAPS   H7R 9524   1.160   6.399   7.499 -2.2567 -0.9063  1.3094
   96SAPS   H7S 9525   1.066   6.509   7.598 -0.2000 -1.0811 -0.8563
   96SAPS   C28 9526   1.274   6.559   7.571 -0.3254 -0.3292 -0.2284
   96SAPS   H8R 9527   1.349   6.577   7.493  0.0303  0.2905  0.2531
   96SAPS   C29 9528   1.309   6.576   7.696 -0.8778  0.4526 -0.4245
   96SAPS   H9R 9529   1.416   6.601   7.709 -0.6531 -0.1338 -1.1007
   96SAPS  C210 9530   1.240   6.530   7.825  0.3249 -0.2377  0.6393
   96SAPS  H10R 9531   1.298   6.452   7.879 -0.3251  0.2881  2.1289
   96SAPS  H10S 9532   1.137   6.495   7.805 -0.2941  2.1143 -0.7001
   96SAPS  C211 9533   1.232   6.639   7.925 -0.1085  0.4013 -0.0573
   96SAPS  H11R 9534   1.193   6.735   7.889  2.2322  1.4148 -0.0884
   96SAPS  C212 9535   1.261   6.639   8.061  0.0862 -0.2559  0.2141
   96SAPS  H12R 9536   1.242   6.732   8.116  1.1979 -0.1521  0.4261
   96SAPS  C213 9537   1.322   6.526   8.137  0.2954  0.5346  0.0083
   96SAPS  H13R 9538   1.267   6.432   8.110 -1.2371  1.8668 -1.8267
   96SAPS  H13S 9539   1.296   6.538   8.244 -1.6892  1.2989 -0.5075
   96SAPS  C214 9540   1.466   6.501   8.118  0.6389 -0.4590  0.3589
   96SAPS  H14R 9541   1.491   6.485   8.012 -1.2421  1.9353 -0.5423
   96SAPS  C215 9542   1.561   6.493   8.217  1.1911 -0.5518 -0.0551
   96SAPS  H15R 9543   1.668   6.492   8.189  0.8452 -1.1735 -1.4153
   96SAPS  C216 9544   1.531   6.497   8.363  0.0333  0.4995 -0.3608
   96SAPS  H16R 9545   1.511   6.392   8.396  0.5640  0.2713 -0.7558
   96SAPS  H16S 9546   1.458   6.576   8.391  1.7355  2.1844 -0.4890
   96SAPS  C217 9547   1.656   6.544   8.440  0.2191 -0.0266 -0.0164
   96SAPS  H17R 9548   1.621   6.595   8.532  0.1766  1.0879 -0.6261
   96SAPS  H17S 9549   1.716   6.622   8.389  1.1691 -0.6275  0.1681
   96SAPS  C218 9550   1.758   6.442   8.469  0.2100 -0.2750 -0.4829
   96SAPS  H18R 9551   1.779   6.375   8.383 -1.0090 -1.3198 -0.0128
   96SAPS  H18S 9552   1.735   6.374   8.554  1.1091  0.3319  0.2688
   96SAPS  C219 9553   1.897   6.507   8.501 -0.3810 -0.0459  0.4914
   96SAPS  H19R 9554   1.896   6.574   8.590  1.4112  1.0180 -0.2404
   96SAPS  H19S 9555   1.926   6.581   8.424 -1.4697 -2.3348 -2.2957
   96SAPS  C220 9556   2.003   6.403   8.512 -0.1842 -0.2810 -0.2280
   96SAPS  H20R 9557   2.105   6.446   8.518  0.1423 -0.7286 -2.0019
   96SAPS  H20S 9558   2.025   6.344   8.421  2.0683  3.7590 -2.5703
   96SAPS  H20T 9559   1.989   6.340   8.603  0.4514 -2.7760 -1.7595
   96SAPS   C33 9560   1.668   6.466   7.341 -0.9069  0.0793  0.2281
   96SAPS   H3X 9561   1.765   6.521   7.335  0.0095 -1.3699  1.0459
   96SAPS   H3Y 9562   1.699   6.362   7.320 -0.4859 -0.1185  1.7128
   96SAPS   C34 9563   1.625   6.473   7.488 -0.7196  0.0479  0.1948
   96SAPS   H4X 9564   1.546   6.395   7.495 -0.4639 -0.0640  2.2861
   96SAPS   H4Y 9565   1.590   6.577   7.504 -1.7914 -0.7367  4.0594
   96SAPS   C35 9566   1.733   6.430   7.590  0.8258  0.6988  0.1373
   96SAPS   H5X 9567   1.820   6.499   7.578  2.0725 -0.9868 -0.9700
   96SAPS   H5Y 9568   1.764   6.326   7.566 -1.0288  0.1391  0.0015
   96SAPS   C36 9569   1.693   6.435   7.744 -0.5129 -0.6082  0.1057
   96SAPS   H6X 9570   1.598   6.380   7.764 -0.7740 -0.3123 -0.3153
   96SAPS   H6Y 9571   1.674   6.540   7.772  1.1035  0.1404 -1.4306
   96SAPS   C37 9572   1.805   6.388   7.840 -0.2647 -0.0749 -0.6846
   96SAPS   H7X 9573   1.776   6.397   7.946 -0.2041  0.5722 -0.7180
   96SAPS   H7Y 9574   1.903   6.439   7.827 -1.1046  1.4115 -1.5445
   96SAPS   C38 9575   1.838   6.238   7.816  0.4921 -0.0324 -0.6200
   96SAPS   H8X 9576   1.896   6.211   7.726 -1.6777 -0.5370 -1.9520
   96SAPS   H8Y 9577   1.744   6.180   7.805 -0.9069  2.0944 -0.4931
   96SAPS   C39 9578   1.894   6.174   7.942  0.1793  0.1331  0.5198
   96SAPS   H9X 9579   1.817   6.179   8.022  0.5626 -1.1782  0.9918
   96SAPS   H9Y 9580   1.985   6.230   7.970  2.1468 -2.7837  0.3791
   96SAPS  C310 9581   1.933   6.029   7.902  0.2472  0.7692  0.1851
   96SAPS  H10X 9582   2.006   6.046   7.819  2.7450  0.5115  2.1903
   96SAPS  H10Y 9583   1.855   5.963   7.860 -0.4425  2.5538 -1.4864
   96SAPS  C311 9584   1.998   5.952   8.021  0.0113 -0.4483 -0.5154
   96SAPS  H11X 9585   2.012   5.850   7.979 -0.9306 -0.8903  0.1902
   96SAPS  H11Y 9586   1.931   5.944   8.110  2.6033 -2.1692  1.4338
   96SAPS  C312 9587   2.131   6.015   8.068  0.0686  0.1199 -0.2387
   96SAPS  H12X 9588   2.115   6.105   8.131  1.0111 -0.2966  0.6421
   96SAPS  H12Y 9589   2.196   6.036   7.981  0.6349 -0.1317  0.1134
   96SAPS  C313 9590   2.208   5.929   8.175  0.0711  0.4308  0.6088
   96SAPS  H13X 9591   2.200   5.823   8.145 -0.7980  0.2689  1.3617
   96SAPS  H13Y 9592   2.151   5.936   8.271  2.5365  1.4248  2.1038
   96SAPS  C314 9593   2.353   5.968   8.187  0.0381  0.2703 -0.5663
   96SAPS  H14X 9594   2.402   6.002   8.094  2.5475  0.6866  0.8273
   96SAPS  H14Y 9595   2.411   5.886   8.234 -0.6159  0.1705  0.0823
   96SAPS  C315 9596   2.361   6.086   8.290  0.3475  0.2995 -0.0331
   96SAPS  H15X 9597   2.317   6.176   8.242 -2.0564 -0.2195  1.0389
   96SAPS  H15Y 9598   2.471   6.091   8.304  0.4355 -0.4236 -0.4203
   96SAPS  C316 9599   2.297   6.057   8.426 -0.3932  0.1913 -0.2201
   96SAPS  H16X 9600   2.302   5.948   8.442 -0.3042 -0.1798 -2.4094
   96SAPS  H16Y 9601   2.190   6.087   8.428  0.3428  3.1386 -0.2848
   96SAPS  C317 9602   2.368   6.124   8.542 -0.3408  0.0687  0.3528
   96SAPS  H17X 9603   2.478   6.125   8.525 -0.0567  2.3109  1.9189
   96SAPS  H17Y 9604   2.358   6.084   8.645 -0.2563 -1.4453 -0.2065
   96SAPS  C318 9605   2.335   6.274   8.527 -0.8904 -0.7638 -0.2332
   96SAPS  H18X 9606   2.311   6.298   8.422 -1.4695 -3.1571 -0.6860
   96SAPS  H18Y 9607   2.426   6.333   8.553 -1.2133 -0.3089 -0.1248
   96SAPS  H18Z 9608   2.257   6.314   8.596  0.0816  1.6646 -0.4405
   97SAPS     N 9609   1.030   4.653   6.595 -0.0801  0.5554  0.1102
   97SAPS   HN1 9610   1.021   4.729   6.666  1.4756  0.7971  0.0844
   97SAPS   HN2 9611   0.938   4.647   6.547  0.1756  0.0511 -0.3197
   97SAPS   HN3 9612   1.046   4.566   6.650 -1.1510 -0.2415 -0.7947
   97SAPS   C12 9613   1.149   4.665   6.512 -0.0221 -0.6909 -0.3888
   97SAPS  H12A 9614   1.130   4.610   6.421  0.6892  0.7914 -1.4746
   97SAPS   C13 9615   1.177   4.817   6.472  1.1322  0.3109 -0.1917
   97SAPS  O13A 9616   1.105   4.910   6.519  0.0250  0.3350  0.0397
   97SAPS  O13B 9617   1.269   4.838   6.393  0.3985  0.3821 -0.5210
   97SAPS   C11 9618   1.264   4.606   6.608 -0.1238 -0.4815 -0.0472
   97SAPS  H11A 9619   1.280   4.678   6.691 -2.0413 -1.6046  1.3712
   97SAPS  H11B 9620   1.361   4.600   6.553 -1.1571  1.0886 -2.1449
   97SAPS     P 9621   1.245   4.342   6.561 -0.1462 -0.0099  0.0087
   97SAPS   O13 9622   1.115   4.281   6.557  0.3265 -0.2115  0.1770
   97SAPS   O14 9623   1.311   4.370   6.432  0.1711 -0.0116 -0.1732
   97SAPS   O12 9624   1.232   4.475   6.647  0.1069 -0.7037  0.0006
   97SAPS   O11 9625   1.343   4.273   6.647 -1.0773 -0.2951  0.1154
   97SAPS    C1 9626   1.314   4.195   6.763 -0.8592 -0.2321  0.0299
   97SAPS    HA 9627   1.236   4.246   6.825 -1.5503 -0.7063 -0.4336
   97SAPS    HB 9628   1.278   4.092   6.743  0.3290 -0.0290 -4.0997
   97SAPS    C2 9629   1.444   4.185   6.858 -0.5877 -0.1549 -0.7453
   97SAPS    HS 9630   1.443   4.088   6.912  0.3215 -0.1269 -0.6618
   97SAPS   O21 9631   1.459   4.302   6.940  0.4184 -0.1509 -0.3189
   97SAPS   C21 9632   1.504   4.273   7.057 -0.0037 -0.6056  0.6752
   97SAPS   O22 9633   1.488   4.171   7.120  0.4685  0.1620  0.3749
   97SAPS   C22 9634   1.572   4.397   7.115 -0.1106 -0.8394 -0.1998
   97SAPS   H2R 9635   1.662   4.434   7.062 -0.1314  2.5664  1.8556
   97SAPS   H2S 9636   1.503   4.482   7.098  0.7818 -0.4635 -2.2959
   97SAPS    C3 9637   1.573   4.193   6.766  0.4411  0.1322 -0.9994
   97SAPS    HX 9638   1.583   4.291   6.714  2.0043  0.6488  0.1820
   97SAPS    HY 9639   1.538   4.119   6.691 -3.1187 -0.7926  1.3102
   97SAPS   O31 9640   1.693   4.148   6.835  0.0689  0.2828 -0.4551
   97SAPS   C31 9641   1.785   4.244   6.868  0.7916 -0.5446  0.6136
   97SAPS   O32 9642   1.766   4.364   6.850  0.1566 -0.2807 -0.5677
   97SAPS   C32 9643   1.920   4.177   6.910  0.3051  0.0591  0.0801
   97SAPS   H2X 9644   2.009   4.242   6.892  0.6582 -0.2639  0.6292
   97SAPS   H2Y 9645   1.931   4.095   6.836  1.4888  0.4944 -0.2535
   97SAPS   C23 9646   1.618   4.365   7.255  0.2999 -0.2707  0.0759
   97SAPS   H3R 9647   1.690   4.281   7.247 -0.5961 -1.0791  0.3715
   97SAPS   H3S 9648   1.529   4.330   7.312 -1.1801  0.9689 -1.3942
   97SAPS   C24 9649   1.689   4.480   7.338 -0.0247  1.2461  0.8538
   97SAPS   H4R 9650   1.774   4.519   7.279  0.4794 -0.7146  0.2064
   97SAPS   H4S 9651   1.740   4.434   7.425  2.1508  3.2355  0.7154
   97SAPS   C25 9652   1.585   4.584   7.374 -0.8103 -0.3539 -0.5829
   97SAPS   H5R 9653   1.523   4.626   7.294  2.3732  2.1264 -1.9825
   97SAPS   C26 9654   1.580   4.627   7.498 -0.2955  0.3379  0.4415
   97SAPS   H6R 9655   1.507   4.708   7.512  1.1232  2.2492 -2.3369
   97SAPS   C27 9656   1.655   4.581   7.621 -0.1242  0.9432  0.3969
   97SAPS   H7R 9657   1.657   4.669   7.688  0.1586  0.2868  1.2722
   97SAPS   H7S 9658   1.764   4.567   7.602 -0.2898  1.0219 -0.7100
   97SAPS   C28 9659   1.591   4.467   7.706  0.1493  0.4987 -0.5609
   97SAPS   H8R 9660   1.500   4.420   7.665  1.5656 -1.4430 -1.6323
   97SAPS   C29 9661   1.625   4.437   7.838  0.0841 -0.2710  0.1066
   97SAPS   H9R 9662   1.566   4.359   7.890 -1.2759  0.5793 -0.0979
   97SAPS  C210 9663   1.724   4.518   7.922  0.1826 -0.0220  0.8546
   97SAPS  H10R 9664   1.796   4.565   7.851 -2.1903  0.6518 -1.2318
   97SAPS  H10S 9665   1.793   4.449   7.975 -2.1503 -1.8904  1.6335
   97SAPS  C211 9666   1.662   4.615   8.018 -0.7351  0.0716  0.6433
   97SAPS  H11R 9667   1.621   4.713   7.987 -2.8001 -0.4100  1.6974
   97SAPS  C212 9668   1.683   4.605   8.154  0.2292 -0.3936  0.2478
   97SAPS  H12R 9669   1.614   4.672   8.208 -0.7512 -2.2332  1.3944
   97SAPS  C213 9670   1.757   4.493   8.220 -0.7195 -0.1102  0.4366
   97SAPS  H13R 9671   1.863   4.495   8.185 -0.7264  0.8848  0.4619
   97SAPS  H13S 9672   1.702   4.399   8.196  0.5824 -0.4257 -1.5875
   97SAPS  C214 9673   1.756   4.506   8.371  0.1208  0.8595  0.1471
   97SAPS  H14R 9674   1.839   4.562   8.416 -1.2285  1.5959  1.8474
   97SAPS  C215 9675   1.676   4.443   8.458  0.4664  0.5273 -0.1962
   97SAPS  H15R 9676   1.677   4.466   8.565 -2.3426  1.8831 -0.3620
   97SAPS  C216 9677   1.567   4.342   8.432 -0.1647  0.6626  0.1587
   97SAPS  H16R 9678   1.586   4.300   8.331 -2.3501  0.3492 -0.1787
   97SAPS  H16S 9679   1.466   4.389   8.436  0.3153  1.7501  4.2159
   97SAPS  C217 9680   1.556   4.216   8.513 -0.3127 -0.4846  0.4188
   97SAPS  H17R 9681   1.661   4.180   8.523  0.2166  0.1067 -2.1590
   97SAPS  H17S 9682   1.503   4.141   8.450 -0.3987  0.5127 -0.7464
   97SAPS  C218 9683   1.496   4.237   8.651  0.5433  0.0337 -0.6387
   97SAPS  H18R 9684   1.400   4.292   8.639  1.0770  1.0257 -0.4507
   97SAPS  H18S 9685   1.555   4.310   8.710 -0.5853 -0.3206  0.9949
   97SAPS  C219 9686   1.466   4.116   8.738 -0.0615  0.6374  0.9554
   97SAPS  H19R 9687   1.437   4.149   8.840  1.5210 -2.1002  2.4086
   97SAPS  H19S 9688   1.569   4.077   8.752  0.3731  1.1996 -0.4617
   97SAPS  C220 9689   1.365   4.025   8.668  0.5039 -0.2082  0.1846
   97SAPS  H20R 9690   1.289   4.089   8.618  0.8973  1.5039  1.6715
   97SAPS  H20S 9691   1.311   3.958   8.739 -0.7234  1.3272  0.7771
   97SAPS  H20T 9692   1.405   3.956   8.591 -1.6128 -1.7644  0.3745
   97SAPS   C33 9693   1.929   4.133   7.056  0.1076 -0.3944 -0.4045
   97SAPS   H3X 9694   1.846   4.063   7.081  0.2596 -1.2044 -2.0249
   97SAPS   H3Y 9695   1.924   4.229   7.111  1.3006  0.6306 -2.0007
   97SAPS   C34 9696   2.061   4.065   7.091  0.9644  0.3069 -0.2224
   97SAPS   H4X 9697   2.139   4.140   7.066  1.6435  0.0990  1.1933
   97SAPS   H4Y 9698   2.096   3.987   7.020  2.2770  2.0974 -1.6306
   97SAPS   C35 9699   2.068   4.036   7.245 -0.0606  0.3777  0.2623
   97SAPS   H5X 9700   2.165   3.988   7.266  0.6369  2.0923  1.2411
   97SAPS   H5Y 9701   1.983   3.968   7.265  2.2927 -2.4628  1.2015
   97SAPS   C36 9702   2.044   4.162   7.336  0.6199  0.6741 -0.3940
   97SAPS   H6X 9703   1.939   4.197   7.329 -0.6359 -1.5557  3.8746
   97SAPS   H6Y 9704   2.102   4.252   7.308  0.9847  0.7283  0.5139
   97SAPS   C37 9705   2.068   4.131   7.485  0.1632 -0.4814 -0.1018
   97SAPS   H7X 9706   2.172   4.096   7.505  0.9886  2.5708  1.5912
   97SAPS   H7Y 9707   2.010   4.041   7.515 -0.9769  1.0895  2.6859
   97SAPS   C38 9708   2.038   4.242   7.573 -0.0979 -0.2176 -0.1236
   97SAPS   H8X 9709   1.934   4.280   7.565 -1.0132 -2.5271  0.0286
   97SAPS   H8Y 9710   2.116   4.319   7.555 -0.0391 -0.7138 -2.2493
   97SAPS   C39 9711   2.062   4.209   7.716  0.0536  0.0276 -0.8025
   97SAPS   H9X 9712   2.166   4.173   7.735 -0.8888 -1.8084  1.1590
   97SAPS   H9Y 9713   1.998   4.129   7.758 -2.3487  2.0996 -0.2587
   97SAPS  C310 9714   2.040   4.330   7.812 -0.3869  0.1641  0.6292
   97SAPS  H10X 9715   1.932   4.354   7.816 -0.3419  0.2094  1.7607
   97SAPS  H10Y 9716   2.100   4.411   7.766  5.1724 -1.7492  3.5563
   97SAPS  C311 9717   2.090   4.322   7.959  0.5819  0.1057 -0.6996
   97SAPS  H11X 9718   2.076   4.423   8.002  2.5183  0.8012 -1.5823
   97SAPS  H11Y 9719   2.200   4.309   7.957  0.8470  1.4620  1.6036
   97SAPS  C312 9720   2.021   4.203   8.037  0.2950  0.8232 -0.1887
   97SAPS  H12X 9721   2.043   4.109   7.983  0.0524 -1.7090  3.6864
   97SAPS  H12Y 9722   1.911   4.218   8.045 -0.2023  1.9791 -5.4511
   97SAPS  C313 9723   2.096   4.188   8.176 -0.1630  0.3287  0.1674
   97SAPS  H13X 9724   2.206   4.199   8.167 -0.1884  0.2620 -0.2387
   97SAPS  H13Y 9725   2.081   4.088   8.223  0.1148  0.2847  0.1671
   97SAPS  C314 9726   2.045   4.300   8.271 -0.0591 -0.4187 -0.5251
   97SAPS  H14X 9727   1.936   4.278   8.283  0.2892 -0.7031  3.9490
   97SAPS  H14Y 9728   2.056   4.403   8.233 -2.1292 -0.8153 -2.4111
   97SAPS  C315 9729   2.118   4.295   8.408 -0.1484  0.2339  0.0729
   97SAPS  H15X 9730   2.223   4.329   8.418 -1.0974  2.8221  2.2381
   97SAPS  H15Y 9731   2.107   4.186   8.429 -2.1413  0.4947  0.5689
   97SAPS  C316 9732   2.044   4.362   8.523 -0.6386 -0.4738  0.3300
   97SAPS  H16X 9733   1.935   4.356   8.500 -0.2972 -0.7630 -1.2703
   97SAPS  H16Y 9734   2.075   4.469   8.526 -0.4000 -0.5178 -0.5362
   97SAPS  C317 9735   2.073   4.302   8.660 -0.2092 -0.3766  0.2629
   97SAPS  H17X 9736   2.183   4.295   8.672 -0.0743 -0.0799 -0.7413
   97SAPS  H17Y 9737   2.019   4.205   8.663 -2.9118  1.0307  0.3808
   97SAPS  C318 9738   2.014   4.387   8.772 -0.2205 -0.0626  0.2429
   97SAPS  H18X 9739   2.017   4.497   8.758  0.3235 -0.1089 -0.0532
   97SAPS  H18Y 9740   2.062   4.350   8.865  1.4164  1.5941  0.1184
   97SAPS  H18Z 9741   1.904   4.372   8.773 -0.4693  1.2018 -2.0820
   98SAPS     N 9742   6.154   4.878   6.076  0.6165  0.6059 -0.7939
   98SAPS   HN1 9743   6.237   4.866   6.138  0.6705 -1.5399 -1.2171
   98SAPS   HN2 9744   6.181   4.860   5.978 -0.0122 -1.1363 -0.6816
   98SAPS   HN3 9745   6.120   4.977   6.081 -0.1348  0.3048  1.1018
   98SAPS   C12 9746   6.034   4.785   6.118 -1.0283 -0.4871  0.0988
   98SAPS  H12A 9747   5.996   4.829   6.209 -0.2166  2.4729 -0.8748
   98SAPS   C13 9748   5.916   4.776   6.022  0.4744  0.4096  0.0868
   98SAPS  O13A 9749   5.912   4.845   5.913  0.1874  0.4196 -0.1627
   98SAPS  O13B 9750   5.812   4.703   6.061 -0.1540 -0.5888  0.5498
   98SAPS   C11 9751   6.094   4.647   6.131  0.4605  0.3367 -0.3891
   98SAPS  H11A 9752   6.091   4.593   6.034 -0.7826 -0.0413 -0.1628
   98SAPS  H11B 9753   6.025   4.589   6.196 -0.1447  1.8313  0.3455
   98SAPS     P 9754   6.298   4.537   6.268  0.5198  0.0909  0.4174
   98SAPS   O13 9755   6.254   4.413   6.207  0.0306 -0.2107 -0.1376
   98SAPS   O14 9756   6.444   4.557   6.281  0.2517  0.0551 -0.2061
   98SAPS   O12 9757   6.234   4.646   6.186 -0.1199 -0.0412 -0.2645
   98SAPS   O11 9758   6.223   4.567   6.405 -0.2114 -0.1099 -0.7045
   98SAPS    C1 9759   6.276   4.639   6.512 -0.2799 -0.1311 -0.9235
   98SAPS    HA 9760   6.361   4.705   6.486 -0.2807 -0.2157 -1.1442
   98SAPS    HB 9761   6.205   4.696   6.576  0.6192  0.1762 -0.1872
   98SAPS    C2 9762   6.346   4.538   6.614  0.3629 -0.1002  0.0717
   98SAPS    HS 9763   6.419   4.478   6.557  2.0711  0.6944  1.3246
   98SAPS   O21 9764   6.243   4.459   6.677 -0.1763  0.3270 -0.7849
   98SAPS   C21 9765   6.229   4.338   6.645  0.1284 -0.6921 -0.6186
   98SAPS   O22 9766   6.306   4.270   6.579 -0.5984  0.3905  0.3252
   98SAPS   C22 9767   6.097   4.276   6.699  0.2485  0.5009 -0.1070
   98SAPS   H2R 9768   6.019   4.354   6.713 -0.9964 -0.3381 -1.9409
   98SAPS   H2S 9769   6.057   4.216   6.614 -0.6600  0.3910  0.3927
   98SAPS    C3 9770   6.427   4.613   6.723  0.0489  0.2284 -0.0008
   98SAPS    HX 9771   6.350   4.673   6.776  0.8965  1.2366  0.1352
   98SAPS    HY 9772   6.494   4.691   6.681  2.3675 -1.6160  0.0719
   98SAPS   O31 9773   6.495   4.526   6.810 -0.1910  0.2046  0.1720
   98SAPS   C31 9774   6.618   4.486   6.774  0.0805  0.1552 -0.2506
   98SAPS   O32 9775   6.679   4.529   6.679 -0.2367 -0.0485  0.6752
   98SAPS   C32 9776   6.671   4.380   6.875  1.1572 -0.0920 -0.1449
   98SAPS   H2X 9777   6.753   4.328   6.820  0.1594  0.1851 -1.9890
   98SAPS   H2Y 9778   6.598   4.299   6.895  2.2083 -0.9618  0.2327
   98SAPS   C23 9779   6.113   4.177   6.815 -0.2522 -0.1114 -0.2034
   98SAPS   H3R 9780   6.214   4.132   6.800 -0.0540  0.5880 -0.9955
   98SAPS   H3S 9781   6.036   4.099   6.797 -0.1231 -0.4305  0.5945
   98SAPS   C24 9782   6.096   4.243   6.955  0.5280 -0.0708  0.1554
   98SAPS   H4R 9783   6.166   4.329   6.959 -2.3573  2.4433  3.4141
   98SAPS   H4S 9784   6.129   4.168   7.031  1.3990  1.2133  1.0821
   98SAPS   C25 9785   5.956   4.297   6.985 -0.1905 -0.0345 -0.4721
   98SAPS   H5R 9786   5.929   4.381   6.918 -0.4600  0.7734  0.6199
   98SAPS   C26 9787   5.862   4.252   7.068  0.3012  0.0216  0.5275
   98SAPS   H6R 9788   5.767   4.307   7.072 -1.1728 -2.3376 -0.1848
   98SAPS   C27 9789   5.870   4.125   7.149 -0.2878 -1.0289  0.5987
   98SAPS   H7R 9790   5.970   4.077   7.145  0.4266  0.3320  1.3764
   98SAPS   H7S 9791   5.798   4.045   7.123  0.0022 -1.4576  1.1042
   98SAPS   C28 9792   5.844   4.170   7.297 -0.5193 -0.2465  0.0881
   98SAPS   H8R 9793   5.739   4.193   7.315 -0.5006  0.5858 -0.8039
   98SAPS   C29 9794   5.934   4.157   7.397  0.6095  0.4298  0.8484
   98SAPS   H9R 9795   5.893   4.194   7.491 -0.8247 -2.9184  1.6878
   98SAPS  C210 9796   6.081   4.116   7.390  0.0262 -1.1166 -0.0086
   98SAPS  H10R 9797   6.122   4.161   7.484  0.0789  2.3356 -1.5393
   98SAPS  H10S 9798   6.139   4.161   7.307  0.3544 -0.4660  0.5541
   98SAPS  C211 9799   6.110   3.963   7.388  0.4095 -0.3535 -0.2036
   98SAPS  H11R 9800   6.128   3.916   7.290  1.3148  0.5576 -0.4955
   98SAPS  C212 9801   6.106   3.888   7.503 -0.1183  0.0544  1.5791
   98SAPS  H12R 9802   6.111   3.779   7.487  1.1633  0.4268 -1.0423
   98SAPS  C213 9803   6.092   3.938   7.644 -0.3542 -0.1736 -0.2632
   98SAPS  H13R 9804   6.142   4.036   7.655 -0.3836 -0.2156  0.2780
   98SAPS  H13S 9805   6.147   3.880   7.721 -0.1852 -0.4319 -0.5720
   98SAPS  C214 9806   5.946   3.961   7.674  0.0840 -0.2099 -0.0266
   98SAPS  H14R 9807   5.891   3.978   7.581  2.3575  0.8007 -1.2517
   98SAPS  C215 9808   5.885   3.942   7.790  0.7510 -0.8228 -0.5581
   98SAPS  H15R 9809   5.780   3.972   7.802  1.6882  2.1721  1.3188
   98SAPS  C216 9810   5.942   3.916   7.924 -0.4234  1.0750 -0.0547
   98SAPS  H16R 9811   6.035   3.856   7.921 -2.0933 -1.7048  0.2991
   98SAPS  H16S 9812   5.870   3.852   7.979  0.8601 -0.2731  0.1171
   98SAPS  C217 9813   5.970   4.043   8.003 -0.2960  0.5198 -0.3338
   98SAPS  H17R 9814   5.875   4.101   8.004 -1.0747 -0.7207  0.4316
   98SAPS  H17S 9815   6.053   4.107   7.965 -1.3532  0.9927 -1.9343
   98SAPS  C218 9816   6.003   4.011   8.154  0.3572 -0.2034  0.1741
   98SAPS  H18R 9817   5.989   4.114   8.195 -0.1650  0.8878 -2.4626
   98SAPS  H18S 9818   6.109   3.978   8.159  0.1750 -1.1457 -1.5595
   98SAPS  C219 9819   5.908   3.920   8.219  0.5633  0.9857  0.2803
   98SAPS  H19R 9820   5.926   3.816   8.182  0.8524  0.8830  0.6971
   98SAPS  H19S 9821   5.807   3.949   8.185  0.2099  0.9681  1.2752
   98SAPS  C220 9822   5.914   3.912   8.380  0.7603  0.2747  1.1649
   98SAPS  H20R 9823   5.924   4.015   8.422 -0.1524  0.5783  0.6718
   98SAPS  H20S 9824   6.003   3.850   8.403  0.1915 -0.4027  1.5849
   98SAPS  H20T 9825   5.819   3.867   8.416  1.3992 -2.4698 -0.3524
   98SAPS   C33 9826   6.713   4.441   7.014  0.4992 -0.0344  0.0332
   98SAPS   H3X 9827   6.704   4.354   7.083 -0.3469  0.2396  0.2729
   98SAPS   H3Y 9828   6.633   4.515   7.031 -1.0515 -1.1932 -1.7917
   98SAPS   C34 9829   6.848   4.501   7.004  0.0817  0.0980 -0.6979
   98SAPS   H4X 9830   6.864   4.581   6.929  2.1734 -1.1579 -1.6909
   98SAPS   H4Y 9831   6.917   4.420   6.970 -1.6433 -1.6450 -0.2590
   98SAPS   C35 9832   6.892   4.538   7.149 -0.4786  0.3122 -0.9303
   98SAPS   H5X 9833   7.001   4.560   7.148 -0.5891  1.4739  1.7819
   98SAPS   H5Y 9834   6.871   4.448   7.210 -0.5041  0.2974 -0.9608
   98SAPS   C36 9835   6.821   4.667   7.196  0.1646 -0.1494  0.1629
   98SAPS   H6X 9836   6.716   4.662   7.160  0.0324 -2.1147  0.6904
   98SAPS   H6Y 9837   6.869   4.751   7.141 -0.8071 -0.3918 -1.1140
   98SAPS   C37 9838   6.838   4.702   7.341  0.0604  0.8496  0.0187
   98SAPS   H7X 9839   6.796   4.805   7.343  1.8287  1.6439 -0.6193
   98SAPS   H7Y 9840   6.945   4.718   7.367 -0.6240 -0.6217  4.4462
   98SAPS   C38 9841   6.769   4.621   7.443 -0.6432  0.4038  0.6357
   98SAPS   H8X 9842   6.806   4.517   7.440  1.9505  1.2799 -1.0631
   98SAPS   H8Y 9843   6.664   4.623   7.406  0.3181  1.3903 -2.3042
   98SAPS   C39 9844   6.794   4.670   7.587 -0.1269  0.2982 -0.1767
   98SAPS   H9X 9845   6.723   4.615   7.652  1.6645  0.1508  1.7604
   98SAPS   H9Y 9846   6.779   4.779   7.602  1.1058  0.4537  0.0765
   98SAPS  C310 9847   6.936   4.637   7.633 -0.3775 -0.4492 -0.6030
   98SAPS  H10X 9848   7.004   4.696   7.568  0.2748 -0.4368  0.0811
   98SAPS  H10Y 9849   6.962   4.530   7.626 -2.8845 -1.3090  1.4940
   98SAPS  C311 9850   6.963   4.702   7.768  0.5155  0.1588 -0.3607
   98SAPS  H11X 9851   6.943   4.811   7.765 -2.4613 -0.2715  0.2248
   98SAPS  H11Y 9852   7.069   4.683   7.795  0.1357 -0.1154  1.0133
   98SAPS  C312 9853   6.888   4.639   7.889  0.2583 -0.2533  0.4047
   98SAPS  H12X 9854   6.906   4.530   7.877 -2.1474 -0.7120  0.4547
   98SAPS  H12Y 9855   6.782   4.658   7.863  0.4765  1.7092  0.8247
   98SAPS  C313 9856   6.927   4.690   8.028  0.3219 -0.1495 -0.1343
   98SAPS  H13X 9857   6.870   4.784   8.048  0.7095 -0.3360  2.1303
   98SAPS  H13Y 9858   7.036   4.712   8.024  0.4343 -0.7415 -0.3392
   98SAPS  C314 9859   6.893   4.589   8.140 -0.2906  0.0968 -0.6898
   98SAPS  H14X 9860   6.949   4.494   8.124  0.2100  0.2603  0.0085
   98SAPS  H14Y 9861   6.786   4.561   8.133 -0.9826  2.2405  0.5092
   98SAPS  C315 9862   6.917   4.649   8.280 -0.1664  0.4926  0.0536
   98SAPS  H15X 9863   6.859   4.743   8.295 -0.0606  0.7190 -0.9323
   98SAPS  H15Y 9864   7.024   4.675   8.292 -0.0281  0.9775 -1.9910
   98SAPS  C316 9865   6.890   4.560   8.403  0.5136  0.2236  0.6804
   98SAPS  H16X 9866   6.894   4.624   8.494 -1.9314  1.2633  0.1434
   98SAPS  H16Y 9867   6.968   4.481   8.411 -1.2217 -1.7780 -1.0726
   98SAPS  C317 9868   6.748   4.493   8.403  0.4425 -0.4508  1.0634
   98SAPS  H17X 9869   6.750   4.426   8.315  0.7171 -0.1928  0.8708
   98SAPS  H17Y 9870   6.671   4.570   8.380 -0.1590 -1.9906 -2.8732
   98SAPS  C318 9871   6.717   4.403   8.526 -0.0001 -0.4435  0.3667
   98SAPS  H18X 9872   6.719   4.465   8.618 -4.3209  1.2885 -0.4757
   98SAPS  H18Y 9873   6.800   4.329   8.525 -1.9041 -2.6868 -0.5946
   98SAPS  H18Z 9874   6.619   4.356   8.504  0.1548 -0.6022  0.0131
   99SAPS     N 9875   5.469   3.196   6.444 -0.1995 -0.3338  1.0618
   99SAPS   HN1 9876   5.514   3.276   6.394 -0.5178 -0.8359 -0.0612
   99SAPS   HN2 9877   5.379   3.238   6.477  0.6874  1.1455  1.7203
   99SAPS   HN3 9878   5.529   3.166   6.523  2.8689  2.2343 -0.0731
   99SAPS   C12 9879   5.458   3.079   6.350 -0.1790  0.5223  0.2904
   99SAPS  H12A 9880   5.402   3.006   6.406 -1.2715  1.4300  0.4286
   99SAPS   C13 9881   5.379   3.105   6.220  0.3214 -0.3919  0.3528
   99SAPS  O13A 9882   5.338   3.218   6.183 -0.0635 -0.3190 -0.2201
   99SAPS  O13B 9883   5.376   3.016   6.130 -0.2236  0.1450  0.0735
   99SAPS   C11 9884   5.603   3.025   6.313  1.1251 -0.6061  0.3730
   99SAPS  H11A 9885   5.658   3.110   6.266  0.8930  0.5096  2.0411
   99SAPS  H11B 9886   5.586   2.936   6.250  0.2395  0.2016 -0.5623
   99SAPS     P 9887   5.831   2.972   6.419 -0.0554 -0.5669  0.1337
   99SAPS   O13 9888   5.862   2.868   6.322 -0.2508  0.2987  0.0117
   99SAPS   O14 9889   5.890   3.104   6.381  0.2726  0.0479  0.0227
   99SAPS   O12 9890   5.678   2.989   6.427  0.1643 -0.2729  0.0399
   99SAPS   O11 9891   5.888   2.919   6.559  0.0071 -0.4545  0.6693
   99SAPS    C1 9892   5.817   2.948   6.677 -0.6805  0.4531 -0.1550
   99SAPS    HA 9893   5.893   2.960   6.758 -1.0358  0.2014  0.2217
   99SAPS    HB 9894   5.762   3.044   6.685 -2.1399 -0.3996  0.4082
   99SAPS    C2 9895   5.720   2.837   6.728 -0.1003 -0.2326  0.3520
   99SAPS    HS 9896   5.612   2.848   6.706  0.0848  1.7194  0.2898
   99SAPS   O21 9897   5.739   2.821   6.877  0.0168  0.3433  0.0060
   99SAPS   C21 9898   5.668   2.913   6.938  0.1488 -0.3454  0.5595
   99SAPS   O22 9899   5.593   2.996   6.888 -0.1031  0.9840  0.5183
   99SAPS   C22 9900   5.693   2.891   7.082 -0.0463 -0.7174 -0.3778
   99SAPS   H2R 9901   5.791   2.846   7.107 -0.2464 -0.4622  0.9746
   99SAPS   H2S 9902   5.707   2.990   7.130  3.9902 -1.0153 -0.6331
   99SAPS    C3 9903   5.765   2.700   6.666 -0.3080 -0.6864 -0.4898
   99SAPS    HX 9904   5.865   2.674   6.706  0.3777  2.4496  0.1381
   99SAPS    HY 9905   5.765   2.718   6.556 -0.3382 -0.4898 -0.4589
   99SAPS   O31 9906   5.668   2.589   6.688 -0.6027 -0.2058  0.2275
   99SAPS   C31 9907   5.695   2.508   6.787 -0.3306  0.0749 -0.3637
   99SAPS   O32 9908   5.788   2.502   6.865 -0.0695 -1.2467 -0.3892
   99SAPS   C32 9909   5.558   2.440   6.824  0.2532 -0.9591  0.4708
   99SAPS   H2X 9910   5.547   2.367   6.741 -0.0988  0.7726 -1.0709
   99SAPS   H2Y 9911   5.493   2.531   6.820  0.8561 -0.5670 -0.8165
   99SAPS   C23 9912   5.586   2.802   7.154 -0.3765 -0.3175  0.0090
   99SAPS   H3R 9913   5.594   2.701   7.109 -2.7137 -1.6154  2.1959
   99SAPS   H3S 9914   5.483   2.837   7.134 -0.3117  1.3922  2.2231
   99SAPS   C24 9915   5.609   2.804   7.308 -0.5239  0.0733  1.0092
   99SAPS   H4R 9916   5.714   2.768   7.319 -0.8909 -1.8400 -1.0351
   99SAPS   H4S 9917   5.542   2.722   7.343 -1.1924 -0.1783 -0.7864
   99SAPS   C25 9918   5.601   2.940   7.369 -0.0970  0.4208 -0.2300
   99SAPS   H5R 9919   5.692   3.001   7.361 -1.9880  3.3434 -1.0641
   99SAPS   C26 9920   5.495   2.981   7.440 -0.7800  0.2282  0.3691
   99SAPS   H6R 9921   5.499   3.081   7.487 -2.7940  0.6129 -0.1306
   99SAPS   C27 9922   5.360   2.913   7.454  0.1040 -0.6629  0.3087
   99SAPS   H7R 9923   5.349   2.833   7.530 -0.4876 -0.7216  0.1609
   99SAPS   H7S 9924   5.351   2.848   7.365  2.2250  0.8123 -1.1126
   99SAPS   C28 9925   5.246   3.009   7.477 -0.7587 -0.1187 -0.3116
   99SAPS   H8R 9926   5.192   3.028   7.383 -0.3122 -0.3178 -0.6117
   99SAPS   C29 9927   5.206   3.063   7.595  0.2535 -0.0390 -1.6930
   99SAPS   H9R 9928   5.128   3.140   7.587  0.9775  0.9032 -0.1193
   99SAPS  C210 9929   5.279   3.051   7.732  0.0555  0.2794 -0.2575
   99SAPS  H10R 9930   5.264   3.146   7.788 -0.1680 -0.5562  1.1411
   99SAPS  H10S 9931   5.388   3.039   7.714  0.1980  1.7109 -0.4968
   99SAPS  C211 9932   5.229   2.931   7.814 -0.5071 -0.2639  0.0003
   99SAPS  H11R 9933   5.164   2.861   7.760  0.7660 -1.8942  0.4827
   99SAPS  C212 9934   5.275   2.910   7.941  0.1200 -0.1732 -0.8834
   99SAPS  H12R 9935   5.260   2.812   7.987 -0.5299 -0.6240 -2.0144
   99SAPS  C213 9936   5.379   3.001   8.001 -0.6756 -0.1009  0.0062
   99SAPS  H13R 9937   5.332   3.099   8.021  0.0690  0.3983 -0.6435
   99SAPS  H13S 9938   5.454   3.020   7.921 -0.0444  0.3789  0.6917
   99SAPS  C214 9939   5.445   2.936   8.118  0.1967 -0.5182 -0.1563
   99SAPS  H14R 9940   5.513   2.860   8.078  0.2402  0.4453 -1.9951
   99SAPS  C215 9941   5.435   2.954   8.252  0.0833 -0.1328  0.1268
   99SAPS  H15R 9942   5.501   2.899   8.320 -0.4106  0.6489  1.2665
   99SAPS  C216 9943   5.342   3.052   8.319  0.4579  0.3712 -0.2289
   99SAPS  H16R 9944   5.271   3.089   8.242 -1.6622  0.1277  1.5206
   99SAPS  H16S 9945   5.390   3.141   8.365 -0.9016  1.2830 -0.5126
   99SAPS  C217 9946   5.258   2.999   8.440  0.2611  0.2533  0.2020
   99SAPS  H17R 9947   5.333   2.980   8.520  0.4461  1.1939  0.2584
   99SAPS  H17S 9948   5.221   2.903   8.397  0.9914  0.5704 -1.1932
   99SAPS  C218 9949   5.149   3.096   8.492 -0.3477  0.4839  0.0290
   99SAPS  H18R 9950   5.070   3.041   8.548 -1.4662  0.8028 -1.1949
   99SAPS  H18S 9951   5.101   3.133   8.399  1.5497  3.0380 -0.0352
   99SAPS  C219 9952   5.199   3.207   8.583 -0.2925  0.3830  0.3129
   99SAPS  H19R 9953   5.262   3.278   8.525  0.4485 -0.9980 -0.6299
   99SAPS  H19S 9954   5.267   3.177   8.666 -0.7709 -0.8891  0.2730
   99SAPS  C220 9955   5.088   3.291   8.653  0.7380  0.2769 -0.5928
   99SAPS  H20R 9956   5.017   3.326   8.575  1.8014  0.6607 -1.4045
   99SAPS  H20S 9957   5.132   3.379   8.705  1.1820 -0.4093  0.2293
   99SAPS  H20T 9958   5.031   3.237   8.732 -0.2141  2.0363 -0.0083
   99SAPS   C33 9959   5.556   2.375   6.956  0.1162 -0.2632 -0.5954
   99SAPS   H3X 9960   5.582   2.450   7.033  0.0223 -0.6916 -0.1420
   99SAPS   H3Y 9961   5.619   2.284   6.972 -3.5389 -2.9137  0.1446
   99SAPS   C34 9962   5.412   2.346   7.007  0.5847 -0.1057 -0.0561
   99SAPS   H4X 9963   5.351   2.292   6.932  2.1140 -0.9409 -0.7364
   99SAPS   H4Y 9964   5.361   2.444   7.018  0.6613  0.3274 -2.8931
   99SAPS   C35 9965   5.410   2.270   7.147 -0.3120 -0.4271 -0.0463
   99SAPS   H5X 9966   5.480   2.184   7.138  1.0254  0.7179 -1.1465
   99SAPS   H5Y 9967   5.306   2.234   7.156 -1.0180  0.6608 -2.8454
   99SAPS   C36 9968   5.430   2.362   7.271 -0.4666  0.6943  1.3108
   99SAPS   H6X 9969   5.348   2.435   7.283 -0.6173  0.9910 -0.9759
   99SAPS   H6Y 9970   5.524   2.416   7.250  0.8606 -1.4326  1.4445
   99SAPS   C37 9971   5.441   2.266   7.387 -0.6319  0.2396  0.8954
   99SAPS   H7X 9972   5.497   2.173   7.364 -1.0914 -0.2758  1.7933
   99SAPS   H7Y 9973   5.340   2.236   7.422 -0.3501 -2.2897 -0.2905
   99SAPS   C38 9974   5.511   2.332   7.506 -0.2923 -0.6511  0.2245
   99SAPS   H8X 9975   5.606   2.380   7.472 -0.8904 -0.9742 -2.1169
   99SAPS   H8Y 9976   5.539   2.253   7.578  4.1062 -1.4896 -2.0589
   99SAPS   C39 9977   5.421   2.445   7.565  0.0014 -0.0707  0.1080
   99SAPS   H9X 9978   5.337   2.390   7.611  0.0007  1.9493  2.7494
   99SAPS   H9Y 9979   5.374   2.506   7.485 -1.1473  0.8843  1.4624
   99SAPS  C310 9980   5.485   2.529   7.673 -0.1149 -0.1253 -0.5263
   99SAPS  H10X 9981   5.432   2.623   7.703  0.0655 -0.5542  1.2109
   99SAPS  H10Y 9982   5.584   2.564   7.637 -0.2108 -0.5312 -1.1923
   99SAPS  C311 9983   5.503   2.460   7.807  0.2397 -0.0262  1.3211
   99SAPS  H11X 9984   5.563   2.513   7.884 -0.1829  0.6481  1.1916
   99SAPS  H11Y 9985   5.565   2.369   7.801 -3.1919 -2.4588 -1.5938
   99SAPS  C312 9986   5.369   2.438   7.888  0.5732 -0.0959  0.3223
   99SAPS  H12X 9987   5.286   2.390   7.832  0.2664  0.4403  0.3051
   99SAPS  H12Y 9988   5.352   2.542   7.925  2.4931 -0.2564  1.8486
   99SAPS  C313 9989   5.399   2.355   8.020  0.5468 -0.1350 -0.3267
   99SAPS  H13X 9990   5.310   2.363   8.086  2.0260 -0.1785  1.7655
   99SAPS  H13Y 9991   5.473   2.415   8.078 -0.5380  0.0404  0.9247
   99SAPS  C314 9992   5.439   2.211   7.995 -0.3015 -0.0263 -0.1086
   99SAPS  H14X 9993   5.534   2.198   7.938  1.3042 -1.4619  2.6478
   99SAPS  H14Y 9994   5.356   2.152   7.953 -1.9053 -0.1144  2.8818
   99SAPS  C315 9995   5.478   2.128   8.123  0.2530  0.4592 -0.1541
   99SAPS  H15X 9996   5.484   2.024   8.085 -1.3323  1.3067 -3.0747
   99SAPS  H15Y 9997   5.386   2.132   8.184  1.0241  0.1730  1.0521
   99SAPS  C316 9998   5.596   2.177   8.194  0.6153 -0.1306 -0.5220
   99SAPS  H16X 9999   5.577   2.271   8.249 -1.5804  0.0126 -1.4123
   99SAPS  H16Y10000   5.678   2.195   8.121 -0.2065  1.7941 -1.0325
   99SAPS  C31710001   5.651   2.077   8.300  0.5052  0.1647 -0.7438
   99SAPS  H17X10002   5.662   1.976   8.254  2.2799  0.3243 -0.7298
   99SAPS  H17Y10003   5.575   2.058   8.379  1.2477  0.5160  0.0770
   99SAPS  C31810004   5.792   2.114   8.354  0.3127 -0.6514 -0.2325
   99SAPS  H18X10005   5.775   2.204   8.417  0.6070 -0.2649 -0.6973
   99SAPS  H18Y10006   5.859   2.135   8.268 -0.7884  0.8105 -0.7935
   99SAPS  H18Z10007   5.827   2.025   8.410 -0.0722 -0.7491 -0.1406
  100SAPS     N10008   2.405   4.709   6.318  0.8592 -1.2036  0.0163
  100SAPS   HN110009   2.457   4.695   6.229 -0.5916 -1.5389 -0.8056
  100SAPS   HN210010   2.313   4.754   6.301 -0.9386 -3.3037  3.1085
  100SAPS   HN310011   2.462   4.772   6.380 -2.2617  1.9350 -0.0050
  100SAPS   C1210012   2.382   4.569   6.381  0.3804  0.5494 -0.2637
  100SAPS  H12A10013   2.323   4.506   6.317 -2.5083  2.5326  0.2600
  100SAPS   C1310014   2.509   4.490   6.410  1.0231 -0.0503 -0.1686
  100SAPS  O13A10015   2.616   4.550   6.402 -0.2856  0.0660  0.5423
  100SAPS  O13B10016   2.499   4.385   6.478  0.1714 -0.0975 -0.5132
  100SAPS   C1110017   2.286   4.593   6.512  0.2112 -0.3988  0.2790
  100SAPS  H11A10018   2.346   4.643   6.590 -1.1710  1.5987  0.1161
  100SAPS  H11B10019   2.253   4.492   6.547  1.7793 -0.8513  0.5453
  100SAPS     P10020   2.056   4.712   6.562  0.2833  0.1878  0.5397
  100SAPS   O1310021   2.042   4.856   6.590  0.6552 -0.4031  0.0593
  100SAPS   O1410022   1.944   4.652   6.492 -0.3403  0.4923  0.2071
  100SAPS   O1210023   2.186   4.683   6.481 -0.1122  0.0307 -0.1352
  100SAPS   O1110024   2.076   4.629   6.696  0.4652 -0.1386  0.4648
  100SAPS    C110025   2.064   4.695   6.820  0.4701  0.1717 -0.5864
  100SAPS    HA10026   2.136   4.779   6.827  2.3816 -1.4629  0.5397
  100SAPS    HB10027   1.959   4.720   6.846  0.4986  0.4234 -0.7122
  100SAPS    C210028   2.111   4.587   6.926 -0.0554 -0.3357  0.2187
  100SAPS    HS10029   2.045   4.498   6.926  1.5155 -1.6364  2.5033
  100SAPS   O2110030   2.111   4.650   7.053  0.4075  0.0946  0.3254
  100SAPS   C2110031   2.001   4.641   7.127 -0.2280 -0.2284 -0.7131
  100SAPS   O2210032   1.891   4.595   7.090 -0.4002  0.2283  0.3605
  100SAPS   C2210033   2.031   4.713   7.262 -0.0265 -0.5046 -0.6649
  100SAPS   H2R10034   2.101   4.798   7.248 -1.4621  0.6973 -0.8118
  100SAPS   H2S10035   1.935   4.743   7.310  0.7742 -1.4869  1.7502
  100SAPS    C310036   2.240   4.518   6.894 -0.4595  0.3143 -0.3645
  100SAPS    HX10037   2.320   4.594   6.878 -0.8250  0.5391 -1.1925
  100SAPS    HY10038   2.226   4.460   6.800 -0.6854 -1.0559  0.4909
  100SAPS   O3110039   2.273   4.416   6.988  0.0570 -0.1038 -0.0102
  100SAPS   C3110040   2.380   4.429   7.070  0.1072 -0.2749  0.8496
  100SAPS   O3210041   2.466   4.513   7.054 -0.2368 -0.1620 -0.1369
  100SAPS   C3210042   2.372   4.315   7.168  0.2379  0.0419 -0.3519
  100SAPS   H2X10043   2.376   4.224   7.104 -0.3547 -0.3918  0.2279
  100SAPS   H2Y10044   2.271   4.326   7.211  0.0987 -2.4347  0.0926
  100SAPS   C2310045   2.083   4.606   7.365  0.1871 -0.3557  0.6574
  100SAPS   H3R10046   2.175   4.562   7.320 -0.9871 -1.5925 -0.6132
  100SAPS   H3S10047   2.013   4.522   7.380 -0.0315 -0.4760 -0.9187
  100SAPS   C2410048   2.104   4.669   7.502 -0.5973  0.4485 -0.1271
  100SAPS   H4R10049   2.163   4.589   7.553 -0.6523 -0.6212 -1.7001
  100SAPS   H4S10050   2.005   4.686   7.549 -0.2873  4.0707 -0.5427
  100SAPS   C2510051   2.171   4.800   7.512  1.0185 -0.5057  0.2437
  100SAPS   H5R10052   2.111   4.883   7.551 -0.0653 -0.0851 -2.1112
  100SAPS   C2610053   2.293   4.831   7.477 -0.2008 -0.2963  0.6127
  100SAPS   H6R10054   2.329   4.934   7.494 -2.9906  1.1507 -1.4864
  100SAPS   C2710055   2.401   4.738   7.427  0.1365 -0.6675 -0.0040
  100SAPS   H7R10056   2.395   4.733   7.316 -2.4473  1.1017 -0.0241
  100SAPS   H7S10057   2.370   4.642   7.475 -0.2050 -0.2208  0.6887
  100SAPS   C2810058   2.547   4.764   7.467  0.4195  0.0850 -0.0633
  100SAPS   H8R10059   2.624   4.759   7.388  0.5781 -1.0188  0.1362
  100SAPS   C2910060   2.582   4.783   7.594  0.2818  0.5446 -0.6431
  100SAPS   H9R10061   2.687   4.809   7.614  0.1587  1.8508 -1.6059
  100SAPS  C21010062   2.500   4.773   7.720  0.9844  0.2335 -0.8589
  100SAPS  H10R10063   2.438   4.865   7.719 -0.9211 -0.9733 -2.4155
  100SAPS  H10S10064   2.566   4.781   7.809 -1.1129  0.4161  0.7652
  100SAPS  C21110065   2.418   4.643   7.734  1.1780 -0.6683  0.0158
  100SAPS  H11R10066   2.447   4.571   7.656  2.2283 -1.0367  0.7163
  100SAPS  C21210067   2.326   4.617   7.824  0.3626 -0.6837  0.2651
  100SAPS  H12R10068   2.280   4.517   7.834 -3.0764  0.7739  0.1471
  100SAPS  C21310069   2.291   4.715   7.928  0.0504 -0.1851 -0.5587
  100SAPS  H13R10070   2.327   4.817   7.904  1.4699 -0.5873 -0.2035
  100SAPS  H13S10071   2.342   4.688   8.023 -1.6619 -0.3695  0.3471
  100SAPS  C21410072   2.145   4.738   7.947 -0.3600  0.7269 -0.2614
  100SAPS  H14R10073   2.095   4.751   7.850  1.5707 -0.5754 -1.5110
  100SAPS  C21510074   2.083   4.709   8.066 -0.1348 -0.0551  0.3263
  100SAPS  H15R10075   1.977   4.727   8.087  0.3930  0.4729  2.8677
  100SAPS  C21610076   2.146   4.650   8.184 -0.4689  0.1916  0.2433
  100SAPS  H16R10077   2.228   4.577   8.168 -0.4212 -0.0023  1.2749
  100SAPS  H16S10078   2.065   4.596   8.238 -0.3388 -0.7369 -0.4688
  100SAPS  C21710079   2.199   4.759   8.282 -0.7539 -0.5742  0.3393
  100SAPS  H17R10080   2.124   4.840   8.292 -2.8700 -2.3189 -0.5942
  100SAPS  H17S10081   2.293   4.801   8.239 -1.9021  1.4586 -0.2730
  100SAPS  C21810082   2.236   4.712   8.425 -0.5003  0.7731  0.2185
  100SAPS  H18R10083   2.264   4.605   8.425 -4.5607 -0.4762 -1.2380
  100SAPS  H18S10084   2.148   4.723   8.491  2.3634 -0.6817  4.7375
  100SAPS  C21910085   2.342   4.807   8.489  0.2998  0.5998 -0.2939
  100SAPS  H19R10086   2.294   4.906   8.479  1.8528  1.2572 -1.8001
  100SAPS  H19S10087   2.439   4.809   8.435  0.8107  0.6713  0.6070
  100SAPS  C22010088   2.360   4.777   8.638  0.6169 -0.8062 -0.2389
  100SAPS  H20R10089   2.428   4.689   8.638 -0.4644 -1.7077  1.7316
  100SAPS  H20S10090   2.266   4.742   8.684  1.8376  0.2480  3.3968
  100SAPS  H20T10091   2.391   4.866   8.697 -1.4400 -1.6571  2.3161
  100SAPS   C3310092   2.474   4.328   7.273 -0.3821  0.6516  0.3106
  100SAPS   H3X10093   2.505   4.434   7.289  1.3207  0.4672 -1.3523
  100SAPS   H3Y10094   2.566   4.272   7.243 -1.9206 -1.4781 -0.6816
  100SAPS   C3410095   2.426   4.257   7.398  0.4842  0.0210 -0.0029
  100SAPS   H4X10096   2.410   4.148   7.382 -1.2697 -0.0311  1.7211
  100SAPS   H4Y10097   2.338   4.314   7.434  1.3607 -0.0160  2.3884
  100SAPS   C3510098   2.519   4.266   7.519 -0.5170  0.2236  0.0635
  100SAPS   H5X10099   2.531   4.376   7.525  3.4559  0.0721 -1.7939
  100SAPS   H5Y10100   2.624   4.238   7.495 -1.4621 -1.8237 -2.1283
  100SAPS   C3610101   2.462   4.204   7.642  0.8458 -0.0601  0.7387
  100SAPS   H6X10102   2.490   4.096   7.636  1.5144  0.1142  0.6407
  100SAPS   H6Y10103   2.353   4.220   7.647  0.8442 -0.2704  1.5495
  100SAPS   C3710104   2.526   4.269   7.770 -0.3022 -0.0078  0.4320
  100SAPS   H7X10105   2.480   4.370   7.779  1.4106  0.8858 -0.2845
  100SAPS   H7Y10106   2.637   4.264   7.769 -0.3524 -2.5384 -0.8608
  100SAPS   C3810107   2.488   4.178   7.888  0.2333  0.7736  0.0150
  100SAPS   H8X10108   2.490   4.071   7.858  1.9651  0.7923 -0.0539
  100SAPS   H8Y10109   2.384   4.201   7.920 -0.4360 -0.1291 -1.4029
  100SAPS   C3910110   2.578   4.191   8.016 -0.2739 -0.6545  0.8379
  100SAPS   H9X10111   2.577   4.296   8.054  0.5965 -0.4193  0.2387
  100SAPS   H9Y10112   2.683   4.176   7.984 -0.3043  0.2734  0.2533
  100SAPS  C31010113   2.548   4.094   8.133  0.2931  0.4245 -0.3307
  100SAPS  H10X10114   2.581   3.990   8.112 -1.5599 -0.5392  1.3414
  100SAPS  H10Y10115   2.439   4.084   8.149  0.8109 -1.1407  2.9433
  100SAPS  C31110116   2.597   4.124   8.270  1.0273  0.0638  0.0025
  100SAPS  H11X10117   2.515   4.179   8.321 -0.5869 -0.6814 -1.6738
  100SAPS  H11Y10118   2.680   4.197   8.275 -0.3979  1.9218 -1.7481
  100SAPS  C31210119   2.633   3.999   8.350 -0.2845 -0.4538  0.2567
  100SAPS  H12X10120   2.709   3.938   8.297  1.5259 -0.7546  3.0078
  100SAPS  H12Y10121   2.544   3.932   8.341 -0.4775 -0.0032 -1.5347
  100SAPS  C31310122   2.680   4.024   8.492  0.3667  0.3162  0.5092
  100SAPS  H13X10123   2.655   3.929   8.543  2.7293 -0.7394 -0.1867
  100SAPS  H13Y10124   2.625   4.103   8.547  0.5125  0.5464  0.3260
  100SAPS  C31410125   2.830   4.059   8.497  0.2497 -0.5385 -0.2782
  100SAPS  H14X10126   2.853   4.155   8.446 -3.7688 -0.9170 -3.3145
  100SAPS  H14Y10127   2.882   3.977   8.443  2.7370  0.6261  0.2384
  100SAPS  C31510128   2.895   4.062   8.638 -0.1750  0.0089  0.3381
  100SAPS  H15X10129   2.819   4.110   8.705 -0.5634  1.8067 -1.2896
  100SAPS  H15Y10130   2.994   4.112   8.640 -0.7991  1.2763  0.4352
  100SAPS  C31610131   2.912   3.917   8.694  0.1695 -0.2991 -1.6171
  100SAPS  H16X10132   2.818   3.862   8.672  0.9429 -2.0142 -0.7977
  100SAPS  H16Y10133   2.928   3.916   8.804 -2.7321 -3.7806 -1.0552
  100SAPS  C31710134   3.027   3.835   8.632  0.0069 -0.3108  0.0878
  100SAPS  H17X10135   3.123   3.890   8.643  0.0115  0.1766 -1.9753
  100SAPS  H17Y10136   2.997   3.827   8.525  1.3237  3.4553 -0.7358
  100SAPS  C31810137   3.035   3.695   8.692 -0.3093  0.1895 -1.1320
  100SAPS  H18X10138   2.945   3.636   8.665 -1.6475  0.9073  1.4800
  100SAPS  H18Y10139   3.053   3.710   8.800 -2.8654 -2.1878 -0.2545
  100SAPS  H18Z10140   3.121   3.637   8.651 -0.3020 -0.5714 -0.0882
  101OSM      N10141   2.385   2.900  10.869  0.5581 -0.3144  0.0244
  101OSM    C1510142   2.292   2.880  10.756  0.1708  0.4905  0.3780
  101OSM   H15A10143   2.296   2.971  10.697  0.5779  2.4808  3.2645
  101OSM   H15B10144   2.191   2.871  10.794  0.3082 -1.9326  0.2918
  101OSM   H15C10145   2.313   2.788  10.704 -0.0567  0.8665 -0.3970
  101OSM    C1410146   2.516   2.894  10.799 -0.3527  0.6014  0.4810
  101OSM   H14A10147   2.594   2.926  10.866 -0.7395 -0.0052  1.2315
  101OSM   H14B10148   2.511   2.957  10.711 -0.4038 -0.7240 -0.5077
  101OSM   H14C10149   2.537   2.796  10.757  1.0047  0.5167  1.2956
  101OSM    C1310150   2.355   3.035  10.928 -0.6175 -0.0801 -0.5871
  101OSM   H13A10151   2.254   3.042  10.967 -0.6954 -0.1030 -0.7811
  101OSM   H13B10152   2.370   3.109  10.851  0.1827  1.2391  0.7946
  101OSM   H13C10153   2.426   3.053  11.007  1.8668 -0.6529 -2.5470
  101OSM    C1210154   2.374   2.789  10.971  0.1598 -0.3370 -0.1815
  101OSM   H12A10155   2.280   2.801  11.024  0.9966 -2.3263  1.9659
  101OSM   H12B10156   2.448   2.815  11.045 -0.9688 -0.7224  1.1158
  101OSM    C1110157   2.378   2.643  10.918  0.1395  0.0687 -0.0866
  101OSM   H11A10158   2.388   2.571  11.002  1.9830  0.4299  0.0375
  101OSM   H11B10159   2.475   2.644  10.864  0.0779  1.0607 -0.1914
  101OSM      P10160   2.125   2.582  10.904  0.3792 -0.2074 -0.2037
  101OSM    O1310161   2.133   2.467  11.000 -0.4751 -0.0433 -0.0723
  101OSM    O1410162   2.078   2.709  10.957  0.1978 -0.3926  0.0382
  101OSM    O1110163   2.028   2.528  10.789  0.4827  0.0160 -0.0540
  101OSM    O1210164   2.269   2.605  10.839 -0.0566  0.4475 -0.0504
  101OSM    C1S10165   1.932   2.623  10.731  0.6284  0.2705  0.0109
  101OSM    H1S10166   1.981   2.722  10.739  0.7969  0.0561  2.0676
  101OSM    H1T10167   1.836   2.628  10.787  2.1590  0.6897  2.7465
  101OSM     NF10168   1.853   2.702  10.506 -0.5261 -1.0200 -0.4821
  101OSM    HNF10169   1.758   2.694  10.478 -0.8454 -0.9748  0.5550
  101OSM    C2S10170   1.907   2.595  10.579 -0.5364 -0.0159  0.3288
  101OSM    H2S10171   2.004   2.568  10.533 -0.2050 -0.8833  1.4739
  101OSM    C3S10172   1.823   2.459  10.564 -0.9979  0.0286  0.1117
  101OSM    H3S10173   1.715   2.480  10.573 -0.8591  0.9315 -0.2036
  101OSM     O310174   1.852   2.369  10.673  0.1181  0.0641  0.2349
  101OSM    HO310175   1.901   2.417  10.740  1.0378  1.8109 -1.5651
  101OSM    C4S10176   1.845   2.407  10.425  0.2922  0.3054  0.5507
  101OSM    H4S10177   1.758   2.427  10.360 -0.8578 -1.9346  1.3147
  101OSM    C5S10178   1.953   2.337  10.373  1.0354 -0.3187  1.0171
  101OSM    H5S10179   2.044   2.326  10.433  1.2820  1.7909  1.1344
  101OSM    C6S10180   1.967   2.283  10.230  0.6263  0.3195 -0.3210
  101OSM    H6S10181   1.949   2.173  10.233  0.7066  0.3180  0.1694
  101OSM    H6T10182   2.074   2.302  10.209  1.2114  0.5993  2.5041
  101OSM    C7S10183   1.864   2.334  10.131  0.8660 -0.0384 -0.0802
  101OSM    H7S10184   1.862   2.445  10.127  1.8474 -0.0341 -0.6971
  101OSM    H7T10185   1.760   2.306  10.156  0.1394  1.8816 -0.7598
  101OSM    C8S10186   1.901   2.273   9.996 -0.3757  0.0866 -0.3273
  101OSM    H8S10187   1.890   2.163  10.005 -0.7219  0.0778 -0.8464
  101OSM    H8T10188   2.005   2.297   9.964 -1.0445  0.1855 -2.5634
  101OSM    C9S10189   1.817   2.318   9.876  0.6733  0.0227 -0.7528
  101OSM    H9S10190   1.830   2.429   9.869 -0.1363  0.0340 -2.6568
  101OSM    H9T10191   1.714   2.283   9.897  0.4160  1.3729  0.4630
  101OSM   C10S10192   1.858   2.250   9.744 -0.5163 -0.2626 -0.3532
  101OSM   H10S10193   1.836   2.141   9.751 -0.9146 -0.0885  3.7085
  101OSM   H10T10194   1.969   2.244   9.740 -0.5517 -2.7393  0.7953
  101OSM   C11S10195   1.802   2.316   9.627  0.4783  0.1759 -0.5426
  101OSM   H11S10196   1.819   2.425   9.636 -2.3144  0.8022 -1.7114
  101OSM   H11T10197   1.693   2.298   9.613  0.3508  0.5564 -0.0870
  101OSM   C12S10198   1.879   2.278   9.500  0.2147  0.6491  0.4631
  101OSM   H12S10199   1.872   2.167   9.491 -1.4859  0.8932 -2.7416
  101OSM   H12T10200   1.987   2.303   9.498  0.3777  0.1143  1.7114
  101OSM   C13S10201   1.814   2.344   9.377  0.3164 -0.4293  0.5688
  101OSM   H13S10202   1.825   2.453   9.390  0.9262 -0.4886  0.5791
  101OSM   H13T10203   1.708   2.312   9.389 -0.8902  2.3296 -1.6212
  101OSM   C14S10204   1.880   2.295   9.244 -0.0194 -0.0399 -0.1062
  101OSM   H14S10205   1.862   2.186   9.236 -2.0719  0.2935 -0.7512
  101OSM   H14T10206   1.990   2.308   9.239 -0.0628  0.2742 -0.3079
  101OSM   C15S10207   1.807   2.353   9.125 -0.3022  0.5237 -0.0112
  101OSM   H15S10208   1.814   2.464   9.135 -1.3348  0.8729 -2.4235
  101OSM   H15T10209   1.697   2.335   9.130 -0.2447 -0.0222 -0.5997
  101OSM   C16S10210   1.845   2.301   8.984 -0.6280 -0.7033 -0.7022
  101OSM   H16S10211   1.803   2.199   8.969 -1.6934 -0.4491  0.3515
  101OSM   H16T10212   1.956   2.294   8.985 -0.4264  1.3884 -2.1234
  101OSM   C17S10213   1.802   2.397   8.868 -0.3144  0.5257 -0.6726
  101OSM   H17S10214   1.846   2.497   8.889  0.5505  0.1123 -0.4887
  101OSM   H17T10215   1.691   2.403   8.876 -0.3980 -1.2890 -0.0913
  101OSM   C18S10216   1.851   2.340   8.729 -0.1989 -0.7972 -0.5426
  101OSM   H18S10217   1.962   2.348   8.722 -0.3925  2.4726 -2.1073
  101OSM   H18T10218   1.817   2.403   8.644 -0.9401 -0.4631 -0.0036
  101OSM   H18U10219   1.819   2.235   8.714 -1.0718 -0.7207  0.7185
  101OSM    C1F10220   1.916   2.817  10.481  0.0679 -0.0454  0.5414
  101OSM     OF10221   2.035   2.840  10.508 -0.1482  0.1822 -0.1217
  101OSM    C2F10222   1.836   2.928  10.420 -0.1181  0.5944  0.4543
  101OSM    H2F10223   1.847   3.019  10.482 -1.1041  0.9315  0.1553
  101OSM    H2G10224   1.734   2.884  10.426  0.5196 -1.4618 -1.9529
  101OSM    C3F10225   1.879   2.951  10.277 -0.3706 -0.3349  0.5428
  101OSM    H3F10226   1.892   2.856  10.220 -1.3298 -1.1421  1.5971
  101OSM    H3G10227   1.986   2.981  10.282 -0.8367  1.5660 -0.3453
  101OSM    C4F10228   1.790   3.049  10.204 -0.2084 -0.0651 -0.1710
  101OSM    H4F10229   1.765   3.136  10.267 -1.8912  0.5407 -1.5920
  101OSM    H4G10230   1.690   3.012  10.174 -0.8508  0.8080  0.8521
  101OSM    C5F10231   1.879   3.108  10.088 -0.2285 -0.1645 -0.0405
  101OSM    H5F10232   1.943   3.022  10.060 -0.0673  0.1759 -0.7314
  101OSM    H5G10233   1.944   3.190  10.127 -0.1837 -0.8579  1.4003
  101OSM    C6F10234   1.795   3.154   9.967  0.0358  0.5425 -0.0460
  101OSM    H6F10235   1.725   3.235   9.996 -1.0798 -0.9713  1.7156
  101OSM    H6G10236   1.733   3.071   9.928 -1.8562  1.5233  0.7377
  101OSM    C7F10237   1.888   3.196   9.855 -0.0853  0.4823 -0.7582
  101OSM    H7F10238   1.946   3.113   9.810  1.9549  1.4726 -0.0909
  101OSM    H7G10239   1.965   3.272   9.880  1.5760 -1.2061 -0.5670
  101OSM    C8F10240   1.805   3.275   9.753 -0.5947 -0.8363  0.2355
  101OSM    H8F10241   1.865   3.333   9.680  0.5552  0.1458  1.8849
  101OSM    H8G10242   1.745   3.354   9.803 -3.0394  0.2134 -3.8985
  101OSM    C9F10243   1.704   3.190   9.684  0.8815  0.7407  0.4494
  101OSM    H9F10244   1.619   3.166   9.750  1.5281 -0.6277  0.8106
  101OSM   C10F10245   1.717   3.148   9.558  0.9833  0.8712  0.1516
  101OSM   H10F10246   1.637   3.085   9.518  3.0517 -1.2479 -0.8459
  101OSM   C11F10247   1.839   3.165   9.473 -0.6293  0.3117  0.2299
  101OSM   H11F10248   1.934   3.127   9.517 -1.2363  0.1415  1.4348
  101OSM   H11G10249   1.862   3.272   9.453  0.8077 -0.0778 -0.3383
  101OSM   C12F10250   1.845   3.119   9.329  0.2638  0.1186  0.2589
  101OSM   H12F10251   1.753   3.163   9.285  0.8763  2.2002  0.9832
  101OSM   H12G10252   1.824   3.010   9.317 -1.0411  0.6219 -3.0832
  101OSM   C13F10253   1.976   3.147   9.251 -0.0076  0.2106  0.8500
  101OSM   H13F10254   2.053   3.097   9.313  2.2008  0.8352 -1.2466
  101OSM   H13G10255   2.011   3.252   9.248  0.1879  0.1413  0.5430
  101OSM   C14F10256   1.976   3.091   9.111 -0.0895  0.1001  0.4086
  101OSM   H14F10257   1.964   2.984   9.136  1.4257  0.3012  2.2466
  101OSM   H14G10258   2.063   3.129   9.052 -2.4174  1.0648 -2.6703
  101OSM   C15F10259   1.845   3.143   9.035  0.3491  0.3101  0.5384
  101OSM   H15F10260   1.831   3.246   9.073  0.9346  2.0729 -3.5159
  101OSM   H15G10261   1.768   3.069   9.068  0.7218  0.2710  1.3454
  101OSM   C16F10262   1.858   3.145   8.882 -0.0275  0.4695 -0.1284
  101OSM   H16F10263   1.951   3.200   8.853  0.2847  0.6037  1.0784
  101OSM   H16G10264   1.786   3.211   8.830  0.6019 -1.8763 -4.5710
  101OSM   C17F10265   1.850   3.013   8.814 -0.2750  0.5249 -0.1323
  101OSM   H17F10266   1.759   2.957   8.843  0.9765 -0.1119  3.0660
  101OSM   H17G10267   1.941   2.955   8.839  0.4518  0.0213 -3.4970
  101OSM   C18F10268   1.853   3.035   8.662  0.0158 -0.1045  0.0568
  101OSM   H18F10269   1.853   2.933   8.619 -0.4375 -1.3219  2.7691
  101OSM   H18G10270   1.939   3.095   8.625  0.2288 -1.6981 -2.2912
  101OSM   H18H10271   1.758   3.091   8.646 -0.9095 -0.4629  3.5750
  102OSM      N10272   1.825   2.430  11.188  0.3437 -0.1659 -0.6008
  102OSM    C1510273   1.721   2.443  11.294 -0.4222  0.1967 -0.2424
  102OSM   H15A10274   1.766   2.493  11.379 -0.3417 -1.8425  0.9963
  102OSM   H15B10275   1.694   2.342  11.322  1.1991  0.0069  0.7766
  102OSM   H15C10276   1.640   2.504  11.258 -0.0397  1.9292  1.6249
  102OSM    C1410277   1.871   2.575  11.165  0.1350  1.1042 -0.5795
  102OSM   H14A10278   1.858   2.635  11.253 -0.5842  0.4808 -0.2460
  102OSM   H14B10279   1.810   2.617  11.086  0.9059 -1.1778 -2.5181
  102OSM   H14C10280   1.973   2.577  11.131  0.6179 -0.1625  0.6819
  102OSM    C1310281   1.938   2.358  11.239 -0.2839  1.1000 -0.4932
  102OSM   H13A10282   1.956   2.386  11.341  0.5348 -1.5159  0.1716
  102OSM   H13B10283   2.032   2.391  11.197  0.2684  0.1332 -0.0546
  102OSM   H13C10284   1.934   2.251  11.226  1.1223  0.8848  0.6747
  102OSM    C1210285   1.778   2.370  11.060  0.0741 -0.5950  0.2659
  102OSM   H12A10286   1.780   2.262  11.071 -1.4127 -0.6588  0.0518
  102OSM   H12B10287   1.847   2.401  10.983 -0.9035 -0.6005 -0.6412
  102OSM    C1110288   1.637   2.404  10.996  0.1642 -0.1056 -0.2505
  102OSM   H11A10289   1.559   2.339  11.042 -0.4576  0.6472 -0.2301
  102OSM   H11B10290   1.637   2.382  10.888 -0.0155 -1.0448 -0.0665
  102OSM      P10291   1.464   2.595  10.951 -0.0132 -0.2249  0.2158
  102OSM    O1310292   1.356   2.566  11.047  0.4035  0.0353  0.3942
  102OSM    O1410293   1.477   2.736  10.908 -0.2986 -0.3674 -0.4338
  102OSM    O1110294   1.457   2.492  10.828  0.0834  0.0376 -0.5183
  102OSM    O1210295   1.607   2.544  11.008  1.0937 -0.2967  0.2602
  102OSM    C1S10296   1.355   2.515  10.736  0.6067 -0.1736  1.3129
  102OSM    H1S10297   1.358   2.618  10.696 -0.9659 -0.1284  1.2510
  102OSM    H1T10298   1.253   2.500  10.776 -0.0066 -0.1519 -0.1730
  102OSM     NF10299   1.270   2.444  10.515  0.4419  0.1734 -0.2996
  102OSM    HNF10300   1.212   2.369  10.484  0.7035 -0.4433  0.6561
  102OSM    C2S10301   1.370   2.413  10.614 -0.6284  0.2532 -0.6016
  102OSM    H2S10302   1.475   2.425  10.578  0.4359 -1.1330  1.7734
  102OSM    C3S10303   1.358   2.263  10.669  0.2847 -0.0010  1.1450
  102OSM    H3S10304   1.252   2.244  10.693  0.3092  0.8182  1.9753
  102OSM     O310305   1.427   2.229  10.782  0.1103  0.6602 -0.6030
  102OSM    HO310306   1.448   2.317  10.815 -0.7824  0.8159 -0.4276
  102OSM    C4S10307   1.397   2.168  10.551  0.7963 -0.1290 -0.4778
  102OSM    H4S10308   1.306   2.127  10.505  1.2852 -0.0983 -1.5028
  102OSM    C5S10309   1.515   2.123  10.502  0.4344 -0.1497 -0.5444
  102OSM    H5S10310   1.609   2.170  10.536  0.1021  0.2958 -0.2403
  102OSM    C6S10311   1.537   2.029  10.391 -0.4529 -0.1812  0.2088
  102OSM    H6S10312   1.505   1.925  10.409 -0.7352 -0.0896  0.2413
  102OSM    H6T10313   1.648   2.022  10.386 -0.3877  0.5612  0.3709
  102OSM    C7S10314   1.485   2.101  10.267 -0.0496  0.0745  1.0191
  102OSM    H7S10315   1.529   2.201  10.245 -0.0424 -0.2420 -0.5793
  102OSM    H7T10316   1.374   2.111  10.269 -0.5382 -2.7926 -2.0344
  102OSM    C8S10317   1.518   2.016  10.138  0.2437 -0.3785 -0.1482
  102OSM    H8S10318   1.470   1.916  10.128  0.9093 -0.6176 -1.1179
  102OSM    H8T10319   1.626   1.990  10.127  0.0327 -0.4978 -2.3082
  102OSM    C9S10320   1.477   2.088  10.008 -0.0836 -0.1567  0.3112
  102OSM    H9S10321   1.522   2.189  10.020 -0.5482  0.1059 -0.1599
  102OSM    H9T10322   1.367   2.092   9.998 -0.2036 -0.9167  1.1579
  102OSM   C10S10323   1.535   2.021   9.880 -0.2398 -0.0549 -0.3921
  102OSM   H10S10324   1.488   1.921   9.869 -0.5633  0.2685 -2.4681
  102OSM   H10T10325   1.645   2.023   9.894 -0.4883 -0.1584  1.8639
  102OSM   C11S10326   1.499   2.107   9.752 -0.0731  1.1395 -0.7782
  102OSM   H11S10327   1.555   2.203   9.755  1.3811  0.3146  1.9126
  102OSM   H11T10328   1.392   2.136   9.752 -0.0100  1.6328  1.5546
  102OSM   C12S10329   1.523   2.028   9.620 -0.2991  0.7748  0.3955
  102OSM   H12S10330   1.458   1.938   9.617  2.0551 -1.0329 -1.9564
  102OSM   H12T10331   1.629   1.995   9.613 -0.8765 -1.2954  0.7609
  102OSM   C13S10332   1.479   2.102   9.500 -0.1604 -0.1036 -0.4243
  102OSM   H13S10333   1.534   2.197   9.490  1.5495 -1.1380 -1.2573
  102OSM   H13T10334   1.373   2.135   9.506 -0.1646 -0.3417  1.8541
  102OSM   C14S10335   1.501   2.029   9.368  0.2922  0.5990  0.0566
  102OSM   H14S10336   1.434   1.941   9.357 -0.3010  1.0047  0.3816
  102OSM   H14T10337   1.602   1.988   9.348 -1.5022 -3.3258 -2.4527
  102OSM   C15S10338   1.471   2.113   9.238  0.1565  0.0789  0.4785
  102OSM   H15S10339   1.542   2.198   9.239  0.3551  0.0343 -2.0139
  102OSM   H15T10340   1.370   2.159   9.244  0.3926  0.8779 -1.1140
  102OSM   C16S10341   1.489   2.027   9.109  0.1208 -1.0849 -0.2190
  102OSM   H16S10342   1.575   1.961   9.133 -1.0790 -2.1370  1.3252
  102OSM   H16T10343   1.523   2.091   9.024  1.7340 -1.4281  0.1389
  102OSM   C17S10344   1.372   1.937   9.069 -0.4757 -0.1167 -0.1855
  102OSM   H17S10345   1.282   2.000   9.055 -0.0143  0.3719 -1.0409
  102OSM   H17T10346   1.354   1.865   9.152  0.8719  0.0443  0.2708
  102OSM   C18S10347   1.378   1.856   8.936 -0.3511  0.6198 -0.4964
  102OSM   H18S10348   1.398   1.934   8.859  0.3390  2.1309  1.1457
  102OSM   H18T10349   1.287   1.795   8.920  1.3670 -3.1738  2.4901
  102OSM   H18U10350   1.456   1.777   8.947  0.7323  1.8310  0.8737
  102OSM    C1F10351   1.255   2.564  10.447 -0.0298  0.5592 -0.1690
  102OSM     OF10352   1.338   2.658  10.457 -0.0219  0.4003 -0.0600
  102OSM    C2F10353   1.137   2.582  10.355 -0.5096  0.0864 -0.5233
  102OSM    H2F10354   1.046   2.550  10.412  1.7486 -2.2205  2.1309
  102OSM    H2G10355   1.146   2.512  10.269  0.4371 -0.3314 -0.0966
  102OSM    C3F10356   1.129   2.721  10.289 -0.0259 -0.5185 -0.3085
  102OSM    H3F10357   1.226   2.733  10.237  0.0675 -1.0474 -0.2703
  102OSM    H3G10358   1.121   2.787  10.378  0.7025 -1.4617  0.4817
  102OSM    C4F10359   1.010   2.737  10.193 -0.1576  0.4447  0.3036
  102OSM    H4F10360   0.911   2.718  10.240 -0.6252  0.7260 -0.5353
  102OSM    H4G10361   1.033   2.670  10.107 -1.1219 -0.4899  0.7572
  102OSM    C5F10362   1.015   2.875  10.133  0.2074 -0.3669  0.4513
  102OSM    H5F10363   1.110   2.882  10.076 -0.5876  0.5696 -0.8173
  102OSM    H5G10364   1.019   2.948  10.217 -0.9710 -0.6194  0.7436
  102OSM    C6F10365   0.893   2.906  10.046 -0.8692 -0.4052 -0.0488
  102OSM    H6F10366   0.803   2.887  10.109  0.0763  0.8385  1.7810
  102OSM    H6G10367   0.878   2.832   9.965  1.0392 -1.6792  0.6746
  102OSM    C7F10368   0.899   3.049   9.984  0.2097  0.7331  0.0232
  102OSM    H7F10369   0.990   3.061   9.922 -0.2106 -0.6031 -0.9122
  102OSM    H7G10370   0.911   3.123  10.066  2.2110 -1.3626  1.7743
  102OSM    C8F10371   0.780   3.080   9.892 -0.0422  0.8049  0.4699
  102OSM    H8F10372   0.682   3.047   9.934 -1.7686  0.9013 -3.1159
  102OSM    H8G10373   0.802   3.021   9.800 -0.9114  0.1463  0.6705
  102OSM    C9F10374   0.762   3.225   9.856  0.0172  0.0300  0.0349
  102OSM    H9F10375   0.775   3.291   9.943  1.6796  0.0069 -0.1691
  102OSM   C10F10376   0.730   3.269   9.729  0.5618 -0.7051 -0.7199
  102OSM   H10F10377   0.720   3.377   9.710  1.3791 -0.7119 -1.2093
  102OSM   C11F10378   0.706   3.190   9.606  0.4263  0.2961  0.2958
  102OSM   H11F10379   0.596   3.178   9.594  0.4111  0.4898  0.2362
  102OSM   H11G10380   0.739   3.085   9.620 -1.6459 -0.5665 -0.7713
  102OSM   C12F10381   0.762   3.254   9.485  0.2343 -0.0679  0.1454
  102OSM   H12F10382   0.873   3.247   9.475  0.4208  3.2693 -1.4877
  102OSM   H12G10383   0.727   3.359   9.477  2.1841  0.5839 -0.4450
  102OSM   C13F10384   0.707   3.192   9.356 -0.2474 -0.4299  0.0128
  102OSM   H13F10385   0.596   3.191   9.363 -0.2698  2.1379  1.3283
  102OSM   H13G10386   0.733   3.087   9.332  0.5008  0.3108 -2.8522
  102OSM   C14F10387   0.765   3.263   9.237 -0.1758 -0.3119  0.1714
  102OSM   H14F10388   0.875   3.250   9.239  0.1517  2.1047  0.5387
  102OSM   H14G10389   0.747   3.373   9.237 -2.9280 -0.6433  2.2696
  102OSM   C15F10390   0.696   3.213   9.110 -0.5426 -0.2235 -0.3420
  102OSM   H15F10391   0.585   3.212   9.122 -0.4976  1.5526  0.6287
  102OSM   H15G10392   0.722   3.106   9.096 -1.5437 -0.3536 -1.3607
  102OSM   C16F10393   0.717   3.297   8.986  0.6291  0.5537  0.1488
  102OSM   H16F10394   0.820   3.284   8.948  0.1624 -0.1184 -0.9513
  102OSM   H16G10395   0.702   3.400   9.025 -0.6991 -0.3322  2.0961
  102OSM   C17F10396   0.611   3.277   8.877 -0.5088  0.3518  0.8870
  102OSM   H17F10397   0.504   3.285   8.906 -0.7101 -2.2092  1.0385
  102OSM   H17G10398   0.614   3.168   8.859 -0.5801 -0.1359  3.5528
  102OSM   C18F10399   0.640   3.361   8.744 -0.6284 -0.4019  0.0494
  102OSM   H18F10400   0.636   3.469   8.771 -0.9589 -0.5558  0.6447
  102OSM   H18G10401   0.564   3.332   8.669 -1.7695 -0.1606  1.0678
  102OSM   H18H10402   0.745   3.353   8.710 -0.6614  1.9813 -0.8194
  103OSM      N10403   4.947   5.203  11.386  0.4941 -0.0271  0.9138
  103OSM    C1510404   5.013   5.109  11.488  0.4257 -0.3139 -0.1278
  103OSM   H15A10405   5.103   5.057  11.459 -0.3401 -0.0125 -3.4650
  103OSM   H15B10406   4.937   5.041  11.523 -2.5631  2.6245 -0.3949
  103OSM   H15C10407   5.030   5.168  11.577 -1.3408  0.1135 -0.0332
  103OSM    C1410408   4.815   5.241  11.442  0.5059 -0.1063  0.4400
  103OSM   H14A10409   4.742   5.161  11.447  1.5464 -1.0983  0.1320
  103OSM   H14B10410   4.780   5.320  11.377  2.8390  0.4457 -0.2103
  103OSM   H14C10411   4.822   5.276  11.544 -2.0332 -0.2378  0.7414
  103OSM    C1310412   5.031   5.330  11.362 -0.5227  0.5128  0.3748
  103OSM   H13A10413   5.123   5.305  11.313  1.0150  3.5557  1.4474
  103OSM   H13B10414   5.055   5.377  11.456  0.4371  0.3754  0.2055
  103OSM   H13C10415   4.969   5.397  11.303  1.0692  1.7477  0.0402
  103OSM    C1210416   4.934   5.123  11.259  0.7823 -0.1721 -0.0724
  103OSM   H12A10417   5.032   5.082  11.238  0.8827 -1.0927  1.9833
  103OSM   H12B10418   4.903   5.192  11.182 -0.7069 -1.1347 -0.3810
  103OSM    C1110419   4.847   4.997  11.257  0.2136 -0.4988 -0.2212
  103OSM   H11A10420   4.875   4.939  11.347 -0.9490 -0.4942  0.1635
  103OSM   H11B10421   4.871   4.936  11.167  1.0989  1.4346 -1.3600
  103OSM      P10422   4.612   5.082  11.178  0.1914  0.1474 -0.2072
  103OSM    O1310423   4.477   5.098  11.240 -0.3718  0.6019 -0.4843
  103OSM    O1410424   4.671   5.200  11.107  0.0525 -0.1835 -0.4611
  103OSM    O1110425   4.613   4.961  11.079 -0.5135 -0.2300 -0.1404
  103OSM    O1210426   4.713   5.032  11.285 -0.0211 -0.9443  1.1977
  103OSM    C1S10427   4.533   4.961  10.962  0.0965  0.5865  0.1855
  103OSM    H1S10428   4.513   5.063  10.922  0.3254 -0.2691 -2.2702
  103OSM    H1T10429   4.430   4.925  10.983  0.0425 -0.1099 -1.1509
  103OSM     NF10430   4.519   4.869  10.728  0.1024  0.0786  0.9255
  103OSM    HNF10431   4.494   4.784  10.682  1.8364  0.3964 -0.7295
  103OSM    C2S10432   4.596   4.862  10.854  0.5013  0.1399 -0.3574
  103OSM    H2S10433   4.697   4.902  10.831 -0.7977  4.1829  0.1946
  103OSM    C3S10434   4.610   4.715  10.903 -0.3723 -0.1596 -0.1894
  103OSM    H3S10435   4.510   4.676  10.929  0.7444 -2.6670  0.7237
  103OSM     O310436   4.679   4.707  11.023 -0.1166 -0.2232  0.2081
  103OSM    HO310437   4.674   4.801  11.043 -1.7356 -0.0300 -0.9086
  103OSM    C4S10438   4.660   4.610  10.800 -0.2135 -0.4842 -0.0878
  103OSM    H4S10439   4.579   4.551  10.754 -0.7809  1.2200 -1.3988
  103OSM    C5S10440   4.788   4.593  10.759 -0.1302  0.4829  0.1863
  103OSM    H5S10441   4.871   4.654  10.798  1.2665 -1.2105  0.0034
  103OSM    C6S10442   4.836   4.496  10.653 -0.4694 -0.3636  0.2329
  103OSM    H6S10443   4.897   4.421  10.707  0.6538  1.2111  1.2422
  103OSM    H6T10444   4.904   4.552  10.584  0.0774  0.9535  1.7876
  103OSM    C7S10445   4.717   4.438  10.569  0.0902  0.2228  0.2652
  103OSM    H7S10446   4.643   4.520  10.555 -0.1965 -0.0195  0.3651
  103OSM    H7T10447   4.660   4.365  10.630  0.3692  0.6366  1.0429
  103OSM    C8S10448   4.751   4.389  10.430  0.1779  0.3837 -0.1061
  103OSM    H8S10449   4.818   4.300  10.441 -2.0873 -1.1777  2.2821
  103OSM    H8T10450   4.806   4.471  10.380  1.0732 -0.0081  0.2096
  103OSM    C9S10451   4.633   4.357  10.339  0.2435 -0.3074  0.4243
  103OSM    H9S10452   4.595   4.260  10.377  1.8326 -1.3734 -0.5897
  103OSM    H9T10453   4.666   4.345  10.233 -0.5025  1.8723 -0.1276
  103OSM   C10S10454   4.533   4.478  10.316  0.0462  0.2466 -0.1564
  103OSM   H10S10455   4.605   4.559  10.289 -0.5238  0.4576 -1.0785
  103OSM   H10T10456   4.484   4.490  10.415 -1.3037 -1.7590 -0.5201
  103OSM   C11S10457   4.426   4.450  10.216  0.4228  0.4777  0.2551
  103OSM   H11S10458   4.365   4.364  10.249 -1.3831  1.2235 -0.9317
  103OSM   H11T10459   4.475   4.414  10.123  0.4885 -0.9070  0.8164
  103OSM   C12S10460   4.320   4.562  10.190  0.2170 -0.2297  0.0421
  103OSM   H12S10461   4.370   4.655  10.153 -0.4959  0.6494  1.2325
  103OSM   H12T10462   4.269   4.603  10.279  2.6734  1.0220  0.9853
  103OSM   C13S10463   4.215   4.516  10.091 -0.8216 -0.3406  0.1005
  103OSM   H13S10464   4.114   4.533  10.134 -0.2943 -0.4854  1.4432
  103OSM   H13T10465   4.213   4.406  10.075  0.8247 -0.4467  0.5158
  103OSM   C14S10466   4.243   4.595   9.965 -0.5577 -1.3171  0.0010
  103OSM   H14S10467   4.353   4.597   9.951 -0.4091  3.2027  0.4994
  103OSM   H14T10468   4.216   4.701   9.981  2.4097 -0.6008  0.9764
  103OSM   C15S10469   4.171   4.548   9.841  0.0219 -0.0405  0.0280
  103OSM   H15S10470   4.079   4.605   9.816 -0.5963 -0.2605  1.6619
  103OSM   H15T10471   4.160   4.438   9.844  1.4050 -0.2079 -0.0953
  103OSM   C16S10472   4.271   4.562   9.719 -0.1396 -0.3763 -0.5369
  103OSM   H16S10473   4.369   4.511   9.721  0.2743  0.4070  1.1076
  103OSM   H16T10474   4.289   4.671   9.704  1.3162 -0.0777  2.5858
  103OSM   C17S10475   4.206   4.517   9.584  0.2442  0.2511 -0.2466
  103OSM   H17S10476   4.237   4.589   9.506 -0.1269 -0.7171 -1.3108
  103OSM   H17T10477   4.097   4.507   9.604  0.3007  0.2217  0.0463
  103OSM   C18S10478   4.269   4.391   9.526 -0.1774 -1.0758  0.2902
  103OSM   H18S10479   4.251   4.304   9.593  0.6845 -1.6044 -0.1462
  103OSM   H18T10480   4.379   4.408   9.524 -0.7354  4.1045  0.5544
  103OSM   H18U10481   4.239   4.368   9.421 -1.0876 -0.1813  0.3375
  103OSM    C1F10482   4.484   4.975  10.659  1.0744 -0.0923 -0.0501
  103OSM     OF10483   4.552   5.075  10.663 -0.0484 -0.3233 -0.2129
  103OSM    C2F10484   4.374   4.968  10.562 -0.2005  0.6756  0.4354
  103OSM    H2F10485   4.290   4.920  10.618  0.7157  0.8452  2.0044
  103OSM    H2G10486   4.405   4.901  10.480  0.6203 -0.3494  1.5518
  103OSM    C3F10487   4.328   5.103  10.517 -0.1344  0.3943  0.2662
  103OSM    H3F10488   4.409   5.177  10.495 -1.8210  1.3144 -3.5152
  103OSM    H3G10489   4.258   5.143  10.593 -0.4362 -1.9793  1.3387
  103OSM    C4F10490   4.235   5.093  10.389 -0.0344  0.5275  0.0906
  103OSM    H4F10491   4.184   5.187  10.362  1.8712  0.9064 -2.6611
  103OSM    H4G10492   4.160   5.017  10.417 -0.9238 -0.1916 -3.6484
  103OSM    C5F10493   4.311   5.038  10.272  0.4239 -0.7488  0.0198
  103OSM    H5F10494   4.347   4.932  10.272  2.1614 -0.3337 -3.7528
  103OSM    H5G10495   4.389   5.107  10.234  1.6915 -2.0237  0.2373
  103OSM    C6F10496   4.205   5.041  10.159  0.3672 -0.8912  0.1665
  103OSM    H6F10497   4.181   5.147  10.135  1.6960 -0.3472  1.1079
  103OSM    H6G10498   4.111   4.986  10.178 -2.6876  3.5126 -0.8339
  103OSM    C7F10499   4.257   4.994  10.021 -0.4135 -0.0195  0.2166
  103OSM    H7F10500   4.284   4.886  10.028  0.8567  0.3518  1.5009
  103OSM    H7G10501   4.349   5.048   9.989 -0.1942  0.0099  0.8890
  103OSM    C8F10502   4.149   5.001   9.906  0.0000  0.3810  0.5827
  103OSM    H8F10503   4.047   5.001   9.952 -0.4152 -0.5613 -0.3087
  103OSM    H8G10504   4.167   4.912   9.842 -0.0703  0.5660  0.3033
  103OSM    C9F10505   4.154   5.136   9.831  0.9207 -0.9142 -0.2005
  103OSM    H9F10506   4.135   5.226   9.891 -2.1332 -1.4764 -0.1413
  103OSM   C10F10507   4.190   5.159   9.704 -0.0875  0.1888 -0.2712
  103OSM   H10F10508   4.196   5.259   9.660 -0.2027  1.3755  2.2523
  103OSM   C11F10509   4.240   5.056   9.607  0.5693  0.3286 -0.4546
  103OSM   H11F10510   4.261   4.960   9.657 -0.7641 -0.1485 -0.7847
  103OSM   H11G10511   4.341   5.098   9.587  0.1821  1.7881  0.4622
  103OSM   C12F10512   4.150   5.044   9.478  0.4324  0.4029 -0.6031
  103OSM   H12F10513   4.157   5.144   9.432  0.7876  1.1045  0.9018
  103OSM   H12G10514   4.044   5.020   9.501 -0.1823  2.2239 -1.3694
  103OSM   C13F10515   4.187   4.924   9.385  0.2984 -0.2673 -0.1682
  103OSM   H13F10516   4.194   4.834   9.450 -0.6794 -1.2036 -1.3245
  103OSM   H13G10517   4.107   4.900   9.313  0.3683  0.4152 -0.4819
  103OSM   C14F10518   4.315   4.933   9.295  0.3596  0.1948 -0.4324
  103OSM   H14F10519   4.335   4.833   9.251 -0.3193 -0.5194  0.8269
  103OSM   H14G10520   4.400   4.961   9.361 -1.4460  0.1391  2.0558
  103OSM   C15F10521   4.311   5.038   9.182  0.2516 -0.8904 -1.1169
  103OSM   H15F10522   4.316   5.136   9.236  1.3487 -1.3900 -0.2696
  103OSM   H15G10523   4.214   5.033   9.128  0.2769 -0.4303 -1.2124
  103OSM   C16F10524   4.432   5.041   9.086 -0.5897  0.4631 -0.3810
  103OSM   H16F10525   4.444   4.939   9.042  2.3212 -0.2856  1.8545
  103OSM   H16G10526   4.525   5.047   9.146 -0.3458 -0.9713 -0.5628
  103OSM   C17F10527   4.428   5.147   8.975 -0.3571 -0.1584 -0.7066
  103OSM   H17F10528   4.397   5.249   9.008  0.4700 -0.1034 -0.0528
  103OSM   H17G10529   4.351   5.110   8.905 -1.4989  1.0574 -0.1438
  103OSM   C18F10530   4.564   5.171   8.903  0.1758 -0.2085 -0.2852
  103OSM   H18F10531   4.611   5.074   8.878  2.2636  0.1622  1.7707
  103OSM   H18G10532   4.635   5.215   8.977 -0.3068  0.6948 -0.3487
  103OSM   H18H10533   4.560   5.239   8.815 -0.3167 -1.8290 -1.5527
  104OSM      N10534   0.436   4.991  11.334  0.0854  0.6714 -0.1323
  104OSM    C1510535   0.569   4.980  11.399 -0.4594  0.0433 -0.0650
  104OSM   H15A10536   0.569   5.018  11.500  0.6454  0.6951 -0.2911
  104OSM   H15B10537   0.641   5.042  11.347 -2.1625  2.0183 -0.2038
  104OSM   H15C10538   0.609   4.881  11.389 -1.0911 -0.1375 -0.8548
  104OSM    C1410539   0.334   4.916  11.423  0.3152 -0.2656 -0.6232
  104OSM   H14A10540   0.319   4.963  11.519 -1.0298 -1.4629 -0.2087
  104OSM   H14B10541   0.353   4.811  11.443 -0.9230 -0.5476 -0.7985
  104OSM   H14C10542   0.240   4.911  11.370  0.4352 -2.6675 -0.7180
  104OSM    C1310543   0.394   5.137  11.329 -0.4268  0.0465 -0.1252
  104OSM   H13A10544   0.397   5.183  11.427  0.2387 -0.3402  0.0431
  104OSM   H13B10545   0.289   5.150  11.306  0.1112 -0.1930 -3.0811
  104OSM   H13C10546   0.457   5.199  11.268 -0.5311  2.1526  1.7739
  104OSM    C1210547   0.451   4.933  11.189 -0.5670 -0.8806  0.1232
  104OSM   H12A10548   0.349   4.927  11.154 -0.7116 -0.4813  0.4558
  104OSM   H12B10549   0.491   4.833  11.193 -1.3504 -1.1728  2.2297
  104OSM    C1110550   0.534   5.021  11.085 -0.5609  0.1286  0.2909
  104OSM   H11A10551   0.564   4.952  11.003  1.4663  1.0895  0.1572
  104OSM   H11B10552   0.625   5.056  11.139  1.0066 -1.3576 -1.2214
  104OSM      P10553   0.327   5.126  10.965  0.1101 -0.2604 -0.1706
  104OSM    O1310554   0.221   5.156  11.068 -0.7553  0.4460 -0.7147
  104OSM    O1410555   0.333   5.211  10.850 -0.1237  0.6015 -0.0444
  104OSM    O1110556   0.307   4.969  10.927 -0.1589  0.1169  0.5316
  104OSM    O1210557   0.466   5.137  11.033 -0.0986 -0.1356 -0.8874
  104OSM    C1S10558   0.214   4.927  10.822  0.2573  0.6851 -0.2064
  104OSM    H1S10559   0.116   4.978  10.822  0.4019  1.0265 -2.1027
  104OSM    H1T10560   0.186   4.820  10.832 -3.1563  1.3891 -1.2006
  104OSM     NF10561   0.171   4.908  10.584 -0.8033  0.9332  0.0506
  104OSM    HNF10562   0.171   4.812  10.557 -0.9783  0.0732  2.7338
  104OSM    C2S10563   0.277   4.938  10.678 -0.0505  0.0883 -0.4859
  104OSM    H2S10564   0.307   5.045  10.665  0.2990  0.1863  1.0374
  104OSM    C3S10565   0.406   4.858  10.668 -0.1226  0.3651  1.4432
  104OSM    H3S10566   0.377   4.753  10.690 -1.5218 -0.0072 -1.6821
  104OSM     O310567   0.508   4.889  10.756  0.7542  0.2894  0.0078
  104OSM    HO310568   0.476   4.957  10.816  5.0995  0.4836  2.5275
  104OSM    C4S10569   0.470   4.869  10.532 -0.2482  0.2596  0.2160
  104OSM    H4S10570   0.507   4.969  10.509 -1.6534  1.0174  1.0982
  104OSM    C5S10571   0.483   4.770  10.436 -0.6624  0.3737 -0.1399
  104OSM    H5S10572   0.465   4.664  10.462  0.2317 -0.0574 -1.2029
  104OSM    C6S10573   0.558   4.783  10.305 -0.3418  0.1821 -0.1042
  104OSM    H6S10574   0.629   4.699  10.290 -0.2630  0.5100 -1.6547
  104OSM    H6T10575   0.612   4.879  10.301 -1.1498  0.6518  0.0828
  104OSM    C7S10576   0.458   4.781  10.182 -0.2050 -0.4998 -0.0991
  104OSM    H7S10577   0.399   4.873  10.207  3.3495  1.5641  1.4345
  104OSM    H7T10578   0.386   4.697  10.185 -1.3938  0.5164  1.5142
  104OSM    C8S10579   0.531   4.789  10.047  0.1187  0.1478  0.4336
  104OSM    H8S10580   0.612   4.713  10.041 -0.6725 -0.8219  1.5068
  104OSM    H8T10581   0.595   4.879  10.040  1.9293 -1.1790 -1.6514
  104OSM    C9S10582   0.435   4.778   9.930  0.5726 -0.1682  0.3433
  104OSM    H9S10583   0.354   4.854   9.926 -1.1262 -1.9334 -0.4196
  104OSM    H9T10584   0.384   4.679   9.928  0.2897 -0.0264 -1.1940
  104OSM   C10S10585   0.515   4.778   9.798 -0.4884 -0.2561 -0.2226
  104OSM   H10S10586   0.609   4.721   9.813 -0.8312 -0.6056  0.6894
  104OSM   H10T10587   0.557   4.875   9.767  2.6095 -1.1028  0.9162
  104OSM   C11S10588   0.440   4.709   9.680 -0.2551 -0.4078 -0.3723
  104OSM   H11S10589   0.351   4.769   9.652 -2.0609 -2.1903  1.2660
  104OSM   H11T10590   0.386   4.622   9.724 -0.4886 -0.6970 -1.2120
  104OSM   C12S10591   0.519   4.649   9.567 -0.0086 -0.3354 -0.5877
  104OSM   H12S10592   0.577   4.563   9.606 -0.3296 -0.6888 -0.8801
  104OSM   H12T10593   0.594   4.716   9.521  0.9941 -1.4020 -0.5385
  104OSM   C13S10594   0.425   4.601   9.454 -0.7843  0.4819 -0.0140
  104OSM   H13S10595   0.343   4.556   9.514  1.3907 -1.2330  1.8100
  104OSM   H13T10596   0.477   4.510   9.418  0.4560  0.2851  2.1179
  104OSM   C14S10597   0.388   4.702   9.344  0.0730 -0.0150 -0.1057
  104OSM   H14S10598   0.354   4.792   9.399  2.1654  0.6227  0.2390
  104OSM   H14T10599   0.301   4.661   9.289  1.1421 -1.0831 -1.0445
  104OSM   C15S10600   0.494   4.745   9.244 -0.8115 -0.1238  0.5765
  104OSM   H15S10601   0.586   4.778   9.295 -0.8699  1.0263 -0.0177
  104OSM   H15T10602   0.456   4.842   9.203 -0.1060  0.8420  2.1109
  104OSM   C16S10603   0.513   4.637   9.137 -0.5292  0.8582 -0.4540
  104OSM   H16S10604   0.416   4.600   9.098 -0.7330 -2.8549  2.9677
  104OSM   H16T10605   0.558   4.553   9.194 -1.0646  0.9279  0.0888
  104OSM   C17S10606   0.599   4.677   9.017 -0.3595 -0.7344 -0.9337
  104OSM   H17S10607   0.604   4.595   8.943  1.9357 -0.5856 -1.0287
  104OSM   H17T10608   0.700   4.704   9.056 -0.6973 -1.4517  0.4905
  104OSM   C18S10609   0.532   4.792   8.931 -0.5166 -0.8498 -0.6617
  104OSM   H18S10610   0.446   4.751   8.874 -0.5236  1.3550 -2.3901
  104OSM   H18T10611   0.601   4.812   8.847 -0.1844 -0.4341 -0.2968
  104OSM   H18U10612   0.511   4.887   8.986  2.7835 -1.4131  1.8664
  104OSM    C1F10613   0.064   4.990  10.571 -0.2213 -0.4679  0.3910
  104OSM     OF10614   0.055   5.101  10.621 -0.2126 -0.4098 -0.4867
  104OSM    C2F10615  -0.045   4.933  10.486  0.0315  0.0835 -0.0996
  104OSM    H2F10616  -0.060   4.824  10.502 -3.3237  0.4149 -0.1812
  104OSM    H2G10617  -0.010   4.940  10.380  2.6429 -2.6783  0.4614
  104OSM    C3F10618  -0.190   4.998  10.503 -0.9454 -0.4480  0.2331
  104OSM    H3F10619  -0.175   5.107  10.521  1.0256 -0.9259  1.8666
  104OSM    H3G10620  -0.240   4.968  10.597 -0.6268  0.3728  0.6727
  104OSM    C4F10621  -0.294   4.957  10.400 -0.7224  0.1826  0.0732
  104OSM    H4F10622  -0.395   4.996  10.425 -1.1603 -0.5244 -0.5371
  104OSM    H4G10623  -0.302   4.847  10.393  0.4669  0.2020 -3.0836
  104OSM    C5F10624  -0.251   4.994  10.258 -0.0309 -0.6724 -0.1123
  104OSM    H5F10625  -0.326   4.959  10.184 -1.2529 -1.1767  1.2961
  104OSM    H5G10626  -0.158   4.939  10.231 -0.3678 -1.5678  0.4824
  104OSM    C6F10627  -0.238   5.144  10.234  0.2228 -0.3857  0.0452
  104OSM    H6F10628  -0.150   5.188  10.286 -1.4894 -1.0557  3.8645
  104OSM    H6G10629  -0.329   5.194  10.275  0.3334 -0.2618  0.1392
  104OSM    C7F10630  -0.236   5.174  10.082  0.2850  0.7479 -0.4098
  104OSM    H7F10631  -0.326   5.128  10.035  0.0917 -0.6841  1.2659
  104OSM    H7G10632  -0.145   5.133  10.033 -0.3779 -1.2924 -0.0328
  104OSM    C8F10633  -0.248   5.323  10.050 -0.0397  0.2681 -0.5085
  104OSM    H8F10634  -0.197   5.348   9.955 -0.9440  0.4404 -0.9560
  104OSM    H8G10635  -0.182   5.362  10.131 -0.1133 -1.6013  0.5345
  104OSM    C9F10636  -0.387   5.383  10.043 -0.4611  0.1438 -0.0426
  104OSM    H9F10637  -0.395   5.482  10.092  2.6719  1.4741 -1.9603
  104OSM   C10F10638  -0.475   5.354   9.947 -0.3593 -0.5718  0.1812
  104OSM   H10F10639  -0.571   5.408   9.940  0.4779  0.7846 -1.3333
  104OSM   C11F10640  -0.446   5.267   9.828  0.1970  0.3330  0.1807
  104OSM   H11F10641  -0.540   5.210   9.810  2.0479 -2.7292 -0.5391
  104OSM   H11G10642  -0.369   5.187   9.828 -2.6461 -2.6663 -1.3215
  104OSM   C12F10643  -0.409   5.362   9.718  0.3173  0.4920 -0.1298
  104OSM   H12F10644  -0.319   5.421   9.745 -0.7566  1.3266  1.7666
  104OSM   H12G10645  -0.479   5.446   9.695 -0.4036  0.0308  0.3365
  104OSM   C13F10646  -0.373   5.289   9.584 -0.1422 -0.7260  0.7631
  104OSM   H13F10647  -0.444   5.212   9.546  3.6171 -3.7067 -0.8997
  104OSM   H13G10648  -0.276   5.236   9.596  2.2817  2.9775 -0.5789
  104OSM   C14F10649  -0.353   5.381   9.466  0.3278 -0.5189 -0.2010
  104OSM   H14F10650  -0.285   5.461   9.501 -0.0953 -0.5372  0.6977
  104OSM   H14G10651  -0.446   5.435   9.438  0.0471  0.1360  1.8460
  104OSM   C15F10652  -0.294   5.334   9.334  0.2182 -0.4153 -0.5202
  104OSM   H15F10653  -0.367   5.271   9.280 -0.3550 -0.5195  0.3591
  104OSM   H15G10654  -0.208   5.267   9.356  0.7267  0.9950  2.0868
  104OSM   C16F10655  -0.233   5.456   9.257 -0.5907  0.2188 -0.6911
  104OSM   H16F10656  -0.163   5.517   9.318 -0.9162  0.5964 -0.6917
  104OSM   H16G10657  -0.306   5.537   9.233 -0.6029  0.0290 -1.3099
  104OSM   C17F10658  -0.162   5.417   9.124 -0.0274 -0.2259 -0.7417
  104OSM   H17F10659  -0.064   5.367   9.137 -0.1799 -0.4348 -0.3832
  104OSM   H17G10660  -0.143   5.520   9.087 -0.3022  0.0640 -0.0907
  104OSM   C18F10661  -0.247   5.328   9.029 -0.2966  1.1484  0.3160
  104OSM   H18F10662  -0.270   5.236   9.086 -0.8491  1.7613  1.0936
  104OSM   H18G10663  -0.193   5.307   8.934 -0.7120  0.9326  0.1259
  104OSM   H18H10664  -0.344   5.377   9.008 -1.4437 -1.3251 -0.4405
  105OSM      N10665   6.603   4.568  10.827 -0.4572  0.2248  0.2597
  105OSM    C1510666   6.488   4.604  10.909 -0.6840  0.1444 -0.7432
  105OSM   H15A10667   6.463   4.533  10.986 -0.8726 -0.7568 -1.6174
  105OSM   H15B10668   6.396   4.613  10.853  0.0209  1.5510 -1.7521
  105OSM   H15C10669   6.502   4.698  10.960  0.0311 -1.5671  2.5247
  105OSM    C1410670   6.626   4.686  10.732  0.2902  0.1092  0.4499
  105OSM   H14A10671   6.712   4.684  10.667 -0.2878  2.8280 -0.5348
  105OSM   H14B10672   6.641   4.775  10.791 -1.4139  0.9126 -0.2622
  105OSM   H14C10673   6.532   4.693  10.679  0.9510 -0.1925 -0.7941
  105OSM    C1310674   6.721   4.576  10.921 -0.2187  0.1813  0.0526
  105OSM   H13A10675   6.738   4.677  10.957  1.8701 -0.7280  1.8633
  105OSM   H13B10676   6.816   4.540  10.883  0.8587  0.5368  2.2061
  105OSM   H13C10677   6.691   4.527  11.012 -0.5198  1.1535  0.4945
  105OSM    C1210678   6.591   4.438  10.756 -0.6996 -0.1431 -0.5354
  105OSM   H12A10679   6.499   4.439  10.699 -1.3334  1.5949  0.4618
  105OSM   H12B10680   6.592   4.361  10.831  1.3817  0.2646 -0.0883
  105OSM    C1110681   6.698   4.398  10.646 -0.2421 -0.1442 -0.2190
  105OSM   H11A10682   6.679   4.468  10.561  0.2806  1.8120  1.1917
  105OSM   H11B10683   6.679   4.292  10.620  1.2594 -0.2548 -0.9939
  105OSM      P10684   6.906   4.309  10.787  0.1548 -0.1411  0.0267
  105OSM    O1310685   6.981   4.382  10.890  0.3244 -0.3112 -0.0808
  105OSM    O1410686   6.819   4.207  10.841  0.3725  0.4557  0.4391
  105OSM    O1110687   7.021   4.243  10.696  0.1668  0.2969  0.3574
  105OSM    O1210688   6.836   4.417  10.692  0.4834 -0.7334  0.0043
  105OSM    C1S10689   6.972   4.182  10.574 -0.1527  0.2345 -0.4737
  105OSM    H1S10690   6.905   4.250  10.518  1.0454  0.5634 -1.5194
  105OSM    H1T10691   6.911   4.090  10.591 -0.3701  0.6352  1.1913
  105OSM     NF10692   7.020   4.070  10.350  0.0489  0.0505  0.2810
  105OSM    HNF10693   6.999   3.973  10.357  0.9780 -0.1497  0.4502
  105OSM    C2S10694   7.082   4.121  10.474  0.1331 -0.1297 -0.1809
  105OSM    H2S10695   7.141   4.207  10.436 -1.3779  0.1214 -2.0422
  105OSM    C3S10696   7.160   4.017  10.557  0.3605  0.1198 -0.4244
  105OSM    H3S10697   7.096   3.930  10.582  0.6186  0.2185  0.6215
  105OSM     O310698   7.221   4.060  10.679 -0.0170 -0.3574  0.1487
  105OSM    HO310699   7.194   4.152  10.687 -1.4239 -0.7955  0.9315
  105OSM    C4S10700   7.278   3.964  10.476  0.2353 -0.7725 -0.4517
  105OSM    H4S10701   7.368   4.022  10.500  1.4697 -1.9280 -2.1052
  105OSM    C5S10702   7.277   3.864  10.383 -0.2131 -0.3942  0.4404
  105OSM    H5S10703   7.185   3.814  10.349  0.0800 -1.0522  0.6055
  105OSM    C6S10704   7.396   3.831  10.302  0.1904 -0.2910  0.6302
  105OSM    H6S10705   7.427   3.734  10.347 -3.1619 -0.4000  3.0392
  105OSM    H6T10706   7.478   3.906  10.311  0.7253 -0.5122 -1.7977
  105OSM    C7S10707   7.377   3.815  10.146  1.1130  0.9290 -0.4084
  105OSM    H7S10708   7.308   3.732  10.122  3.5245 -0.9704 -1.2280
  105OSM    H7T10709   7.474   3.796  10.094  0.8157 -0.7778 -0.3857
  105OSM    C8S10710   7.336   3.941  10.072  0.7139 -0.7262  0.0873
  105OSM    H8S10711   7.380   4.034  10.115 -1.1325  0.0238  0.4689
  105OSM    H8T10712   7.225   3.939  10.082  0.8088 -1.7984  0.9924
  105OSM    C9S10713   7.352   3.941   9.916 -0.4533  0.6308  0.6094
  105OSM    H9S10714   7.454   3.981   9.895 -0.2456  0.4312  1.2043
  105OSM    H9T10715   7.282   4.015   9.874 -2.4818 -1.1428  0.7051
  105OSM   C10S10716   7.336   3.814   9.843 -0.7092  0.2587  0.4002
  105OSM   H10S10717   7.232   3.790   9.875 -1.9777  2.0982 -2.0065
  105OSM   H10T10718   7.414   3.742   9.876 -0.1942 -0.5377 -2.2926
  105OSM   C11S10719   7.352   3.828   9.692 -0.2272  0.2750 -0.6553
  105OSM   H11S10720   7.453   3.874   9.677 -1.0073  2.2277 -0.2310
  105OSM   H11T10721   7.277   3.900   9.655 -0.4268  0.6482  0.4406
  105OSM   C12S10722   7.340   3.697   9.618  0.1756  0.6138 -0.2617
  105OSM   H12S10723   7.244   3.643   9.630  0.5274  0.2478  1.1568
  105OSM   H12T10724   7.419   3.632   9.663  0.1349 -0.3381 -1.4951
  105OSM   C13S10725   7.377   3.704   9.466  0.2796 -0.2737 -0.0966
  105OSM   H13S10726   7.396   3.602   9.425  2.4182  0.7261 -1.8039
  105OSM   H13T10727   7.473   3.756   9.447 -0.7795  2.0337  0.5497
  105OSM   C14S10728   7.268   3.763   9.388  0.1311  0.1070 -0.0220
  105OSM   H14S10729   7.234   3.859   9.433  1.3762  1.4562 -1.7804
  105OSM   H14T10730   7.178   3.699   9.386  0.7252 -0.8191  1.5299
  105OSM   C15S10731   7.322   3.796   9.254 -0.7592 -0.6344  0.0212
  105OSM   H15S10732   7.418   3.851   9.257 -0.4831 -0.8617 -2.4917
  105OSM   H15T10733   7.250   3.854   9.191 -0.0409 -0.7360 -0.9220
  105OSM   C16S10734   7.368   3.670   9.171 -0.7276  0.2014 -0.3860
  105OSM   H16S10735   7.300   3.587   9.198 -0.1237 -1.3539 -3.2739
  105OSM   H16T10736   7.472   3.645   9.202 -1.3132  1.2363  2.8930
  105OSM   C17S10737   7.376   3.702   9.023  0.9601 -0.6380  0.0851
  105OSM   H17S10738   7.435   3.627   8.965  2.0961  1.7944 -2.0971
  105OSM   H17T10739   7.427   3.799   9.005 -1.0295  0.7219  1.3565
  105OSM   C18S10740   7.237   3.717   8.961 -0.5186 -0.4504  0.0285
  105OSM   H18S10741   7.204   3.821   8.982  0.7430 -0.3813  1.9060
  105OSM   H18T10742   7.161   3.660   9.019  0.1878 -1.4096  0.0421
  105OSM   H18U10743   7.235   3.704   8.851  1.3936 -2.3751  0.1604
  105OSM    C1F10744   6.964   4.147  10.252  0.2159  0.4469  0.6205
  105OSM     OF10745   6.970   4.266  10.258 -0.1551 -0.2355 -0.5818
  105OSM    C2F10746   6.897   4.072  10.136 -0.4794 -0.1967  0.4986
  105OSM    H2F10747   6.790   4.044  10.152 -0.3781 -0.9390 -0.0283
  105OSM    H2G10748   6.950   3.977  10.114 -1.8635 -0.3832 -2.6525
  105OSM    C3F10749   6.907   4.155  10.007 -1.1563 -0.0086  0.2354
  105OSM    H3F10750   7.007   4.181   9.966 -2.1666  1.3652 -1.5391
  105OSM    H3G10751   6.849   4.247  10.030 -1.5612 -0.7443  2.3232
  105OSM    C4F10752   6.833   4.091   9.891 -0.2777  0.4214  0.3862
  105OSM    H4F10753   6.732   4.069   9.933  0.2820 -1.1611  0.9572
  105OSM    H4G10754   6.870   3.993   9.856 -3.1591 -0.1442 -1.4825
  105OSM    C5F10755   6.837   4.178   9.760 -0.2433 -0.1916 -0.9250
  105OSM    H5F10756   6.938   4.221   9.742  0.5801 -1.5208  0.3099
  105OSM    H5G10757   6.768   4.260   9.789  0.2104 -0.6385  1.6160
  105OSM    C6F10758   6.779   4.104   9.642  0.0499 -0.2448 -0.3553
  105OSM    H6F10759   6.720   4.179   9.584 -0.7104  1.8897  2.8876
  105OSM    H6G10760   6.710   4.025   9.678  0.4786 -0.4460  0.0259
  105OSM    C7F10761   6.880   4.029   9.562  0.2070  0.4965  0.0554
  105OSM    H7F10762   6.888   3.928   9.607  1.6002  0.5711  0.0199
  105OSM    H7G10763   6.980   4.078   9.559  0.9449 -0.9455 -2.1701
  105OSM    C8F10764   6.837   4.007   9.411 -0.2151  0.1907 -0.9320
  105OSM    H8F10765   6.833   4.105   9.358  0.0439 -1.2295 -3.7846
  105OSM    H8G10766   6.738   3.958   9.406 -0.3928 -0.0691  2.6908
  105OSM    C9F10767   6.950   3.942   9.341  0.0644  0.4381  0.5905
  105OSM    H9F10768   7.049   3.947   9.390 -0.2348 -1.6222  1.5049
  105OSM   C10F10769   6.939   3.892   9.212  0.4215 -0.4663 -0.2237
  105OSM   H10F10770   7.034   3.858   9.169  0.6286  0.7321 -0.7502
  105OSM   C11F10771   6.814   3.895   9.127 -0.8297 -0.2931 -0.5607
  105OSM   H11F10772   6.836   3.856   9.025 -0.6739  1.1922 -1.1339
  105OSM   H11G10773   6.792   4.004   9.118 -0.5646 -0.0140  1.5892
  105OSM   C12F10774   6.700   3.799   9.183  0.6671 -0.2670  0.5176
  105OSM   H12F10775   6.703   3.787   9.294  1.2256 -1.7721  0.3517
  105OSM   H12G10776   6.729   3.695   9.159  1.1430  0.1629 -0.8236
  105OSM   C13F10777   6.561   3.829   9.135  0.1373 -0.0359 -0.0831
  105OSM   H13F10778   6.540   3.938   9.131 -2.0739 -0.4327 -0.3974
  105OSM   H13G10779   6.497   3.790   9.216 -1.9145 -1.7430 -2.3785
  105OSM   C14F10780   6.510   3.759   9.012 -0.5541  0.0217 -0.0853
  105OSM   H14F10781   6.483   3.653   9.032 -0.7143 -0.0780 -0.7916
  105OSM   H14G10782   6.594   3.763   8.939 -0.8954 -2.2218 -0.7042
  105OSM   C15F10783   6.384   3.825   8.962 -0.3406  0.0941  0.8885
  105OSM   H15F10784   6.411   3.929   8.932  0.4348 -1.0327 -2.8399
  105OSM   H15G10785   6.309   3.829   9.044 -3.1608 -0.1295 -1.5492
  105OSM   C16F10786   6.316   3.743   8.855 -0.1109  0.0536 -0.1105
  105OSM   H16F10787   6.298   3.640   8.892 -1.6227  0.5108  0.5061
  105OSM   H16G10788   6.381   3.741   8.765 -0.5147  0.3094 -0.4115
  105OSM   C17F10789   6.182   3.809   8.813 -0.3668 -0.1508  0.6064
  105OSM   H17F10790   6.187   3.920   8.810 -0.5881 -0.1583 -0.5521
  105OSM   H17G10791   6.104   3.784   8.889  0.2087 -0.2638  1.1748
  105OSM   C18F10792   6.133   3.769   8.678  1.1798  0.3383  0.0992
  105OSM   H18F10793   6.107   3.661   8.690  2.8641  0.1305  2.6551
  105OSM   H18G10794   6.197   3.793   8.591 -0.7304 -0.7819 -1.7089
  105OSM   H18H10795   6.039   3.819   8.646  1.1858  0.7275  0.6712
  106OSM      N10796   0.930   2.959  10.891  0.5073 -0.5896 -0.3824
  106OSM    C1510797   0.809   2.872  10.942  0.0971 -0.4161 -0.5352
  106OSM   H15A10798   0.732   2.944  10.965  0.1314  0.3000 -2.5296
  106OSM   H15B10799   0.838   2.814  11.029 -0.9053 -0.9861 -0.5698
  106OSM   H15C10800   0.780   2.805  10.863 -0.6053  0.9727 -1.4924
  106OSM    C1410801   0.880   3.033  10.774 -0.0188 -0.1525 -0.2186
  106OSM   H14A10802   0.816   3.118  10.792 -1.0674 -0.3726 -2.5441
  106OSM   H14B10803   0.822   2.955  10.727  0.0920 -0.7779  0.6606
  106OSM   H14C10804   0.966   3.062  10.715 -0.1593  0.7688  0.0226
  106OSM    C1310805   0.976   3.047  10.998  0.3712  0.3924 -0.7796
  106OSM   H13A10806   1.055   3.117  10.975 -0.4662  1.3733 -0.7519
  106OSM   H13B10807   1.007   2.990  11.084  0.4068 -1.2939 -1.8636
  106OSM   H13C10808   0.900   3.110  11.043  0.8969  0.9181 -0.6093
  106OSM    C1210809   1.032   2.855  10.849 -0.1731 -0.0565 -0.2539
  106OSM   H12A10810   1.063   2.796  10.934  1.2470 -0.7826 -1.2380
  106OSM   H12B10811   1.117   2.919  10.830  0.2332 -0.6607 -0.5248
  106OSM    C1110812   1.003   2.755  10.733 -0.4498 -0.0335  0.2274
  106OSM   H11A10813   1.097   2.698  10.716 -0.5417 -0.1554  0.1270
  106OSM   H11B10814   0.988   2.822  10.645 -2.0915  0.0949  0.5747
  106OSM      P10815   0.896   2.548  10.853  0.1759  0.0391 -0.0098
  106OSM    O1310816   0.997   2.585  10.955 -0.8190  1.2701  0.0640
  106OSM    O1410817   0.763   2.510  10.903  0.0771 -0.6765  0.6850
  106OSM    O1110818   0.951   2.435  10.762  0.6054  0.3476 -0.3444
  106OSM    O1210819   0.883   2.669  10.753  0.0011 -0.2396  0.3904
  106OSM    C1S10820   0.893   2.385  10.645  0.1434  0.0841 -0.2819
  106OSM    H1S10821   0.936   2.452  10.568 -0.8598 -0.4889 -1.3848
  106OSM    H1T10822   0.782   2.388  10.654  0.2335 -1.4751  2.0019
  106OSM     NF10823   0.913   2.211  10.471 -0.2493 -0.7862  0.2855
  106OSM    HNF10824   0.818   2.183  10.456 -0.8293  1.3698 -0.3282
  106OSM    C2S10825   0.941   2.241  10.613 -0.2434 -0.0951  0.0510
  106OSM    H2S10826   1.051   2.238  10.626 -0.4332  1.7878  3.7798
  106OSM    C3S10827   0.886   2.145  10.718 -0.2234  0.2035  0.0079
  106OSM    H3S10828   0.776   2.132  10.711 -0.2229 -0.2483  0.7388
  106OSM     O310829   0.915   2.180  10.853  0.7641  0.4282  0.6174
  106OSM    HO310830   0.968   2.257  10.832 -0.4157  0.9192 -0.7445
  106OSM    C4S10831   0.938   2.012  10.681 -1.5772  0.0249  0.1969
  106OSM    H4S10832   0.863   1.950  10.630 -0.0975 -0.5859 -1.3675
  106OSM    C5S10833   1.063   1.953  10.705  1.0735  0.3830 -0.8029
  106OSM    H5S10834   1.133   2.011  10.767 -1.4180  2.1602  0.5205
  106OSM    C6S10835   1.106   1.818  10.665 -0.7977  0.2271 -0.0715
  106OSM    H6S10836   1.016   1.755  10.647 -0.4751 -0.3992  0.4611
  106OSM    H6T10837   1.147   1.763  10.753 -1.1540 -2.1389 -1.3062
  106OSM    C7S10838   1.199   1.802  10.543 -0.3708  0.1828  0.0475
  106OSM    H7S10839   1.221   1.693  10.534  0.0649  0.3960 -1.8268
  106OSM    H7T10840   1.293   1.857  10.561 -0.7918  0.7427  0.5944
  106OSM    C8S10841   1.134   1.855  10.414 -0.1461 -0.6020 -0.0890
  106OSM    H8S10842   1.127   1.966  10.419  0.0582 -0.6176  0.5914
  106OSM    H8T10843   1.028   1.824  10.414 -0.6388  0.8199  2.4496
  106OSM    C9S10844   1.205   1.816  10.285 -0.7183  0.0766  0.3066
  106OSM    H9S10845   1.224   1.708  10.268  3.2150  1.0594 -3.0131
  106OSM    H9T10846   1.307   1.858  10.276 -0.1036 -1.3527  0.3475
  106OSM   C10S10847   1.134   1.876  10.156 -0.1034  0.1918  0.6798
  106OSM   H10S10848   1.134   1.987  10.164  1.4394  0.1829  0.9974
  106OSM   H10T10849   1.027   1.845  10.148 -0.0859  0.4836 -0.9455
  106OSM   C11S10850   1.197   1.830  10.029 -0.2365 -0.0620  0.7110
  106OSM   H11S10851   1.195   1.719  10.034  1.0239 -0.0796  1.1789
  106OSM   H11T10852   1.305   1.855  10.022 -0.7628  2.2219 -0.0038
  106OSM   C12S10853   1.121   1.876   9.899 -0.3791 -0.1711 -0.3743
  106OSM   H12S10854   1.140   1.985   9.897  1.7499 -0.4324  1.3596
  106OSM   H12T10855   1.014   1.847   9.911 -0.7428  1.8328  2.3025
  106OSM   C13S10856   1.176   1.808   9.775 -0.4970  0.2233 -0.1943
  106OSM   H13S10857   1.157   1.700   9.791 -0.9859 -0.0190 -2.1294
  106OSM   H13T10858   1.285   1.824   9.762 -0.4302  0.2389  0.3850
  106OSM   C14S10859   1.119   1.843   9.640  0.7169  0.0903  0.4863
  106OSM   H14S10860   1.017   1.805   9.618  2.5722 -3.0595 -4.1160
  106OSM   H14T10861   1.183   1.790   9.566  1.0841  0.2551  0.6830
  106OSM   C15S10862   1.115   1.995   9.608 -0.3207  0.2333 -0.2523
  106OSM   H15S10863   1.200   2.051   9.655 -1.4016 -0.0776  2.2398
  106OSM   H15T10864   1.020   2.027   9.654 -0.6017 -0.8936 -0.0092
  106OSM   C16S10865   1.102   2.038   9.467  0.5031  0.3411  0.3245
  106OSM   H16S10866   1.012   1.991   9.422 -1.0425  1.9179  1.5907
  106OSM   H16T10867   1.192   2.022   9.405  0.5798 -1.3610  0.8288
  106OSM   C17S10868   1.069   2.184   9.465 -0.2908  0.2237 -0.1562
  106OSM   H17S10869   1.153   2.242   9.510 -0.3605  1.4783 -1.5832
  106OSM   H17T10870   0.981   2.211   9.527  0.3103  2.5879 -0.2447
  106OSM   C18S10871   1.042   2.235   9.319  0.1808 -0.0524  0.3233
  106OSM   H18S10872   1.136   2.267   9.270 -0.3371 -1.4932 -1.7405
  106OSM   H18T10873   0.973   2.322   9.322 -0.5496 -0.5948 -0.2289
  106OSM   H18U10874   0.991   2.151   9.266 -1.1545  0.9202  0.0056
  106OSM    C1F10875   0.993   2.232  10.368 -0.2620 -0.4519 -0.1887
  106OSM     OF10876   1.112   2.265  10.386  0.0903 -0.5246 -0.2743
  106OSM    C2F10877   0.924   2.226  10.234 -0.1824  0.5717 -0.0663
  106OSM    H2F10878   0.840   2.299  10.227 -1.6328 -1.0491 -0.1281
  106OSM    H2G10879   0.881   2.125  10.221  1.8687 -0.6572  1.9372
  106OSM    C3F10880   1.012   2.275  10.112  0.3537 -0.3399  0.2692
  106OSM    H3F10881   1.100   2.208  10.107 -0.8478 -1.9579  0.2348
  106OSM    H3G10882   1.041   2.382  10.121  0.0721 -0.3181  0.9370
  106OSM    C4F10883   0.936   2.259   9.975 -0.0397 -0.9832 -0.2671
  106OSM    H4F10884   0.853   2.332   9.982 -0.0293 -1.0984  1.7843
  106OSM    H4G10885   0.892   2.157   9.979 -3.4526  0.3929  1.7737
  106OSM    C5F10886   1.014   2.291   9.847  0.2091  0.4244 -0.1135
  106OSM    H5F10887   0.959   2.259   9.756 -0.5117 -1.6026  0.9539
  106OSM    H5G10888   1.114   2.243   9.852  0.4170  0.9610  3.2837
  106OSM    C6F10889   1.039   2.448   9.836 -0.6042  0.0014  0.4401
  106OSM    H6F10890   1.115   2.468   9.757 -0.0297  0.7693  1.1679
  106OSM    H6G10891   1.076   2.498   9.928 -1.4982 -0.1021  0.8582
  106OSM    C7F10892   0.916   2.530   9.797  0.2212 -0.0768 -0.3351
  106OSM    H7F10893   0.857   2.568   9.883  0.5156  2.1459 -1.0603
  106OSM    H7G10894   0.853   2.475   9.725  0.2029  3.4420 -3.2924
  106OSM    C8F10895   0.956   2.643   9.703 -0.4913  0.1911  0.4019
  106OSM    H8F10896   1.007   2.606   9.612 -0.1276 -0.4709  0.8622
  106OSM    H8G10897   1.037   2.700   9.753 -0.0361 -0.9170  0.9701
  106OSM    C9F10898   0.840   2.732   9.673 -0.2986  0.4902 -0.3787
  106OSM    H9F10899   0.789   2.766   9.765  2.9246  3.4830  0.5088
  106OSM   C10F10900   0.802   2.770   9.555 -0.0294  0.4287  0.2761
  106OSM   H10F10901   0.704   2.818   9.540  1.3505  2.6069 -2.7635
  106OSM   C11F10902   0.865   2.738   9.420  0.2227  0.2692 -0.5294
  106OSM   H11F10903   0.786   2.772   9.351 -0.8476 -0.2591  0.4001
  106OSM   H11G10904   0.899   2.633   9.407 -0.4369 -0.1763  1.0333
  106OSM   C12F10905   0.989   2.825   9.384 -0.3763  0.1239  0.2185
  106OSM   H12F10906   1.065   2.808   9.464 -0.2215  0.6612  0.1904
  106OSM   H12G10907   0.963   2.932   9.383  1.1091  0.5050 -0.3440
  106OSM   C13F10908   1.063   2.789   9.252 -0.5840 -0.4157 -0.6597
  106OSM   H13F10909   1.125   2.697   9.264 -0.3175 -0.2208 -0.5243
  106OSM   H13G10910   1.134   2.869   9.219 -1.5816  1.3249  1.2433
  106OSM   C14F10911   0.980   2.754   9.128  0.0422  0.2147  0.0083
  106OSM   H14F10912   0.910   2.837   9.103 -2.6707 -2.5726 -2.4884
  106OSM   H14G10913   0.914   2.670   9.157  0.4217 -0.0088  0.2373
  106OSM   C15F10914   1.069   2.730   9.009 -0.0853  0.6901 -0.2160
  106OSM   H15F10915   1.132   2.643   9.036  0.4827  0.7628 -1.2523
  106OSM   H15G10916   1.139   2.816   8.997 -2.0937  2.3952 -0.3912
  106OSM   C16F10917   0.994   2.702   8.878  0.2172  0.5263  0.2316
  106OSM   H16F10918   0.925   2.787   8.860  0.1833  0.2599 -0.9479
  106OSM   H16G10919   0.941   2.605   8.894  1.9332 -0.6614 -0.9688
  106OSM   C17F10920   1.098   2.662   8.774 -0.2066 -0.2673 -0.1650
  106OSM   H17F10921   1.159   2.579   8.814  0.4733  1.6876  3.2239
  106OSM   H17G10922   1.163   2.751   8.758 -0.9473  0.5074  0.9768
  106OSM   C18F10923   1.035   2.622   8.643  0.2658  0.2355 -0.2003
  106OSM   H18F10924   1.118   2.585   8.580 -1.1026 -1.0386 -1.3462
  106OSM   H18G10925   0.985   2.703   8.585 -0.2979  0.5604  0.7083
  106OSM   H18H10926   0.956   2.548   8.669 -1.1475  1.9172  0.5302
  107OSM      N10927   1.194   0.637  11.004  0.5733  0.1040 -0.4553
  107OSM    C1510928   1.100   0.678  11.119 -0.0280 -0.6391 -0.5673
  107OSM   H15A10929   1.102   0.601  11.195 -1.1193  1.8410  2.1513
  107OSM   H15B10930   0.999   0.680  11.081 -0.1164 -0.0643 -0.3018
  107OSM   H15C10931   1.123   0.773  11.163 -1.3954 -1.0647  1.1891
  107OSM    C1410932   1.165   0.712  10.879 -0.1503  0.4967  0.3802
  107OSM   H14A10933   1.179   0.818  10.892 -1.7762  0.6845  0.8616
  107OSM   H14B10934   1.061   0.698  10.853 -0.4513  2.5997  0.2636
  107OSM   H14C10935   1.222   0.685  10.791 -0.9551 -1.6317  0.4648
  107OSM    C1310936   1.338   0.676  11.035 -0.8881 -0.5422  0.5026
  107OSM   H13A10937   1.378   0.628  11.124 -0.2179  2.2239  1.7970
  107OSM   H13B10938   1.346   0.783  11.046  0.1955 -0.1264 -3.2257
  107OSM   H13C10939   1.412   0.651  10.961  1.1588 -0.9738  2.5422
  107OSM    C1210940   1.190   0.487  10.983 -0.0518  0.8028 -0.1838
  107OSM   H12A10941   1.195   0.433  11.076 -2.3493 -0.6952 -0.8424
  107OSM   H12B10942   1.278   0.455  10.930  1.0199 -1.4823  2.7454
  107OSM    C1110943   1.067   0.423  10.910 -0.0489  0.1138 -0.0363
  107OSM   H11A10944   1.090   0.318  10.882  0.8473  0.6479 -1.3784
  107OSM   H11B10945   1.070   0.465  10.807  0.7649 -1.4305 -0.6630
  107OSM      P10946   0.854   0.338  11.046  0.1648 -0.6209 -0.1345
  107OSM    O1310947   0.931   0.258  11.145 -0.1403  0.3584  0.6509
  107OSM    O1410948   0.737   0.404  11.091  0.2290 -0.3449 -0.8222
  107OSM    O1110949   0.824   0.265  10.910  0.0976  0.1471  0.3496
  107OSM    O1210950   0.948   0.447  10.983  0.0112  0.0780 -0.8299
  107OSM    C1S10951   0.768   0.330  10.796 -0.3884 -0.4158 -0.5157
  107OSM    H1S10952   0.814   0.429  10.777 -1.7542 -0.0016 -1.8397
  107OSM    H1T10953   0.664   0.355  10.824  0.2710  3.0255 -0.6983
  107OSM     NF10954   0.741   0.313  10.542 -0.1410  0.7569 -0.2635
  107OSM    HNF10955   0.649   0.300  10.506  0.2364  0.0585 -0.9818
  107OSM    C2S10956   0.784   0.240  10.668  0.9149 -0.3997 -0.4618
  107OSM    H2S10957   0.894   0.225  10.666  1.1462  0.7566  1.2003
  107OSM    C3S10958   0.710   0.103  10.685 -0.3237 -0.2347 -0.4207
  107OSM    H3S10959   0.601   0.122  10.670 -0.2096 -0.4816 -1.6759
  107OSM     O310960   0.724   0.045  10.815 -0.7221 -0.2422  0.2108
  107OSM    HO310961   0.767   0.115  10.865  2.0316 -1.3446 -0.3808
  107OSM    C4S10962   0.749   0.007  10.576  0.2193  0.1591  0.2486
  107OSM    H4S10963   0.686   0.007  10.486  0.3913 -0.3847  0.1184
  107OSM    C5S10964   0.857  -0.084  10.579 -0.2446 -0.5200 -0.6248
  107OSM    H5S10965   0.913  -0.091  10.674 -1.0547  1.2570  0.0495
  107OSM    C6S10966   0.897  -0.172  10.468  0.2632  0.1684  0.8277
  107OSM    H6S10967   0.924  -0.276  10.499  0.5586  0.1432  0.4909
  107OSM    H6T10968   0.985  -0.121  10.424 -0.3283 -0.5632 -1.3118
  107OSM    C7S10969   0.809  -0.181  10.343  0.0290 -0.4637 -0.1793
  107OSM    H7S10970   0.799  -0.082  10.294 -0.0785 -1.2553 -1.8144
  107OSM    H7T10971   0.710  -0.217  10.379  0.0262  0.5852  0.9438
  107OSM    C8S10972   0.871  -0.274  10.241 -0.0745 -0.6896 -0.1441
  107OSM    H8S10973   0.883  -0.374  10.288 -1.2755 -0.8655 -0.1636
  107OSM    H8T10974   0.973  -0.238  10.217 -1.2130  0.3209 -4.2318
  107OSM    C9S10975   0.788  -0.287  10.113  0.1359 -0.0523 -0.3436
  107OSM    H9S10976   0.729  -0.196  10.095 -2.0212 -1.5070 -0.9546
  107OSM    H9T10977   0.722  -0.372  10.142  2.9045 -1.5851  2.0562
  107OSM   C10S10978   0.866  -0.328   9.992 -0.1539 -0.2770  0.2394
  107OSM   H10S10979   0.934  -0.415   9.999  2.7219  1.4738 -2.8052
  107OSM   H10T10980   0.931  -0.245   9.955 -0.2214 -1.4776 -2.8940
  107OSM   C11S10981   0.772  -0.341   9.872 -0.4634 -0.3350 -0.0420
  107OSM   H11S10982   0.732  -0.238   9.859 -0.9893 -0.2747  1.8089
  107OSM   H11T10983   0.687  -0.406   9.901 -0.4776  0.1621  1.0614
  107OSM   C12S10984   0.852  -0.385   9.745  0.1786 -0.1706 -0.5496
  107OSM   H12S10985   0.869  -0.495   9.745  0.8779 -0.0723 -1.4032
  107OSM   H12T10986   0.942  -0.320   9.737 -0.1717  0.8490  2.4859
  107OSM   C13S10987   0.764  -0.370   9.619 -0.1282 -0.0997  0.7109
  107OSM   H13S10988   0.743  -0.264   9.591  0.2864 -0.3212 -0.4689
  107OSM   H13T10989   0.665  -0.416   9.638 -0.3674  0.9147  2.1104
  107OSM   C14S10990   0.826  -0.456   9.503 -0.0308  0.2699  0.0944
  107OSM   H14S10991   0.835  -0.561   9.539  0.5831  1.2694  3.2135
  107OSM   H14T10992   0.929  -0.418   9.483  0.1620 -0.1109  0.3355
  107OSM   C15S10993   0.754  -0.457   9.370 -0.7919 -0.0658  0.0211
  107OSM   H15S10994   0.815  -0.397   9.298 -1.4320 -0.8348 -1.1994
  107OSM   H15T10995   0.659  -0.404   9.390 -0.9692 -0.2742 -0.2642
  107OSM   C16S10996   0.725  -0.598   9.314 -0.3045 -0.0972  0.5982
  107OSM   H16S10997   0.627  -0.638   9.347 -0.1379  0.7253  2.2166
  107OSM   H16T10998   0.800  -0.676   9.338  0.3266 -0.0027 -0.9804
  107OSM   C17S10999   0.720  -0.593   9.162  0.0097  0.1198  0.7461
  107OSM   H17S11000   0.818  -0.560   9.122 -0.3684  0.2072 -0.1486
  107OSM   H17T11001   0.652  -0.506   9.144  2.0199  1.7915  0.8387
  107OSM   C18S11002   0.667  -0.723   9.093  0.0056  0.1194  0.3469
  107OSM   H18S11003   0.665  -0.713   8.983  1.3040 -2.8503 -0.0190
  107OSM   H18T11004   0.576  -0.764   9.142  0.6996 -0.5950  1.0666
  107OSM   H18U11005   0.743  -0.803   9.101 -0.0914 -0.5566 -3.7000
  107OSM    C1F11006   0.810   0.407  10.489 -0.0345 -0.7827  0.5579
  107OSM     OF11007   0.905   0.456  10.551  0.1897 -0.3373 -0.0700
  107OSM    C2F11008   0.751   0.461  10.365  0.1794  0.2818  0.2126
  107OSM    H2F11009   0.666   0.526  10.392  1.3944  1.5392  1.1306
  107OSM    H2G11010   0.719   0.380  10.295  0.1552  0.3994  0.0871
  107OSM    C3F11011   0.842   0.566  10.291 -0.2813  0.1337  0.1256
  107OSM    H3F11012   0.938   0.518  10.261 -0.0508 -0.7670  2.1695
  107OSM    H3G11013   0.854   0.646  10.368 -0.3618 -0.0400  0.3170
  107OSM    C4F11014   0.770   0.629  10.170  0.2789  0.5310 -0.4844
  107OSM    H4F11015   0.803   0.734  10.154 -0.5098  0.9191  0.3898
  107OSM    H4G11016   0.660   0.632  10.179  0.3915  1.1604  0.9141
  107OSM    C5F11017   0.810   0.562  10.042 -0.3128  0.2418 -0.7515
  107OSM    H5F11018   0.758   0.463  10.045  1.4979 -0.7252  0.1934
  107OSM    H5G11019   0.920   0.549  10.043 -0.1461  1.5183  0.5849
  107OSM    C6F11020   0.755   0.638   9.917  0.3961 -0.4525 -0.0712
  107OSM    H6F11021   0.808   0.735   9.907 -0.2649 -0.2613 -2.4446
  107OSM    H6G11022   0.645   0.650   9.922  0.4731 -0.0372  0.7163
  107OSM    C7F11023   0.779   0.564   9.778 -0.2018 -0.6310  0.4004
  107OSM    H7F11024   0.701   0.486   9.762 -1.2459  0.0072  2.0601
  107OSM    H7G11025   0.880   0.523   9.795  0.9557  2.1546  0.7709
  107OSM    C8F11026   0.779   0.667   9.659  0.1808  0.1555  0.3064
  107OSM    H8F11027   0.803   0.767   9.701  1.0977  0.3686 -0.6754
  107OSM    H8G11028   0.677   0.650   9.618  0.6199 -1.1453 -0.2851
  107OSM    C9F11029   0.883   0.629   9.556  0.2464 -0.3115  0.2805
  107OSM    H9F11030   0.973   0.689   9.575  0.3814  0.3213 -2.1006
  107OSM   C10F11031   0.879   0.541   9.457 -0.0490  0.0774  0.1775
  107OSM   H10F11032   0.968   0.534   9.393  0.4138  2.8014  0.4274
  107OSM   C11F11033   0.755   0.460   9.418  0.3542 -0.3054 -0.6571
  107OSM   H11F11034   0.669   0.468   9.488 -1.4432 -1.3506 -2.6274
  107OSM   H11G11035   0.781   0.352   9.427 -1.2374 -0.5578  2.6981
  107OSM   C12F11036   0.694   0.490   9.279 -0.1839  0.2368 -0.4773
  107OSM   H12F11037   0.605   0.427   9.257  0.5825 -0.2801 -2.2340
  107OSM   H12G11038   0.771   0.467   9.203 -1.0322  0.1095 -1.3176
  107OSM   C13F11039   0.649   0.640   9.276  0.2723 -0.6624  0.5821
  107OSM   H13F11040   0.738   0.705   9.293  1.2861 -1.8539  0.0801
  107OSM   H13G11041   0.576   0.661   9.357  0.9224  0.2294  0.9570
  107OSM   C14F11042   0.594   0.697   9.140  0.3505  0.8080 -0.4784
  107OSM   H14F11043   0.504   0.637   9.118  1.3226 -1.4542  1.3790
  107OSM   H14G11044   0.669   0.668   9.063 -1.6748 -3.2912 -1.1470
  107OSM   C15F11045   0.584   0.849   9.137  0.1645 -0.5847 -0.0675
  107OSM   H15F11046   0.661   0.881   9.209  0.9696 -1.5815 -0.4548
  107OSM   H15G11047   0.489   0.893   9.175 -1.0269 -1.6314 -1.6696
  107OSM   C16F11048   0.610   0.900   9.005  0.1441 -0.3019  0.5816
  107OSM   H16F11049   0.527   0.874   8.936 -0.9517  0.9593  1.3920
  107OSM   H16G11050   0.700   0.861   8.951  1.2104  2.6271  0.0798
  107OSM   C17F11051   0.630   1.045   8.999  0.5978 -0.0402  0.2234
  107OSM   H17F11052   0.561   1.094   9.071  0.7400  2.9447 -1.4997
  107OSM   H17G11053   0.601   1.078   8.896 -0.3040 -0.7610  0.2325
  107OSM   C18F11054   0.771   1.094   9.024  0.6435  0.6206 -0.0403
  107OSM   H18F11055   0.795   1.071   9.130  2.2329  0.4737 -0.4078
  107OSM   H18G11056   0.773   1.201   8.996  0.5328  0.3554 -1.1170
  107OSM   H18H11057   0.845   1.040   8.961  2.0265 -0.6641  2.5603
  108OSM      N11058   6.112   3.643  11.330  0.5242 -0.2731  1.0071
  108OSM    C1511059   6.045   3.747  11.422  0.0850  0.0287 -0.8158
  108OSM   H15A11060   6.089   3.740  11.521  0.7107 -0.3809 -1.1160
  108OSM   H15B11061   5.939   3.741  11.440  0.3964 -2.1402  0.6215
  108OSM   H15C11062   6.079   3.845  11.390  0.6176 -0.2746 -1.2063
  108OSM    C1411063   6.257   3.670  11.336 -0.2737  0.2164  0.3154
  108OSM   H14A11064   6.311   3.595  11.281 -1.8510  0.2544 -1.3787
  108OSM   H14B11065   6.298   3.679  11.436  3.2236  1.0295 -1.0721
  108OSM   H14C11066   6.279   3.767  11.296  1.3830 -0.8330 -1.4554
  108OSM    C1311067   6.085   3.512  11.387 -0.2967 -0.2656  0.4699
  108OSM   H13A11068   6.112   3.436  11.314 -0.5171  1.2183 -1.2312
  108OSM   H13B11069   5.983   3.490  11.413 -0.0812 -1.1147  0.6419
  108OSM   H13C11070   6.135   3.513  11.483 -0.3808  2.0123  0.5452
  108OSM    C1211071   6.049   3.660  11.193  0.2277 -0.2436  0.4506
  108OSM   H12A11072   5.945   3.634  11.203  0.4912 -0.9344  1.6170
  108OSM   H12B11073   6.104   3.591  11.130 -0.0320 -0.3981  0.3903
  108OSM    C1111074   6.057   3.800  11.126 -0.0784 -0.2028 -0.3246
  108OSM   H11A11075   6.014   3.871  11.201 -0.3886 -0.8632  0.1346
  108OSM   H11B11076   5.986   3.799  11.041 -0.8362  1.7142  0.2320
  108OSM      P11077   6.272   3.965  11.111  0.0021 -0.1171  0.2309
  108OSM    O1311078   6.255   4.015  11.249  1.2759 -0.1870  0.0468
  108OSM    O1411079   6.407   3.939  11.062  0.3467  0.2957 -0.2146
  108OSM    O1111080   6.199   4.064  11.019 -0.8006 -0.1641 -0.0182
  108OSM    O1211081   6.189   3.832  11.089 -0.1000 -0.5006  0.5567
  108OSM    C1S11082   6.185   4.060  10.878  0.1089 -0.7045 -0.5078
  108OSM    H1S11083   6.273   4.009  10.833  1.6314  1.3066  0.0495
  108OSM    H1T11084   6.198   4.165  10.844  2.7713 -1.4149 -1.9857
  108OSM     NF11085   6.041   4.011  10.674 -0.3769 -0.1699 -0.6134
  108OSM    HNF11086   5.967   4.065  10.634  0.4885  0.4845 -1.3894
  108OSM    C2S11087   6.047   4.005  10.821 -0.3758 -0.3133  0.2151
  108OSM    H2S11088   6.030   3.902  10.860 -2.6786  0.8281  2.5554
  108OSM    C3S11089   5.922   4.073  10.884 -0.4709 -0.2931 -0.9388
  108OSM    H3S11090   5.912   4.180  10.855 -1.2544  0.6644  2.4368
  108OSM     O311091   5.918   4.065  11.027  0.0889 -0.4813  0.7742
  108OSM    HO311092   6.011   4.075  11.047 -0.0696  0.6522  1.0449
  108OSM    C4S11093   5.791   4.009  10.837  0.9409 -0.7458 -0.1764
  108OSM    H4S11094   5.765   4.040  10.735  0.3870 -1.1723 -0.1677
  108OSM    C5S11095   5.698   3.925  10.892  0.8780 -0.2693 -1.0795
  108OSM    H5S11096   5.704   3.888  10.996  0.6880  0.6241 -0.7405
  108OSM    C6S11097   5.570   3.897  10.812 -0.1751 -0.6891 -0.0029
  108OSM    H6S11098   5.485   3.940  10.871  0.0301 -2.6189  1.8342
  108OSM    H6T11099   5.564   3.786  10.818 -1.5858 -0.6516 -0.3466
  108OSM    C7S11100   5.556   3.946  10.668  1.0180 -0.1946 -0.5506
  108OSM    H7S11101   5.644   3.899  10.619  0.2464 -2.5866  0.2097
  108OSM    H7T11102   5.567   4.056  10.661  0.5793 -0.2062 -1.5427
  108OSM    C8S11103   5.421   3.915  10.610 -0.0674 -0.3589 -0.6408
  108OSM    H8S11104   5.347   3.996  10.624  1.2667  0.7759  0.0600
  108OSM    H8T11105   5.382   3.829  10.669 -0.4223  0.1417 -0.1275
  108OSM    C9S11106   5.424   3.871  10.459  0.1640 -0.0493 -1.3133
  108OSM    H9S11107   5.324   3.840  10.424 -1.0747  2.1803  0.0494
  108OSM    H9T11108   5.489   3.781  10.469 -0.9483 -0.5955  3.2562
  108OSM   C10S11109   5.482   3.977  10.363  0.6974  0.3556  0.5957
  108OSM   H10S11110   5.536   4.047  10.430  0.9279  1.5502 -0.7900
  108OSM   H10T11111   5.398   4.038  10.323  1.0213  1.1431  1.0775
  108OSM   C11S11112   5.574   3.927  10.255  0.2200  0.8733  0.5465
  108OSM   H11S11113   5.645   3.856  10.302  1.0349  1.5837  0.4192
  108OSM   H11T11114   5.646   4.007  10.225  1.4951  0.5069  2.4434
  108OSM   C12S11115   5.506   3.869  10.132  0.3807 -1.1184  0.6860
  108OSM   H12S11116   5.416   3.823  10.178 -0.3826  0.6855  1.0750
  108OSM   H12T11117   5.573   3.797  10.082  0.4352  0.4934 -1.7139
  108OSM   C13S11118   5.466   3.977  10.032  0.2889  0.1450 -0.6652
  108OSM   H13S11119   5.559   4.022   9.992 -0.8525  0.9301 -2.5873
  108OSM   H13T11120   5.393   4.047  10.079 -0.7042 -0.6885 -0.9276
  108OSM   C14S11121   5.395   3.917   9.913 -0.1956  0.2176 -0.4506
  108OSM   H14S11122   5.287   3.903   9.936 -0.1958  0.0739 -0.5388
  108OSM   H14T11123   5.441   3.817   9.895  0.7114  0.6355 -0.5208
  108OSM   C15S11124   5.403   4.007   9.792  0.3858  0.0571  0.3491
  108OSM   H15S11125   5.506   4.045   9.777  0.2217  1.1096  1.6591
  108OSM   H15T11126   5.338   4.093   9.817 -1.5328 -1.1858 -0.1708
  108OSM   C16S11127   5.353   3.949   9.659 -0.1603 -0.0930  0.4359
  108OSM   H16S11128   5.389   4.026   9.587  1.7853  0.1416  1.5879
  108OSM   H16T11129   5.243   3.936   9.659 -0.3625  1.2286  2.0519
  108OSM   C17S11130   5.421   3.819   9.629  0.4039 -0.2717  0.0267
  108OSM   H17S11131   5.381   3.747   9.704  1.2988 -1.2662 -0.4185
  108OSM   H17T11132   5.531   3.824   9.644  0.1050 -0.8636  3.0853
  108OSM   C18S11133   5.392   3.777   9.482  0.7129  0.6960 -0.5052
  108OSM   H18S11134   5.380   3.875   9.429  1.2727  1.4147  0.6601
  108OSM   H18T11135   5.301   3.715   9.482 -0.1425  1.8144  1.8120
  108OSM   H18U11136   5.481   3.718   9.450  0.2282  0.7199 -1.9838
  108OSM    C1F11137   6.118   3.929  10.594 -0.1214 -0.3344 -0.1390
  108OSM     OF11138   6.205   3.857  10.645 -0.1415 -0.2505  0.6612
  108OSM    C2F11139   6.103   3.931  10.446 -0.5085  0.4335  0.8267
  108OSM    H2F11140   6.184   3.996  10.407 -1.3115  1.8943  1.5420
  108OSM    H2G11141   6.007   3.984  10.426 -1.1883 -1.2030 -0.4885
  108OSM    C3F11142   6.121   3.791  10.382 -0.8564 -0.4039  0.1536
  108OSM    H3F11143   6.049   3.718  10.426 -0.9942 -0.7067 -0.5598
  108OSM    H3G11144   6.227   3.766  10.402  0.2518  2.6234 -1.3784
  108OSM    C4F11145   6.105   3.790  10.234  0.1798 -0.1137  0.8851
  108OSM    H4F11146   6.095   3.683  10.206  4.7366 -0.9998  1.8365
  108OSM    H4G11147   6.193   3.830  10.180  0.9359  0.6037  2.5773
  108OSM    C5F11148   5.981   3.864  10.185 -0.1963 -0.4112 -0.1603
  108OSM    H5F11149   5.996   3.974  10.195 -1.9606 -0.1986  0.5195
  108OSM    H5G11150   5.900   3.834  10.255 -0.1467  0.1390  0.1357
  108OSM    C6F11151   5.943   3.817  10.043 -0.8980 -0.9446  0.0289
  108OSM    H6F11152   5.834   3.837  10.030 -1.1213 -1.7820  0.5059
  108OSM    H6G11153   5.969   3.709  10.030  2.6598  0.0199 -2.0300
  108OSM    C7F11154   6.036   3.891   9.944  0.5838  0.1672 -0.2082
  108OSM    H7F11155   6.139   3.850   9.952  0.8431  0.3418 -2.2796
  108OSM    H7G11156   6.032   4.000   9.962 -0.0778  0.3571 -1.4097
  108OSM    C8F11157   6.003   3.868   9.795  0.0909 -0.0997  0.3996
  108OSM    H8F11158   5.995   3.758   9.779 -2.2338  0.1536 -0.6493
  108OSM    H8G11159   6.084   3.904   9.728 -0.1650 -2.2132 -1.1665
  108OSM    C9F11160   5.866   3.939   9.780  0.5500  0.1046  0.3809
  108OSM    H9F11161   5.823   3.988   9.868 -1.6393 -1.0702  0.0386
  108OSM   C10F11162   5.794   3.948   9.661 -0.3594  0.5682 -0.3454
  108OSM   H10F11163   5.695   3.996   9.660 -0.6876 -0.1093 -0.8294
  108OSM   C11F11164   5.830   3.896   9.529 -0.1073  0.4534 -0.3574
  108OSM   H11F11165   5.749   3.838   9.480  1.3340 -0.6582 -1.5368
  108OSM   H11G11166   5.909   3.818   9.531 -1.4459 -0.9981  2.8579
  108OSM   C12F11167   5.864   4.006   9.421  0.4844  0.3764  0.3679
  108OSM   H12F11168   5.926   3.952   9.346  1.5107  2.2055 -0.1754
  108OSM   H12G11169   5.920   4.091   9.466 -0.2588  0.5655  0.9456
  108OSM   C13F11170   5.745   4.065   9.348  0.3785  0.4431 -0.0297
  108OSM   H13F11171   5.674   4.089   9.430  1.7195  0.4696  1.1369
  108OSM   H13G11172   5.700   3.990   9.279  0.1979 -0.7066  1.2890
  108OSM   C14F11173   5.776   4.198   9.272  0.3837  0.4189  0.5399
  108OSM   H14F11174   5.801   4.274   9.349 -0.6294  0.9437  0.3764
  108OSM   H14G11175   5.683   4.240   9.227 -0.5005 -1.2451  0.7294
  108OSM   C15F11176   5.891   4.194   9.167 -0.3653  0.2812 -1.0245
  108OSM   H15F11177   5.866   4.108   9.102 -1.4262 -0.9349  0.8818
  108OSM   H15G11178   5.989   4.173   9.217 -0.7054  2.0206  0.4791
  108OSM   C16F11179   5.911   4.330   9.096  0.2164  0.5298  0.1982
  108OSM   H16F11180   5.819   4.364   9.044  0.2758 -0.6792 -0.7448
  108OSM   H16G11181   5.990   4.316   9.020  1.1357 -1.6578  1.4490
  108OSM   C17F11182   5.960   4.439   9.183  0.3057  0.3567 -0.0127
  108OSM   H17F11183   6.049   4.406   9.240 -0.5674  1.9418  2.4194
  108OSM   H17G11184   5.883   4.470   9.257  0.1276  0.3826 -0.2058
  108OSM   C18F11185   6.015   4.554   9.102  0.4381 -0.2578 -0.3721
  108OSM   H18F11186   6.082   4.513   9.024  1.3169  1.1267 -0.3820
  108OSM   H18G11187   6.075   4.623   9.165 -0.4115  0.8388 -0.7337
  108OSM   H18H11188   5.935   4.613   9.052  1.0314  0.5439 -0.3861
  109OSM      N11189   6.084   4.705  11.098 -0.3963 -0.5494  0.1401
  109OSM    C1511190   5.942   4.719  11.145  0.0974 -0.5502 -0.3357
  109OSM   H15A11191   5.932   4.794  11.222 -1.6227 -0.8554 -0.2188
  109OSM   H15B11192   5.893   4.626  11.170 -1.2128  0.7493  2.3243
  109OSM   H15C11193   5.876   4.753  11.067  1.1398 -2.1806 -2.0021
  109OSM    C1411194   6.140   4.841  11.091  0.2084  0.8180 -0.3344
  109OSM   H14A11195   6.087   4.894  11.014  0.4619 -0.0607 -1.1233
  109OSM   H14B11196   6.241   4.838  11.054  1.0191 -0.6999  1.7530
  109OSM   H14C11197   6.130   4.884  11.190 -3.3879 -2.4557  0.9765
  109OSM    C1311198   6.172   4.625  11.193  0.3034 -0.0019 -0.1009
  109OSM   H13A11199   6.276   4.636  11.169 -0.2206  0.5433 -2.4043
  109OSM   H13B11200   6.148   4.520  11.193  1.7547 -0.4476 -3.3133
  109OSM   H13C11201   6.154   4.674  11.288 -3.5765  0.7215 -1.0288
  109OSM    C1211202   6.091   4.646  10.959 -0.1992 -0.2585 -0.1671
  109OSM   H12A11203   6.055   4.545  10.971  0.4673 -0.4529  0.2551
  109OSM   H12B11204   6.193   4.632  10.927  0.7913 -0.3985  2.8151
  109OSM    C1111205   6.011   4.711  10.840  0.8804  0.8537 -0.3583
  109OSM   H11A11206   5.907   4.738  10.868  0.7308  1.7688 -1.6966
  109OSM   H11B11207   6.004   4.643  10.751 -1.0253  2.5218 -1.5635
  109OSM      P11208   6.207   4.826  10.729 -0.2154  0.4320  0.1683
  109OSM    O1311209   6.297   4.933  10.774  0.4757 -0.0808  0.7119
  109OSM    O1411210   6.268   4.692  10.733 -0.5070 -0.1237  0.1758
  109OSM    O1111211   6.160   4.857  10.580 -0.0044  0.0319 -0.0290
  109OSM    O1211212   6.071   4.826  10.800 -0.2454 -0.6205 -0.3037
  109OSM    C1S11213   6.042   4.917  10.544  1.5286  0.2353 -0.6376
  109OSM    H1S11214   6.033   5.019  10.588 -0.8023 -0.7044  1.2286
  109OSM    H1T11215   5.957   4.861  10.587  2.4708  1.3687  3.0897
  109OSM     NF11216   5.890   4.998  10.371 -0.4012  0.4286 -0.1380
  109OSM    HNF11217   5.817   4.949  10.324 -2.3979  0.5092  2.6534
  109OSM    C2S11218   6.014   4.928  10.386 -0.2012  0.4981 -0.6971
  109OSM    H2S11219   6.100   4.984  10.343  0.5424  0.2824  0.4618
  109OSM    C3S11220   6.010   4.786  10.321 -0.4624  0.0238  0.1809
  109OSM    H3S11221   5.915   4.734  10.348 -0.0445 -1.0729 -0.4047
  109OSM     O311222   6.125   4.702  10.352  0.1306 -0.2753  0.7986
  109OSM    HO311223   6.159   4.744  10.431 -0.9180  0.5840  0.8206
  109OSM    C4S11224   5.997   4.815  10.165  0.0182  0.6412 -0.4888
  109OSM    H4S11225   5.900   4.777  10.129 -0.1555 -0.7824  1.3126
  109OSM    C5S11226   6.087   4.868  10.084 -0.3456  0.3065  0.1436
  109OSM    H5S11227   6.187   4.883  10.126  0.0805 -0.7989 -0.4415
  109OSM    C6S11228   6.088   4.888   9.934 -0.0799 -0.6115  0.2213
  109OSM    H6S11229   6.193   4.859   9.909  0.0996  0.1377  0.0794
  109OSM    H6T11230   6.081   4.996   9.910  1.8809 -0.0530  1.8610
  109OSM    C7S11231   5.990   4.797   9.852 -0.2103  0.8674  0.8125
  109OSM    H7S11232   5.886   4.816   9.886 -1.1093 -0.8592 -0.7441
  109OSM    H7T11233   6.012   4.694   9.887 -0.5518 -0.2019 -1.8545
  109OSM    C8S11234   5.987   4.816   9.695  0.1112  0.5252 -0.2568
  109OSM    H8S11235   6.082   4.787   9.645 -0.1400 -1.6139  0.4030
  109OSM    H8T11236   5.969   4.925   9.688 -0.1212  0.8547  3.4671
  109OSM    C9S11237   5.866   4.744   9.623 -0.2463  0.8589  0.3856
  109OSM    H9S11238   5.766   4.754   9.671 -0.8758  0.4547 -0.7956
  109OSM    H9T11239   5.897   4.638   9.625 -0.6339  0.7371  0.0964
  109OSM   C10S11240   5.849   4.770   9.478 -0.2724 -0.5821  0.6074
  109OSM   H10S11241   5.941   4.738   9.425 -1.2205 -1.8404 -0.3496
  109OSM   H10T11242   5.828   4.879   9.465 -0.8655 -0.1834  4.0332
  109OSM   C11S11243   5.734   4.697   9.421  0.7749 -0.0561  0.8922
  109OSM   H11S11244   5.639   4.714   9.476  1.0881  2.1395  0.8637
  109OSM   H11T11245   5.765   4.592   9.437 -0.2375 -0.2480  1.6468
  109OSM   C12S11246   5.709   4.731   9.271  0.0187 -0.5708 -0.0300
  109OSM   H12S11247   5.802   4.706   9.216 -0.9931 -1.0576 -1.6098
  109OSM   H12T11248   5.695   4.841   9.264 -1.8847 -0.8663 -2.2695
  109OSM   C13S11249   5.587   4.664   9.204 -0.1987  0.0985  0.1034
  109OSM   H13S11250   5.553   4.741   9.131 -0.4547  0.7687  0.9129
  109OSM   H13T11251   5.503   4.639   9.273 -0.5317  0.0920 -0.3041
  109OSM   C14S11252   5.630   4.538   9.120  0.3518 -0.1873 -0.0449
  109OSM   H14S11253   5.667   4.458   9.187  0.6849  1.9318  2.4847
  109OSM   H14T11254   5.711   4.578   9.055  0.3414 -1.3747 -0.8144
  109OSM   C15S11255   5.524   4.494   9.018 -0.2988 -0.0527 -0.6285
  109OSM   H15S11256   5.517   4.562   8.931 -1.3057 -1.1978 -1.4864
  109OSM   H15T11257   5.422   4.502   9.060 -0.4350  1.7536 -1.2162
  109OSM   C16S11258   5.548   4.354   8.958  0.8858  0.5587  0.4950
  109OSM   H16S11259   5.562   4.266   9.024 -0.3258 -0.6276 -0.7414
  109OSM   H16T11260   5.648   4.356   8.909 -0.3720  0.3281 -2.3067
  109OSM   C17S11261   5.449   4.330   8.839  0.2402 -0.3241 -0.1895
  109OSM   H17S11262   5.464   4.411   8.765 -1.1050  2.5909  2.4940
  109OSM   H17T11263   5.348   4.347   8.881  0.8187 -0.0846  1.1601
  109OSM   C18S11264   5.463   4.193   8.780 -0.0044 -0.5950 -0.4551
  109OSM   H18S11265   5.411   4.181   8.683 -0.7873  0.7929 -0.2381
  109OSM   H18T11266   5.423   4.124   8.857  2.7210 -0.9324  0.7612
  109OSM   H18U11267   5.570   4.166   8.769 -0.1684 -1.2094 -0.5827
  109OSM    C1F11268   5.882   5.130  10.387 -0.0762 -0.9946 -0.8803
  109OSM     OF11269   5.983   5.202  10.423 -0.1921  0.0383 -0.1445
  109OSM    C2F11270   5.752   5.196  10.353 -0.2198  0.5634 -0.6540
  109OSM    H2F11271   5.718   5.255  10.441 -0.1351  0.3906 -0.5054
  109OSM    H2G11272   5.668   5.123  10.349  0.8140 -0.7827  0.6538
  109OSM    C3F11273   5.755   5.296  10.244 -0.2242 -0.0169  0.0436
  109OSM    H3F11274   5.838   5.368  10.261 -1.0141  0.9653 -0.1552
  109OSM    H3G11275   5.662   5.356  10.235  0.7413  1.7412  1.2558
  109OSM    C4F11276   5.809   5.241  10.105  0.3426  0.1783 -0.6095
  109OSM    H4F11277   5.744   5.153  10.088  1.0759 -0.0702 -2.3568
  109OSM    H4G11278   5.917   5.215  10.110 -0.0078 -1.0437  2.3154
  109OSM    C5F11279   5.794   5.342   9.993 -0.0681  0.1833 -0.9497
  109OSM    H5F11280   5.862   5.425  10.022  1.3312 -1.0056 -0.7668
  109OSM    H5G11281   5.687   5.371   9.985 -0.0799  0.6711  0.6861
  109OSM    C6F11282   5.828   5.289   9.859  0.5565  0.5928 -0.7891
  109OSM    H6F11283   5.792   5.184   9.852  0.0539  0.6784  0.2465
  109OSM    H6G11284   5.938   5.295   9.845  0.3173  1.2061 -2.6606
  109OSM    C7F11285   5.766   5.382   9.748  0.2121  0.0528 -0.2304
  109OSM    H7F11286   5.667   5.422   9.778 -1.0145 -1.8978 -1.4214
  109OSM    H7G11287   5.759   5.316   9.659 -2.6331 -0.4238  0.2673
  109OSM    C8F11288   5.867   5.500   9.731  0.2998  0.0860  0.1177
  109OSM    H8F11289   5.967   5.465   9.699  1.8177  2.0328  2.3849
  109OSM    H8G11290   5.883   5.555   9.825 -0.6938 -0.0864  0.3974
  109OSM    C9F11291   5.823   5.590   9.617  0.7433  0.4726 -0.2788
  109OSM    H9F11292   5.731   5.645   9.642 -0.5020 -1.6135  0.0364
  109OSM   C10F11293   5.880   5.615   9.500 -0.4660  0.5564  0.2008
  109OSM   H10F11294   5.830   5.675   9.423  0.3725 -0.1310 -0.9086
  109OSM   C11F11295   6.008   5.563   9.448 -0.0407  0.5988  0.0543
  109OSM   H11F11296   6.076   5.517   9.524 -1.5005  0.4866  1.3344
  109OSM   H11G11297   6.074   5.638   9.399 -0.1699  1.7500  1.5942
  109OSM   C12F11298   5.988   5.455   9.331  0.0716 -0.3470  0.0522
  109OSM   H12F11299   6.089   5.451   9.284 -0.0342  2.1749 -0.4990
  109OSM   H12G11300   5.904   5.501   9.276  0.2010  0.8997  0.8498
  109OSM   C13F11301   5.955   5.319   9.396  0.3515 -1.1788 -0.1499
  109OSM   H13F11302   5.887   5.333   9.482  1.7184  1.1142  0.6246
  109OSM   H13G11303   6.047   5.283   9.446  0.4426 -0.1987  0.3954
  109OSM   C14F11304   5.915   5.214   9.289 -0.3299  0.2259  0.5256
  109OSM   H14F11305   5.818   5.247   9.247  0.5847  1.1934 -0.9263
  109OSM   H14G11306   5.906   5.118   9.344 -0.8534 -0.7151 -1.1374
  109OSM   C15F11307   6.023   5.182   9.182  0.0920  1.2281  0.0717
  109OSM   H15F11308   6.094   5.110   9.229 -0.0552  0.6463 -0.5820
  109OSM   H15G11309   6.080   5.275   9.157  0.1914  1.5583  1.4762
  109OSM   C16F11310   5.989   5.123   9.043  0.0960 -0.2747  0.0195
  109OSM   H16F11311   6.083   5.080   9.003 -0.6747 -1.4578 -0.5728
  109OSM   H16G11312   5.930   5.193   8.979 -1.5481 -1.0837  0.5839
  109OSM   C17F11313   5.898   4.996   9.053 -0.0819  0.0449  0.2291
  109OSM   H17F11314   5.792   5.023   9.069 -1.0922 -2.1596 -1.9943
  109OSM   H17G11315   5.933   4.947   9.146 -0.5231  3.0580  2.1076
  109OSM   C18F11316   5.904   4.910   8.928  0.2475  0.0897 -0.0569
  109OSM   H18F11317   6.006   4.871   8.910 -0.6225 -2.7850  0.6804
  109OSM   H18G11318   5.864   4.962   8.838  1.8311  2.3950  0.4754
  109OSM   H18H11319   5.838   4.824   8.950 -0.4751  0.2246 -1.6088
  110OSM      N11320   0.998   4.380  11.492  0.1756  0.2096  0.0197
  110OSM    C1511321   1.143   4.376  11.525  0.4777 -0.3617 -0.0019
  110OSM   H15A11322   1.193   4.296  11.473  1.2354 -0.7499  1.2934
  110OSM   H15B11323   1.170   4.378  11.629  2.7775 -0.5644 -0.5450
  110OSM   H15C11324   1.189   4.466  11.487  1.4075 -2.0602 -3.3388
  110OSM    C1411325   0.930   4.254  11.546 -0.0765  0.2921 -0.1587
  110OSM   H14A11326   0.823   4.255  11.535  0.0205  0.4804 -1.1781
  110OSM   H14B11327   0.950   4.236  11.650  0.1679 -2.5315 -0.5947
  110OSM   H14C11328   0.967   4.177  11.480 -0.5427  1.2392 -1.5665
  110OSM    C1311329   0.933   4.490  11.562 -0.5028 -0.0465 -0.0802
  110OSM   H13A11330   0.992   4.580  11.548 -0.3391  0.1957  1.9324
  110OSM   H13B11331   0.927   4.474  11.668 -2.4224 -0.6082 -0.2342
  110OSM   H13C11332   0.832   4.493  11.524 -0.4840 -2.9782 -0.5490
  110OSM    C1211333   0.984   4.383  11.340  0.0622  0.4482  0.0475
  110OSM   H12A11334   1.037   4.297  11.304 -1.5842 -0.5671 -0.0557
  110OSM   H12B11335   1.031   4.475  11.309  0.2415  0.2582 -0.2508
  110OSM    C1111336   0.841   4.376  11.280 -0.4821  0.1176  0.0989
  110OSM   H11A11337   0.801   4.276  11.305 -2.6422  0.5577 -1.2943
  110OSM   H11B11338   0.845   4.385  11.170 -1.6659  3.1447  0.1998
  110OSM      P11339   0.770   4.633  11.263 -0.2108  0.4546 -0.2911
  110OSM    O1311340   0.627   4.663  11.257  0.0624 -0.4215  0.5649
  110OSM    O1411341   0.854   4.726  11.346 -0.4908 -0.0186  0.2208
  110OSM    O1111342   0.827   4.610  11.118  0.2067 -0.4613  0.2751
  110OSM    O1211343   0.764   4.486  11.324  0.3163  0.2833  0.4603
  110OSM    C1S11344   0.799   4.717  11.030 -0.2506 -0.8467 -0.1737
  110OSM    H1S11345   0.877   4.796  11.040 -2.1224  1.1244 -0.3628
  110OSM    H1T11346   0.703   4.771  11.043  1.5048  3.1599 -2.0404
  110OSM     NF11347   0.775   4.777  10.803  0.2840 -0.2562  0.7779
  110OSM    HNF11348   0.681   4.801  10.780  0.2405 -1.4029 -0.3083
  110OSM    C2S11349   0.796   4.667  10.888 -0.1419  0.5292 -0.4194
  110OSM    H2S11350   0.890   4.608  10.876 -0.6967 -0.1297 -1.7653
  110OSM    C3S11351   0.678   4.565  10.871  0.0077  0.2757 -0.3663
  110OSM    H3S11352   0.583   4.619  10.891  1.4661  2.6305  0.5508
  110OSM     O311353   0.675   4.463  10.970  0.7124 -0.2347  0.0411
  110OSM    HO311354   0.746   4.491  11.027  2.1246 -0.6772 -1.4262
  110OSM    C4S11355   0.683   4.517  10.735 -0.1146 -0.0269 -0.9011
  110OSM    H4S11356   0.621   4.579  10.668 -0.6214  1.6244  0.9777
  110OSM    C5S11357   0.752   4.410  10.686 -0.0461 -0.3126  0.8833
  110OSM    H5S11358   0.813   4.345  10.751  0.3604 -1.2156 -0.3644
  110OSM    C6S11359   0.762   4.371  10.542  0.5869  0.3225 -0.3294
  110OSM    H6S11360   0.756   4.260  10.531  1.4454  0.3542 -1.1960
  110OSM    H6T11361   0.864   4.402  10.511  1.2309 -1.6634 -0.3553
  110OSM    C7S11362   0.658   4.425  10.437 -0.1574 -0.0145  0.3578
  110OSM    H7S11363   0.671   4.535  10.430  0.6729 -0.1456 -0.3488
  110OSM    H7T11364   0.556   4.400  10.472  0.1218 -2.1523 -0.1827
  110OSM    C8S11365   0.691   4.376  10.290  0.1057 -0.2194  0.6318
  110OSM    H8S11366   0.710   4.267  10.283 -2.4163 -0.6831 -0.2901
  110OSM    H8T11367   0.782   4.428  10.255 -1.3009  2.3618  0.6270
  110OSM    C9S11368   0.580   4.403  10.189 -0.2127  0.1929 -0.3958
  110OSM    H9S11369   0.582   4.511  10.163 -0.4984 -0.1592 -1.9813
  110OSM    H9T11370   0.477   4.388  10.226  0.5779 -2.2035  1.0069
  110OSM   C10S11371   0.591   4.324  10.062  0.0228  0.0450  0.2488
  110OSM   H10S11372   0.573   4.215  10.071  0.9406 -0.1205  0.1205
  110OSM   H10T11373   0.688   4.339  10.009 -0.1317  2.1619  0.4813
  110OSM   C11S11374   0.496   4.378   9.951 -0.1420 -0.5340 -0.1002
  110OSM   H11S11375   0.523   4.485   9.942  1.2777 -0.7229  1.4965
  110OSM   H11T11376   0.395   4.368   9.998  0.5018  0.9091  1.7197
  110OSM   C12S11377   0.487   4.307   9.820 -0.0754 -0.1610 -0.6722
  110OSM   H12S11378   0.429   4.357   9.739  2.4301  0.1075 -2.4178
  110OSM   H12T11379   0.438   4.209   9.835  0.6154 -0.8222 -2.4202
  110OSM   C13S11380   0.626   4.277   9.750 -0.1324 -0.2147  0.4536
  110OSM   H13S11381   0.689   4.218   9.821  1.0534 -0.3346 -0.6724
  110OSM   H13T11382   0.691   4.360   9.717 -0.6315 -1.0813 -3.0416
  110OSM   C14S11383   0.604   4.189   9.635 -0.1269 -0.0756 -0.8772
  110OSM   H14S11384   0.525   4.119   9.670  1.2833 -1.3423 -0.1510
  110OSM   H14T11385   0.691   4.124   9.614 -0.6410 -0.7187 -1.0600
  110OSM   C15S11386   0.574   4.262   9.504 -0.1540 -0.0872 -0.2108
  110OSM   H15S11387   0.658   4.334   9.492  1.8047 -2.0372  1.1914
  110OSM   H15T11388   0.474   4.310   9.514 -0.6117 -0.8990 -0.7971
  110OSM   C16S11389   0.569   4.162   9.387  0.4337  0.4700 -0.3684
  110OSM   H16S11390   0.482   4.097   9.413  0.8594  0.2667  0.6081
  110OSM   H16T11391   0.652   4.088   9.391 -0.7049 -0.9101 -1.2362
  110OSM   C17S11392   0.572   4.232   9.245  0.6837 -0.5793  0.0230
  110OSM   H17S11393   0.485   4.302   9.238  1.3391  0.2213 -0.3273
  110OSM   H17T11394   0.557   4.156   9.166 -1.7447 -1.7189  1.4355
  110OSM   C18S11395   0.713   4.296   9.218 -0.5759 -0.1627  0.3293
  110OSM   H18S11396   0.792   4.218   9.220 -0.5507 -0.1979 -1.1916
  110OSM   H18T11397   0.738   4.379   9.288 -1.0043  0.7721 -0.5945
  110OSM   H18U11398   0.717   4.335   9.114 -1.3151 -0.1654  0.2977
  110OSM    C1F11399   0.864   4.869  10.783 -0.4531 -0.0310 -0.6126
  110OSM     OF11400   0.980   4.859  10.828  0.3568 -0.2934 -0.2213
  110OSM    C2F11401   0.823   4.990  10.720 -0.1345  0.2158  1.1173
  110OSM    H2F11402   0.768   5.062  10.784  1.9713  2.1529  0.8809
  110OSM    H2G11403   0.759   4.958  10.635  0.2991 -0.2256  0.9518
  110OSM    C3F11404   0.942   5.064  10.660 -0.5766 -0.4701 -0.1445
  110OSM    H3F11405   1.019   4.998  10.615 -1.1503  0.2010 -2.2121
  110OSM    H3G11406   1.001   5.115  10.740 -1.5269  0.8369 -0.2330
  110OSM    C4F11407   0.909   5.168  10.554  0.2224 -0.1835  0.2714
  110OSM    H4F11408   0.988   5.245  10.555 -0.5760  0.6605  1.9761
  110OSM    H4G11409   0.809   5.208  10.579 -0.6775 -0.4116 -2.6503
  110OSM    C5F11410   0.910   5.104  10.413 -0.0083  0.1796 -0.1814
  110OSM    H5F11411   0.836   5.021  10.411  0.8436 -0.6113  0.2506
  110OSM    H5G11412   1.013   5.064  10.399  0.0416  0.7365 -1.6213
  110OSM    C6F11413   0.877   5.199  10.290  0.2219  0.2029 -0.6051
  110OSM    H6F11414   0.952   5.279  10.273  0.6354 -0.3600 -1.4554
  110OSM    H6G11415   0.782   5.246  10.324 -0.1515 -0.1661 -1.1239
  110OSM    C7F11416   0.875   5.113  10.163 -0.3486 -0.2760  0.2498
  110OSM    H7F11417   0.844   5.013  10.201  0.0540 -0.5619 -0.1570
  110OSM    H7G11418   0.982   5.107  10.132 -0.6335 -2.4471 -0.4857
  110OSM    C8F11419   0.792   5.159  10.046  0.2745 -0.4922 -0.4345
  110OSM    H8F11420   0.811   5.260  10.003 -1.3679  0.7412  1.5690
  110OSM    H8G11421   0.690   5.181  10.085  1.8013  1.6359  2.8819
  110OSM    C9F11422   0.782   5.049   9.943  0.4035  0.0021 -0.4098
  110OSM    H9F11423   0.761   4.953   9.993  0.6024 -0.2038 -0.7233
  110OSM   C10F11424   0.802   5.055   9.817 -0.0318  0.3677  1.0602
  110OSM   H10F11425   0.808   4.957   9.767  2.2754  0.2332  1.4770
  110OSM   C11F11426   0.834   5.180   9.736 -0.4765  0.5257 -0.0953
  110OSM   H11F11427   0.902   5.249   9.790 -1.3819  0.8458  0.6640
  110OSM   H11G11428   0.738   5.230   9.710 -0.3564  0.3902 -0.8426
  110OSM   C12F11429   0.879   5.142   9.591  0.2157 -0.1457  0.0352
  110OSM   H12F11430   0.862   5.224   9.517 -0.6306 -0.2173  0.1369
  110OSM   H12G11431   0.800   5.071   9.558 -0.4980 -0.3129  1.9535
  110OSM   C13F11432   1.025   5.081   9.579  0.4755  0.3292 -0.2971
  110OSM   H13F11433   1.044   5.002   9.655  1.0925 -0.9121 -1.6940
  110OSM   H13G11434   1.100   5.161   9.600  1.2929 -0.9929  2.1523
  110OSM   C14F11435   1.041   5.004   9.449 -0.1137 -0.0651  0.3738
  110OSM   H14F11436   0.971   4.919   9.463 -0.7142  0.6612  1.9519
  110OSM   H14G11437   1.147   4.973   9.445  0.6000  2.1951  0.5201
  110OSM   C15F11438   1.015   5.084   9.325 -0.0619 -0.1002 -0.6220
  110OSM   H15F11439   1.086   5.169   9.335 -0.8440  0.3196  3.0067
  110OSM   H15G11440   0.914   5.131   9.329 -0.4304 -0.3483 -4.1347
  110OSM   C16F11441   1.024   4.996   9.195 -0.4726 -0.3394 -0.6453
  110OSM   H16F11442   0.927   4.942   9.183 -0.2372 -0.9106 -0.0115
  110OSM   H16G11443   1.102   4.921   9.220  1.6762  2.0277  0.0926
  110OSM   C17F11444   1.071   5.077   9.068 -0.1807  0.3257  0.1710
  110OSM   H17F11445   1.145   5.153   9.099  0.6910 -0.7470  0.8043
  110OSM   H17G11446   0.984   5.135   9.031 -1.8945 -0.9174  2.0059
  110OSM   C18F11447   1.124   4.994   8.948  0.4395  0.2355  0.2295
  110OSM   H18F11448   1.132   5.059   8.858  0.6412  0.1472  0.1838
  110OSM   H18G11449   1.055   4.910   8.927  0.2832 -0.2391  2.4538
  110OSM   H18H11450   1.229   4.965   8.970  0.9145  0.8886 -1.0371
  111OSM      N11451   1.502   1.299  10.936  0.4361 -0.5325  0.1762
  111OSM    C1511452   1.618   1.303  10.842 -0.3186  0.4247 -0.1853
  111OSM   H15A11453   1.656   1.205  10.815  2.3317  0.8547  1.6717
  111OSM   H15B11454   1.700   1.358  10.884  0.1629  0.7382 -1.4920
  111OSM   H15C11455   1.591   1.356  10.752 -4.1539  1.4022  1.3217
  111OSM    C1411456   1.551   1.271  11.072 -0.6260  0.2732  0.3243
  111OSM   H14A11457   1.629   1.339  11.104  2.5578 -2.9900  0.0394
  111OSM   H14B11458   1.593   1.172  11.076  0.8403  0.7542 -1.5918
  111OSM   H14C11459   1.470   1.273  11.145 -2.7397  0.6060 -1.9018
  111OSM    C1311460   1.434   1.441  10.936  0.5655  0.3549  0.0904
  111OSM   H13A11461   1.354   1.441  11.008 -0.9600  2.6567 -1.4482
  111OSM   H13B11462   1.377   1.444  10.844 -0.4899 -4.3281  0.3317
  111OSM   H13C11463   1.505   1.522  10.933 -1.0576  1.8286 -1.2474
  111OSM    C1211464   1.403   1.191  10.883  0.4403 -0.5850 -0.4632
  111OSM   H12A11465   1.357   1.228  10.792  1.9087  2.2065 -0.2048
  111OSM   H12B11466   1.319   1.180  10.950  0.8787 -1.7239 -0.0785
  111OSM    C1111467   1.462   1.051  10.844  0.2236  0.6897  0.3823
  111OSM   H11A11468   1.537   1.062  10.763 -0.8126 -0.8231 -0.8406
  111OSM   H11B11469   1.380   0.992  10.798  0.9339  0.4017 -0.5447
  111OSM      P11470   1.653   0.915  10.969 -0.4093  0.1272 -0.3720
  111OSM    O1311471   1.746   1.020  11.024  0.5645 -0.6132 -0.0284
  111OSM    O1411472   1.645   0.791  11.053 -0.1744 -0.7996  0.0696
  111OSM    O1111473   1.699   0.877  10.821 -0.2994 -0.5808 -0.0613
  111OSM    O1211474   1.506   0.971  10.954  0.0571  0.0088 -0.3383
  111OSM    C1S11475   1.624   0.790  10.735 -0.0462  0.0237 -0.7662
  111OSM    H1S11476   1.522   0.767  10.774  1.3967 -1.7578  2.3876
  111OSM    H1T11477   1.676   0.692  10.730  0.5266  0.1441  1.5994
  111OSM     NF11478   1.537   0.755  10.501  0.2564  0.5297 -0.1919
  111OSM    HNF11479   1.588   0.688  10.447 -1.8344 -1.0175 -0.3960
  111OSM    C2S11480   1.604   0.847  10.592  0.5017  0.1669 -0.5773
  111OSM    H2S11481   1.541   0.936  10.614  1.1510 -0.1354  3.0076
  111OSM    C3S11482   1.745   0.899  10.546  0.2258  0.3580  0.2392
  111OSM    H3S11483   1.812   0.810  10.543 -1.0565 -0.6550  0.7248
  111OSM     O311484   1.814   0.994  10.624 -0.3273  0.1522 -0.1263
  111OSM    HO311485   1.776   0.979  10.711 -1.6615  2.3850 -0.2566
  111OSM    C4S11486   1.741   0.941  10.395  0.3899  0.3049 -0.8890
  111OSM    H4S11487   1.767   0.856  10.329  1.9786 -0.7090  0.9058
  111OSM    C5S11488   1.723   1.067  10.354  1.0054  0.2260  0.5382
  111OSM    H5S11489   1.716   1.150  10.426 -0.5054  0.4208  0.1839
  111OSM    C6S11490   1.716   1.107  10.206 -0.4879 -0.1600 -0.0452
  111OSM    H6S11491   1.809   1.155  10.168  0.8246 -1.8422  0.9027
  111OSM    H6T11492   1.634   1.182  10.202 -0.7610 -0.4769 -0.5251
  111OSM    C7S11493   1.684   1.002  10.092 -0.1727 -0.1780 -0.7642
  111OSM    H7S11494   1.609   0.926  10.124  0.7799 -0.5157  0.7699
  111OSM    H7T11495   1.781   0.950  10.079  0.2594  0.3057  0.3813
  111OSM    C8S11496   1.645   1.063   9.954 -0.3148 -0.5810 -0.3603
  111OSM    H8S11497   1.720   1.139   9.923 -0.3515 -0.0995  0.6819
  111OSM    H8T11498   1.547   1.114   9.959  0.6566  1.2690  0.9083
  111OSM    C9S11499   1.633   0.948   9.856 -0.3210  0.0654 -0.0690
  111OSM    H9S11500   1.544   0.884   9.872 -2.1596  2.7909  1.4653
  111OSM    H9T11501   1.718   0.877   9.866 -0.0978 -0.0987 -2.5890
  111OSM   C10S11502   1.635   0.993   9.707 -0.0542  0.2122  0.7395
  111OSM   H10S11503   1.637   0.903   9.642 -1.5878  0.2907  0.5524
  111OSM   H10T11504   1.729   1.048   9.686  0.9163 -1.5455  0.3394
  111OSM   C11S11505   1.516   1.085   9.674  0.1548 -0.6522 -0.6666
  111OSM   H11S11506   1.507   1.163   9.752 -0.6358 -0.1271 -1.2547
  111OSM   H11T11507   1.425   1.020   9.679 -0.3391 -0.0753 -1.7147
  111OSM   C12S11508   1.520   1.146   9.526  0.3039 -0.3256  0.3763
  111OSM   H12S11509   1.588   1.232   9.507 -2.2272  1.7294  0.1245
  111OSM   H12T11510   1.434   1.216   9.529  0.7806  0.2460  1.6556
  111OSM   C13S11511   1.510   1.049   9.411  0.3104 -0.1082 -0.2119
  111OSM   H13S11512   1.427   0.978   9.427  0.5363 -0.3605 -0.1423
  111OSM   H13T11513   1.604   0.989   9.402  0.0074 -0.4013 -1.5420
  111OSM   C14S11514   1.474   1.126   9.279 -0.2970  0.0413  0.2243
  111OSM   H14S11515   1.564   1.189   9.260 -0.2030  0.2659  1.3314
  111OSM   H14T11516   1.388   1.189   9.310 -0.7304 -2.2380  4.2964
  111OSM   C15S11517   1.434   1.025   9.172 -0.4404 -0.8047 -0.2328
  111OSM   H15S11518   1.340   0.972   9.198 -0.2577 -1.5868 -1.1139
  111OSM   H15T11519   1.512   0.946   9.165  2.2825  1.7232 -0.3670
  111OSM   C16S11520   1.420   1.091   9.033  0.3429  0.2012 -0.4119
  111OSM   H16S11521   1.517   1.129   8.995 -0.4084  0.7574 -1.8551
  111OSM   H16T11522   1.356   1.182   9.039  0.2767  0.1237  0.1370
  111OSM   C17S11523   1.357   0.990   8.933 -0.0153 -0.6730  0.1294
  111OSM   H17S11524   1.248   0.981   8.955 -0.2066  0.9672 -0.0017
  111OSM   H17T11525   1.403   0.890   8.947  0.1608 -0.9596 -2.1063
  111OSM   C18S11526   1.388   1.025   8.785  0.1734 -0.0503 -0.3713
  111OSM   H18S11527   1.357   1.130   8.766 -3.0478 -0.4396  1.8617
  111OSM   H18T11528   1.324   0.959   8.722  0.3306 -2.1654  1.5560
  111OSM   H18U11529   1.495   1.018   8.756  0.4416 -1.2124  0.7553
  111OSM    C1F11530   1.406   0.725  10.531 -1.6395  0.5567  0.3792
  111OSM     OF11531   1.339   0.798  10.602  0.1624 -0.3061 -0.0044
  111OSM    C2F11532   1.349   0.601  10.469 -0.4341 -0.1140  0.6705
  111OSM    H2F11533   1.288   0.549  10.546 -2.5105  0.1169 -0.7411
  111OSM    H2G11534   1.428   0.536  10.426 -0.8974 -1.2867  1.5374
  111OSM    C3F11535   1.237   0.631  10.356  0.2078 -0.8248  0.8162
  111OSM    H3F11536   1.168   0.709  10.396  0.2448 -0.7497  0.7317
  111OSM    H3G11537   1.167   0.545  10.349 -2.0853  0.8086  2.3964
  111OSM    C4F11538   1.297   0.649  10.222  0.0070 -0.3156 -0.6696
  111OSM    H4F11539   1.355   0.560  10.188  0.2021 -0.5005  0.1266
  111OSM    H4G11540   1.365   0.736  10.232 -0.8623  0.4438 -1.2422
  111OSM    C5F11541   1.199   0.689  10.114  0.0994 -0.8005 -0.3250
  111OSM    H5F11542   1.175   0.797  10.117  1.3513 -0.4788  3.8675
  111OSM    H5G11543   1.108   0.628  10.131 -1.0197  1.3456  1.9738
  111OSM    C6F11544   1.252   0.655   9.965 -0.3030 -0.4006 -0.1130
  111OSM    H6F11545   1.256   0.545   9.954  0.2236 -0.5924  1.6897
  111OSM    H6G11546   1.358   0.689   9.959 -0.6947  0.9394  0.2086
  111OSM    C7F11547   1.167   0.706   9.851 -0.1541  0.0989 -0.0693
  111OSM    H7F11548   1.154   0.816   9.858  1.7830  0.2485  2.4166
  111OSM    H7G11549   1.069   0.652   9.852 -0.0229 -0.1776 -1.3376
  111OSM    C8F11550   1.236   0.676   9.718 -0.2223 -0.6063 -0.0487
  111OSM    H8F11551   1.343   0.704   9.715 -0.5036  0.8492  1.7718
  111OSM    H8G11552   1.187   0.734   9.637  0.1681  0.7639  0.6748
  111OSM    C9F11553   1.222   0.531   9.675  0.2325  0.1170 -0.7060
  111OSM    H9F11554   1.181   0.465   9.752 -0.0503 -0.0205 -0.9730
  111OSM   C10F11555   1.267   0.484   9.561 -0.0293  0.2018 -0.1280
  111OSM   H10F11556   1.259   0.375   9.546 -2.0424  0.0415  1.7378
  111OSM   C11F11557   1.332   0.576   9.456  0.1637 -0.2749  0.4243
  111OSM   H11F11558   1.425   0.623   9.493  1.3158 -0.6569 -1.8541
  111OSM   H11G11559   1.258   0.657   9.438 -0.6956 -0.9177  0.9537
  111OSM   C12F11560   1.368   0.506   9.323  0.8870  0.0801  0.2421
  111OSM   H12F11561   1.302   0.424   9.287 -1.7363  2.4104 -0.6633
  111OSM   H12G11562   1.468   0.461   9.337  1.1166  0.8702  1.3843
  111OSM   C13F11563   1.387   0.617   9.215  0.9484 -0.5648  1.0447
  111OSM   H13F11564   1.428   0.698   9.278 -0.8821  1.7525 -0.5865
  111OSM   H13G11565   1.288   0.648   9.174  0.5131 -1.3168  1.5088
  111OSM   C14F11566   1.489   0.593   9.097 -0.2746 -0.3100 -0.3738
  111OSM   H14F11567   1.569   0.526   9.134 -0.1167 -0.5134 -1.0594
  111OSM   H14G11568   1.531   0.674   9.034  1.0172 -0.2161  0.5665
  111OSM   C15F11569   1.429   0.500   8.992  0.4109  0.5493  0.3190
  111OSM   H15F11570   1.331   0.531   8.950 -0.9897 -0.3621  2.7003
  111OSM   H15G11571   1.398   0.404   9.038 -0.2565  0.9508  0.7359
  111OSM   C16F11572   1.527   0.474   8.875 -0.1927  0.2870 -0.4732
  111OSM   H16F11573   1.627   0.449   8.916  0.2309  2.4459 -0.0432
  111OSM   H16G11574   1.544   0.560   8.807  3.0084  1.0811  1.1617
  111OSM   C17F11575   1.480   0.359   8.794  0.3214  0.3431  0.6842
  111OSM   H17F11576   1.492   0.265   8.852  0.8639  1.5995  2.6968
  111OSM   H17G11577   1.558   0.355   8.714 -0.8335  1.0855 -0.5152
  111OSM   C18F11578   1.346   0.366   8.733 -0.2772 -0.0905  0.9479
  111OSM   H18F11579   1.338   0.294   8.648 -1.2140 -1.4289  2.1257
  111OSM   H18G11580   1.323   0.469   8.699  1.0732 -0.1837 -0.4104
  111OSM   H18H11581   1.266   0.339   8.805 -1.6058  2.8730  0.7160
  112OSM      N11582   2.702   5.092  11.566 -0.4019  0.0399  0.4396
  112OSM    C1511583   2.611   5.157  11.661  0.1198 -0.3249 -0.6684
  112OSM   H15A11584   2.508   5.169  11.633  0.1554  2.2419  0.1189
  112OSM   H15B11585   2.646   5.253  11.694 -0.5274 -0.3466  0.1156
  112OSM   H15C11586   2.607   5.097  11.751  0.2836 -0.6863 -0.8965
  112OSM    C1411587   2.839   5.127  11.606  0.3386  0.5664 -0.7238
  112OSM   H14A11588   2.907   5.097  11.529 -1.1155 -1.3717 -1.3314
  112OSM   H14B11589   2.859   5.093  11.707  0.3406  3.3150  0.3078
  112OSM   H14C11590   2.854   5.234  11.619  1.4984  0.1659  1.9057
  112OSM    C1311591   2.687   4.944  11.565 -0.2130  0.4817 -0.3485
  112OSM   H13A11592   2.714   4.906  11.662 -0.6328 -0.4405 -0.5849
  112OSM   H13B11593   2.755   4.896  11.496 -1.1982 -1.1847 -0.2159
  112OSM   H13C11594   2.586   4.914  11.542 -0.5904  1.6718 -0.3110
  112OSM    C1211595   2.675   5.137  11.425  0.6028 -0.1801 -0.3893
  112OSM   H12A11596   2.699   5.242  11.420  2.2126 -0.4314  0.8508
  112OSM   H12B11597   2.570   5.121  11.410  0.9198 -1.3227 -1.5454
  112OSM    C1111598   2.748   5.072  11.310  0.1521  0.4134 -0.0881
  112OSM   H11A11599   2.853   5.084  11.343 -0.0185 -3.2041  2.3895
  112OSM   H11B11600   2.737   5.123  11.212  1.9661  0.3621 -0.3502
  112OSM      P11601   2.593   4.880  11.232 -0.4152 -0.1571 -0.1228
  112OSM    O1311602   2.596   4.733  11.210  0.1717 -0.0826 -0.4123
  112OSM    O1411603   2.485   4.934  11.311 -0.0848  0.7831 -0.0459
  112OSM    O1111604   2.589   4.948  11.083  0.1140  0.2342 -0.3697
  112OSM    O1211605   2.732   4.929  11.296  0.0822  0.3660 -0.0392
  112OSM    C1S11606   2.668   4.899  10.980 -0.7775  0.1835 -0.7005
  112OSM    H1S11607   2.682   4.789  10.984 -3.4440 -0.2305 -0.9036
  112OSM    H1T11608   2.768   4.944  10.994  0.2089 -2.4671  1.7871
  112OSM     NF11609   2.705   4.882  10.739  0.1152  0.3820 -1.1124
  112OSM    HNF11610   2.766   4.952  10.702 -0.8138  0.4169 -2.6932
  112OSM    C2S11611   2.607   4.927  10.836  0.2054 -0.7511 -0.2764
  112OSM    H2S11612   2.512   4.872  10.819 -1.3435  1.4293  0.8022
  112OSM    C3S11613   2.569   5.083  10.827 -0.5506 -0.2128 -0.5590
  112OSM    H3S11614   2.650   5.146  10.869 -1.1337  0.4031 -0.3338
  112OSM     O311615   2.463   5.117  10.918  0.0186  0.0535 -0.5436
  112OSM    HO311616   2.473   5.051  10.987  0.2720  3.5801  3.1886
  112OSM    C4S11617   2.529   5.122  10.696  0.2438 -0.7841 -0.4361
  112OSM    H4S11618   2.443   5.069  10.651 -2.4997  0.6513  2.7160
  112OSM    C5S11619   2.598   5.222  10.635 -0.5226 -0.3234  0.7424
  112OSM    H5S11620   2.690   5.266  10.677  0.1963 -0.3849 -0.6797
  112OSM    C6S11621   2.559   5.278  10.499  0.3712 -0.5397  0.4616
  112OSM    H6S11622   2.653   5.303  10.446  0.3910  1.6207  1.4412
  112OSM    H6T11623   2.507   5.375  10.511  0.5964  0.0688 -2.5311
  112OSM    C7S11624   2.472   5.201  10.404  0.3817 -0.6148 -0.8477
  112OSM    H7S11625   2.373   5.183  10.450  0.4073  0.6848 -0.2251
  112OSM    H7T11626   2.518   5.101  10.393  0.4035 -0.6665 -0.3093
  112OSM    C8S11627   2.449   5.269  10.266  0.0163  0.2596 -0.0274
  112OSM    H8S11628   2.538   5.242  10.204 -0.6144 -0.0156 -0.8263
  112OSM    H8T11629   2.448   5.379  10.281 -1.7526  0.0413  1.8019
  112OSM    C9S11630   2.320   5.224  10.195  0.6442 -0.0440 -0.1588
  112OSM    H9S11631   2.238   5.192  10.263  1.2632  0.2055  0.7270
  112OSM    H9T11632   2.353   5.131  10.143  1.6962  0.2816 -0.1005
  112OSM   C10S11633   2.258   5.323  10.098 -1.4507 -0.5949 -0.1251
  112OSM   H10S11634   2.314   5.419  10.097 -1.6645 -0.4157  1.6984
  112OSM   H10T11635   2.159   5.351  10.139 -1.1674  0.2954 -0.0256
  112OSM   C11S11636   2.245   5.274   9.952  0.0448  0.1961  0.6631
  112OSM   H11S11637   2.191   5.176   9.956 -1.8375  1.1987  1.1220
  112OSM   H11T11638   2.344   5.258   9.905 -0.4937  3.3402 -1.8534
  112OSM   C12S11639   2.160   5.359   9.854 -0.5254 -0.0336 -0.0328
  112OSM   H12S11640   2.210   5.453   9.822  0.2986 -0.7498 -0.8695
  112OSM   H12T11641   2.061   5.391   9.895 -1.2057 -0.9658 -0.9245
  112OSM   C13S11642   2.161   5.279   9.725 -0.0210 -0.9974  0.2501
  112OSM   H13S11643   2.156   5.168   9.739  3.4742 -0.9787  2.8015
  112OSM   H13T11644   2.261   5.287   9.678  0.1718 -0.7748  0.6930
  112OSM   C14S11645   2.059   5.341   9.625  1.3130  0.4937  0.5722
  112OSM   H14S11646   2.052   5.451   9.636 -1.2048  0.8410 -2.8081
  112OSM   H14T11647   1.958   5.308   9.657  1.1503  2.2645  2.0177
  112OSM   C15S11648   2.088   5.310   9.482  0.0705  0.2091 -0.1592
  112OSM   H15S11649   2.128   5.208   9.466  1.5892  1.1721 -3.0660
  112OSM   H15T11650   2.163   5.384   9.449 -0.7155  1.4252  0.6911
  112OSM   C16S11651   1.964   5.329   9.399 -0.6112 -0.4828  0.4142
  112OSM   H16S11652   1.909   5.422   9.427 -1.0551 -0.2346 -1.2032
  112OSM   H16T11653   1.899   5.245   9.433  0.8756 -1.8709 -0.0883
  112OSM   C17S11654   1.991   5.310   9.250 -0.6733  0.2812  0.0614
  112OSM   H17S11655   2.067   5.229   9.249  2.3307  2.8715  1.0961
  112OSM   H17T11656   2.042   5.404   9.217  0.4717 -0.8819 -1.6678
  112OSM   C18S11657   1.867   5.279   9.173  0.3352  0.7052  0.4785
  112OSM   H18S11658   1.790   5.359   9.180 -0.8883 -0.4114  0.0275
  112OSM   H18T11659   1.840   5.179   9.212  1.4800  0.0275 -0.4095
  112OSM   H18U11660   1.887   5.274   9.064  1.5766  1.6924  0.6320
  112OSM    C1F11661   2.736   4.755  10.713 -0.0045 -0.6265  0.4223
  112OSM     OF11662   2.701   4.656  10.787 -0.6148 -0.4559 -0.4812
  112OSM    C2F11663   2.820   4.739  10.586 -0.4107  0.1172 -0.0052
  112OSM    H2F11664   2.926   4.761  10.610 -0.0422 -2.5123  1.0634
  112OSM    H2G11665   2.782   4.818  10.517 -0.8755  0.7071  0.8978
  112OSM    C3F11666   2.804   4.596  10.523  0.6156  0.2222 -0.3750
  112OSM    H3F11667   2.695   4.571  10.526  0.1895  2.0988  1.7111
  112OSM    H3G11668   2.856   4.525  10.591  2.8022  2.3027  0.2420
  112OSM    C4F11669   2.861   4.595  10.377  0.3353 -0.3220  0.0436
  112OSM    H4F11670   2.961   4.644  10.372 -0.0185  0.3788 -0.4187
  112OSM    H4G11671   2.804   4.671  10.318 -1.8303 -1.8050  0.1283
  112OSM    C5F11672   2.863   4.460  10.303 -0.4614  0.3149 -0.1593
  112OSM    H5F11673   2.766   4.406  10.312 -1.0060  0.3892 -3.8734
  112OSM    H5G11674   2.940   4.399  10.355 -1.3230 -1.9584 -1.3874
  112OSM    C6F11675   2.901   4.467  10.154  0.0160 -0.1518 -0.2725
  112OSM    H6F11676   2.914   4.364  10.117  0.2994  0.9007 -3.3564
  112OSM    H6G11677   2.992   4.528  10.134 -0.5601  0.4714 -1.0161
  112OSM    C7F11678   2.789   4.524  10.064 -0.1956 -0.3080 -0.2229
  112OSM    H7F11679   2.779   4.632  10.088  1.1519 -0.4407  1.0562
  112OSM    H7G11680   2.700   4.469  10.103  1.7487 -0.9830  3.7431
  112OSM    C8F11681   2.811   4.514   9.911 -1.0780 -0.0161  0.1126
  112OSM    H8F11682   2.839   4.411   9.879  3.4867  0.8851  0.4560
  112OSM    H8G11683   2.913   4.556   9.894 -2.1475  2.3768 -0.7716
  112OSM    C9F11684   2.705   4.581   9.826 -0.0882  0.0639  0.2337
  112OSM    H9F11685   2.640   4.652   9.880 -1.8895  0.4650 -2.3045
  112OSM   C10F11686   2.692   4.565   9.694  0.5751 -0.2223 -0.7637
  112OSM   H10F11687   2.610   4.623   9.650 -3.6152 -2.8501  2.8125
  112OSM   C11F11688   2.778   4.487   9.592  0.0437 -0.4787 -0.5844
  112OSM   H11F11689   2.880   4.461   9.628  1.1761  0.5191 -2.8646
  112OSM   H11G11690   2.794   4.553   9.503 -1.9393 -1.3522 -1.6609
  112OSM   C12F11691   2.707   4.361   9.535 -0.0674  0.2842 -0.1668
  112OSM   H12F11692   2.685   4.294   9.621  0.0126  2.2062  1.4399
  112OSM   H12G11693   2.759   4.312   9.451 -1.1853  0.1115 -0.7805
  112OSM   C13F11694   2.562   4.383   9.479  0.2478 -0.0753  0.0801
  112OSM   H13F11695   2.500   4.432   9.557  1.1397 -0.7145  1.2247
  112OSM   H13G11696   2.530   4.277   9.467  1.6894 -0.7886  1.9283
  112OSM   C14F11697   2.546   4.457   9.340 -0.2729  0.5480  0.6915
  112OSM   H14F11698   2.613   4.412   9.263 -1.9852 -1.2904  0.1952
  112OSM   H14G11699   2.582   4.560   9.360 -0.0331  0.0754  2.8924
  112OSM   C15F11700   2.407   4.461   9.284 -0.1401  0.4455 -0.7954
  112OSM   H15F11701   2.330   4.487   9.360 -0.7998 -1.6378 -0.6775
  112OSM   H15G11702   2.394   4.359   9.242  2.3194 -1.1711  1.9713
  112OSM   C16F11703   2.396   4.559   9.165  0.6583 -0.0773 -0.0047
  112OSM   H16F11704   2.478   4.525   9.099  0.3398 -0.9385  0.0277
  112OSM   H16G11705   2.419   4.664   9.193  0.2195  0.2699 -0.9152
  112OSM   C17F11706   2.268   4.543   9.076  0.5109  0.1693 -0.1394
  112OSM   H17F11707   2.180   4.547   9.143  1.0511 -1.6190  0.7276
  112OSM   H17G11708   2.268   4.440   9.036  0.0028  0.6560 -1.4627
  112OSM   C18F11709   2.254   4.646   8.958 -0.5291 -0.5999  0.0273
  112OSM   H18F11710   2.334   4.617   8.886 -1.4609 -2.5319 -0.3009
  112OSM   H18G11711   2.282   4.748   8.991 -0.1641 -0.8050  0.3656
  112OSM   H18H11712   2.153   4.645   8.911 -1.4380 -1.3757  1.9020
  113OSM      N11713   5.654   2.397  11.161 -0.1113  0.0871  0.0817
  113OSM    C1511714   5.643   2.251  11.152  0.1748  0.5080 -0.2538
  113OSM   H15A11715   5.565   2.200  11.206  2.0281 -4.2948 -1.5865
  113OSM   H15B11716   5.734   2.202  11.183 -0.4713 -0.9445 -0.5660
  113OSM   H15C11717   5.620   2.221  11.051 -2.4541 -0.4187  0.5418
  113OSM    C1411718   5.513   2.451  11.172  0.9069 -0.1020 -0.6614
  113OSM   H14A11719   5.501   2.557  11.192  1.0312 -0.1673 -0.2325
  113OSM   H14B11720   5.456   2.399  11.247 -0.1889  1.4371 -0.3905
  113OSM   H14C11721   5.467   2.446  11.075  0.3915  0.1499 -0.4305
  113OSM    C1311722   5.717   2.437  11.294  0.0258  0.9664  0.0348
  113OSM   H13A11723   5.814   2.392  11.307 -0.0569  0.6394 -0.4697
  113OSM   H13B11724   5.653   2.404  11.375  0.1211  1.3828  0.2814
  113OSM   H13C11725   5.727   2.545  11.293 -1.6548  1.1694 -1.4981
  113OSM    C1211726   5.730   2.459  11.045  0.1609  0.1642 -0.4919
  113OSM   H12A11727   5.823   2.409  11.023  0.2784  1.0395 -2.1129
  113OSM   H12B11728   5.747   2.563  11.067 -0.5636 -0.2573  2.4766
  113OSM    C1111729   5.653   2.459  10.910 -1.4384 -0.4450  0.1851
  113OSM   H11A11730   5.641   2.354  10.878 -0.1912 -0.9321  1.2152
  113OSM   H11B11731   5.721   2.502  10.833 -2.3162  2.3706  0.8514
  113OSM      P11732   5.531   2.682  10.954 -0.2896  0.0389  0.6966
  113OSM    O1311733   5.437   2.691  11.065 -0.0492 -0.2187 -0.2025
  113OSM    O1411734   5.662   2.740  10.977  0.2379  0.1505  0.2284
  113OSM    O1111735   5.458   2.766  10.837  0.4285  0.2750  0.3815
  113OSM    O1211736   5.529   2.531  10.907 -0.0552 -0.6947  0.4332
  113OSM    C1S11737   5.502   2.752  10.706 -0.2251  0.2047 -0.0886
  113OSM    H1S11738   5.486   2.646  10.673  0.8621  0.2596 -0.8454
  113OSM    H1T11739   5.610   2.774  10.706 -0.3458  1.0936  2.3855
  113OSM     NF11740   5.482   2.775  10.467  0.7197 -0.1858 -0.2672
  113OSM    HNF11741   5.555   2.836  10.436  2.4043 -2.2802 -0.6346
  113OSM    C2S11742   5.421   2.818  10.589  0.4652 -0.5126 -0.5026
  113OSM    H2S11743   5.315   2.783  10.598  0.0321 -0.5572 -4.3716
  113OSM    C3S11744   5.426   2.970  10.606 -0.3400  0.6073 -0.0050
  113OSM    H3S11745   5.525   3.006  10.569 -0.6014  4.1132  2.1702
  113OSM     O311746   5.419   3.017  10.740  0.3796  0.0513 -0.2646
  113OSM    HO311747   5.419   2.938  10.794  1.5550 -0.4076 -0.9091
  113OSM    C4S11748   5.318   3.033  10.514  0.1033 -0.5160 -0.1019
  113OSM    H4S11749   5.215   3.013  10.546 -0.1575 -0.2681 -0.7837
  113OSM    C5S11750   5.344   3.105  10.408 -0.1131  0.6238 -0.2415
  113OSM    H5S11751   5.447   3.125  10.377  0.7006 -1.2773  1.0951
  113OSM    C6S11752   5.236   3.162  10.306 -0.4696  0.5607  0.0967
  113OSM    H6S11753   5.133   3.125  10.322 -0.6917  0.3597 -1.6703
  113OSM    H6T11754   5.260   3.127  10.204  0.5369 -0.2063  0.5744
  113OSM    C7S11755   5.256   3.311  10.302  0.4034  0.4391 -0.5824
  113OSM    H7S11756   5.363   3.332  10.282  1.5362 -1.8383  2.4311
  113OSM    H7T11757   5.238   3.366  10.397 -0.3414 -1.1416  0.2367
  113OSM    C8S11758   5.174   3.374  10.183 -0.3410 -0.4544 -0.1747
  113OSM    H8S11759   5.063   3.373  10.194 -0.6251 -3.0441 -2.2556
  113OSM    H8T11760   5.203   3.310  10.097  1.1158 -0.8423  0.5770
  113OSM    C9S11761   5.224   3.518  10.160 -0.5964 -0.2669 -0.6043
  113OSM    H9S11762   5.329   3.528  10.125  0.4082  0.9960  2.4636
  113OSM    H9T11763   5.217   3.588  10.246 -1.0705  0.0948 -0.9339
  113OSM   C10S11764   5.153   3.588  10.044  0.1714  0.3039  0.2486
  113OSM   H10S11765   5.205   3.687  10.039  2.5348 -0.8514  0.4086
  113OSM   H10T11766   5.046   3.609  10.066 -0.7593 -3.5902  0.1711
  113OSM   C11S11767   5.157   3.519   9.904  0.8537  0.7022  0.9047
  113OSM   H11S11768   5.119   3.415   9.914  2.3616  0.1859  1.5459
  113OSM   H11T11769   5.262   3.505   9.870 -0.4084 -3.5824 -2.1085
  113OSM   C12S11770   5.078   3.602   9.800 -0.4101  0.0426  0.3849
  113OSM   H12S11771   5.127   3.700   9.782 -0.3155 -0.1237 -0.3092
  113OSM   H12T11772   4.972   3.623   9.827 -1.0742  0.7780 -2.4884
  113OSM   C13S11773   5.073   3.530   9.661  0.2317 -0.4255 -0.1382
  113OSM   H13S11774   5.008   3.439   9.661 -1.5639  0.7592 -2.1210
  113OSM   H13T11775   5.176   3.513   9.625  0.6302  1.1141  0.2262
  113OSM   C14S11776   5.007   3.635   9.568  1.0620 -0.4912 -0.7129
  113OSM   H14S11777   5.064   3.730   9.559  0.5455 -0.1713 -0.7050
  113OSM   H14T11778   4.908   3.671   9.605  1.9394  2.0502 -0.6215
  113OSM   C15S11779   5.000   3.593   9.426  0.5664  0.1363  0.3230
  113OSM   H15S11780   4.956   3.491   9.428 -0.5596  0.6126  1.8824
  113OSM   H15T11781   5.100   3.584   9.378 -0.0451  1.5593 -1.3436
  113OSM   C16S11782   4.919   3.691   9.337 -0.2961  0.0722  0.0843
  113OSM   H16S11783   4.972   3.789   9.333 -0.1526 -0.0260 -0.6012
  113OSM   H16T11784   4.817   3.712   9.377 -0.8173  1.0281 -1.6160
  113OSM   C17S11785   4.908   3.647   9.192  0.3403  0.0924  0.5603
  113OSM   H17S11786   4.858   3.547   9.198  0.5297 -0.0616 -0.3182
  113OSM   H17T11787   5.008   3.627   9.147 -0.7897 -1.0279 -1.6584
  113OSM   C18S11788   4.832   3.749   9.106  0.1065 -0.4208  0.6453
  113OSM   H18S11789   4.895   3.838   9.083  1.4189 -0.7142  2.8579
  113OSM   H18T11790   4.754   3.790   9.173  1.2085  1.7790  0.6590
  113OSM   H18U11791   4.795   3.707   9.010 -2.3772 -2.0279  2.1901
  113OSM    C1F11792   5.466   2.655  10.409  0.8376 -0.7365  0.5590
  113OSM     OF11793   5.390   2.578  10.460 -0.1762  0.0041 -0.5316
  113OSM    C2F11794   5.520   2.642  10.270  0.5677  0.0816 -0.0508
  113OSM    H2F11795   5.591   2.727  10.260  1.8310 -1.0630 -1.0936
  113OSM    H2G11796   5.434   2.658  10.201 -1.5793  0.8206  2.6188
  113OSM    C3F11797   5.578   2.504  10.238  0.4436 -0.3033 -0.3640
  113OSM    H3F11798   5.506   2.423  10.261  0.0988 -0.1796 -0.9853
  113OSM    H3G11799   5.668   2.472  10.296 -0.4990  0.2862  1.5014
  113OSM    C4F11800   5.617   2.490  10.092  0.3937 -0.6833  0.5610
  113OSM    H4F11801   5.657   2.391  10.063  2.1478  0.4792 -1.2049
  113OSM    H4G11802   5.704   2.557  10.080  0.2250 -0.5538  0.0266
  113OSM    C5F11803   5.498   2.522   9.992  0.6373 -0.1040  0.1801
  113OSM    H5F11804   5.473   2.630   9.995 -0.1297 -0.1432 -2.2790
  113OSM    H5G11805   5.405   2.472  10.026  0.6427 -0.5297 -0.3936
  113OSM    C6F11806   5.530   2.480   9.849 -0.1155 -0.7802  0.1660
  113OSM    H6F11807   5.552   2.373   9.831 -0.3415 -0.8500  0.2951
  113OSM    H6G11808   5.624   2.529   9.817  0.2500 -2.8105 -2.1288
  113OSM    C7F11809   5.424   2.525   9.757  0.5179 -0.7995  0.5277
  113OSM    H7F11810   5.405   2.634   9.765 -0.0532 -0.8786  0.2844
  113OSM    H7G11811   5.328   2.473   9.781 -1.0791  0.4693 -2.5642
  113OSM    C8F11812   5.454   2.496   9.615 -0.8664 -0.4883  0.5606
  113OSM    H8F11813   5.363   2.509   9.552 -1.2260 -0.0912  1.1491
  113OSM    H8G11814   5.492   2.392   9.608 -2.5636 -1.3393  2.5659
  113OSM    C9F11815   5.567   2.583   9.557  0.5887 -0.1428 -0.0597
  113OSM    H9F11816   5.638   2.610   9.636  1.0200 -1.9648  0.2112
  113OSM   C10F11817   5.574   2.631   9.435 -0.0671 -0.5859 -0.3519
  113OSM   H10F11818   5.660   2.692   9.406  0.7848 -1.2070  0.8081
  113OSM   C11F11819   5.470   2.603   9.332 -0.0707 -0.5536  0.3518
  113OSM   H11F11820   5.366   2.636   9.353 -1.2519 -3.1719 -0.9708
  113OSM   H11G11821   5.458   2.495   9.309 -1.3297 -0.1656 -0.9466
  113OSM   C12F11822   5.502   2.682   9.201 -0.0989 -1.2480  0.7660
  113OSM   H12F11823   5.522   2.789   9.223  3.2684 -1.1277 -2.0076
  113OSM   H12G11824   5.415   2.660   9.135  0.3493 -2.5801  0.5972
  113OSM   C13F11825   5.629   2.641   9.126  0.4828  0.4461  0.3043
  113OSM   H13F11826   5.627   2.531   9.111  0.8060  0.1897  2.0128
  113OSM   H13G11827   5.713   2.669   9.192 -0.3250 -1.3317  2.2115
  113OSM   C14F11828   5.654   2.720   8.990 -0.5092  0.6752  0.6682
  113OSM   H14F11829   5.666   2.824   9.029 -0.4988  0.5715  0.9499
  113OSM   H14G11830   5.570   2.718   8.918  1.8591 -0.3792 -2.2781
  113OSM   C15F11831   5.782   2.676   8.924 -0.5815 -0.4552  0.1983
  113OSM   H15F11832   5.855   2.656   9.004 -0.8837  2.7103  1.4289
  113OSM   H15G11833   5.817   2.761   8.861  0.4637 -0.0451  1.3060
  113OSM   C16F11834   5.760   2.551   8.836 -0.3158  0.1957 -0.6940
  113OSM   H16F11835   5.732   2.470   8.907  2.1393 -0.0855  0.0729
  113OSM   H16G11836   5.858   2.533   8.787  0.0615  0.3931 -0.0254
  113OSM   C17F11837   5.662   2.552   8.715 -0.4972 -0.2457  0.4662
  113OSM   H17F11838   5.707   2.629   8.649 -0.8061 -0.8174 -0.4269
  113OSM   H17G11839   5.557   2.577   8.741 -0.7207 -0.5560 -0.1221
  113OSM   C18F11840   5.652   2.413   8.645 -0.2113  0.9925  0.4356
  113OSM   H18F11841   5.724   2.346   8.697 -1.9925 -0.7933  0.7176
  113OSM   H18G11842   5.682   2.429   8.540  2.3630  2.6393  1.3203
  113OSM   H18H11843   5.547   2.378   8.655 -0.3025  1.0989 -0.1194
  114OSM      N11844   1.644   4.790  11.195 -0.2702 -0.2157  0.2351
  114OSM    C1511845   1.520   4.846  11.140 -0.3708  0.2139  0.0913
  114OSM   H15A11846   1.454   4.762  11.124  0.2825 -0.8056  2.3506
  114OSM   H15B11847   1.540   4.892  11.044 -1.4857 -2.4573 -1.5308
  114OSM   H15C11848   1.468   4.912  11.209  0.2821  0.0331  0.7610
  114OSM    C1411849   1.711   4.691  11.101  0.3380 -0.2268  0.2578
  114OSM   H14A11850   1.801   4.654  11.148  0.3724 -2.2425 -1.2767
  114OSM   H14B11851   1.730   4.732  11.003 -0.8058 -2.8293 -1.1407
  114OSM   H14C11852   1.651   4.602  11.092  1.5051 -0.9864 -0.1864
  114OSM    C1311853   1.734   4.904  11.201  0.4704  0.0043  0.5697
  114OSM   H13A11854   1.768   4.943  11.107  1.8649  3.3679  2.2799
  114OSM   H13B11855   1.824   4.873  11.251  1.1348 -2.8428 -2.1136
  114OSM   H13C11856   1.686   4.984  11.256 -0.4957 -1.1172  1.4192
  114OSM    C1211857   1.632   4.741  11.341  0.2095  0.4157  0.3131
  114OSM   H12A11858   1.591   4.824  11.397  2.1104  3.2768 -2.2192
  114OSM   H12B11859   1.730   4.714  11.377  0.9767  1.1146 -1.1614
  114OSM    C1111860   1.540   4.615  11.352  0.6970 -0.8868 -0.0549
  114OSM   H11A11861   1.438   4.654  11.332  0.3391 -0.4250  2.3536
  114OSM   H11B11862   1.550   4.584  11.459  0.5406 -1.2062 -0.1306
  114OSM      P11863   1.462   4.390  11.259  0.0186  0.1730  0.1303
  114OSM    O1311864   1.493   4.285  11.164 -0.0418  0.4516  0.6492
  114OSM    O1411865   1.416   4.338  11.390  0.3518  0.2072  0.7541
  114OSM    O1111866   1.340   4.472  11.187 -0.0210 -0.5553 -0.4052
  114OSM    O1211867   1.573   4.498  11.274 -0.4017 -0.0342  0.6156
  114OSM    C1S11868   1.352   4.535  11.063  0.2250 -0.1215 -0.5125
  114OSM    H1S11869   1.455   4.571  11.044  0.4048 -0.2692  0.1500
  114OSM    H1T11870   1.287   4.625  11.067  1.5399  0.8051  1.1911
  114OSM     NF11871   1.343   4.511  10.824  0.2489 -0.3415  0.1630
  114OSM    HNF11872   1.268   4.569  10.794  0.1193 -0.6490 -0.1086
  114OSM    C2S11873   1.321   4.435  10.951 -0.9356  0.2042 -0.0130
  114OSM    H2S11874   1.393   4.350  10.944  0.6138  1.3923  0.8019
  114OSM    C3S11875   1.174   4.376  10.964  0.6395  0.0388 -0.8766
  114OSM    H3S11876   1.103   4.461  10.966  1.9365  1.1719  2.2216
  114OSM     O311877   1.140   4.316  11.088 -0.5561 -0.1670  0.0875
  114OSM    HO311878   1.191   4.360  11.157 -0.2365  0.4053 -0.4973
  114OSM    C4S11879   1.147   4.292  10.840  0.0890 -1.3120 -0.3490
  114OSM    H4S11880   1.143   4.356  10.750  0.2927  1.5810  1.5928
  114OSM    C5S11881   1.134   4.162  10.820 -0.6010  0.4477  0.0299
  114OSM    H5S11882   1.149   4.099  10.909  1.1727  1.6923  0.6600
  114OSM    C6S11883   1.114   4.091  10.688 -0.3968  0.0853  0.3621
  114OSM    H6S11884   1.015   4.040  10.686 -0.2653 -0.1874  0.6723
  114OSM    H6T11885   1.188   4.010  10.670 -1.8909 -1.1487 -0.5087
  114OSM    C7S11886   1.108   4.175  10.558 -0.1447 -0.6490 -0.6693
  114OSM    H7S11887   1.206   4.225  10.546  1.6825 -3.6698  0.6010
  114OSM    H7T11888   1.033   4.257  10.571  1.7609  0.8179  2.2740
  114OSM    C8S11889   1.067   4.085  10.440 -0.0110 -0.0522 -0.3400
  114OSM    H8S11890   0.963   4.048  10.451 -0.3925 -0.5392 -4.1770
  114OSM    H8T11891   1.137   4.000  10.446  1.7267  1.3569  0.4881
  114OSM    C9S11892   1.082   4.139  10.297  0.5654  0.5803 -0.2688
  114OSM    H9S11893   1.182   4.185  10.282  1.4155 -1.1989 -0.3374
  114OSM    H9T11894   0.999   4.209  10.272  0.7354  0.9247  0.1258
  114OSM   C10S11895   1.090   4.030  10.192  0.4893 -0.6601  0.6726
  114OSM   H10S11896   1.021   3.949  10.222 -1.0230  0.1476 -0.5273
  114OSM   H10T11897   1.187   3.975  10.183  0.9859  0.2895  0.0457
  114OSM   C11S11898   1.046   4.074  10.046  0.2045  0.4862  0.4959
  114OSM   H11S11899   1.108   4.159  10.010  1.2233  0.8897  2.9907
  114OSM   H11T11900   0.944   4.118  10.054  0.6440  1.5198  0.5931
  114OSM   C12S11901   1.049   3.958   9.943 -0.8066 -0.9229 -0.4215
  114OSM   H12S11902   0.979   3.880   9.980  0.3949 -1.0362  1.7495
  114OSM   H12T11903   1.153   3.920   9.934 -0.4665 -0.2286  0.5053
  114OSM   C13S11904   1.011   4.002   9.802 -1.0915  0.0645 -0.4361
  114OSM   H13S11905   1.086   4.076   9.769 -1.1586 -0.5226 -1.9640
  114OSM   H13T11906   0.917   4.061   9.810 -0.0367  1.7725 -0.1379
  114OSM   C14S11907   1.012   3.877   9.712 -0.0610 -0.0940 -0.3615
  114OSM   H14S11908   0.936   3.809   9.755  0.3256  0.3239  1.0431
  114OSM   H14T11909   1.119   3.846   9.710  0.0412  0.2757 -1.0537
  114OSM   C15S11910   0.969   3.904   9.565 -0.1505  0.5252 -0.0594
  114OSM   H15S11911   0.880   3.970   9.551  2.0553  3.5114 -1.2442
  114OSM   H15T11912   0.958   3.804   9.519  0.8864 -0.4960  1.8125
  114OSM   C16S11913   1.071   3.985   9.480 -0.6262  0.3141 -0.0190
  114OSM   H16S11914   1.172   3.947   9.503 -0.1281 -0.7241 -3.3027
  114OSM   H16T11915   1.065   4.089   9.520 -2.0167  0.6586 -1.0104
  114OSM   C17S11916   1.043   3.993   9.326  0.4294  0.0365 -0.0666
  114OSM   H17S11917   1.115   4.058   9.271 -1.2264  1.4987 -0.6123
  114OSM   H17T11918   0.948   4.047   9.306 -0.0478 -1.3999 -2.0129
  114OSM   C18S11919   1.041   3.866   9.250  0.3883  0.8762 -0.1267
  114OSM   H18S11920   1.027   3.882   9.141  0.0470  0.1184 -0.2026
  114OSM   H18T11921   0.965   3.791   9.281  0.9656  0.3441  0.0234
  114OSM   H18U11922   1.145   3.831   9.264  1.0505  2.6299 -0.4684
  114OSM    C1F11923   1.471   4.543  10.785  0.5123  0.1894  0.0503
  114OSM     OF11924   1.568   4.477  10.817 -0.8515 -0.1265  0.0123
  114OSM    C2F11925   1.493   4.664  10.710 -0.4694  0.5797  0.8438
  114OSM    H2F11926   1.519   4.744  10.783  0.2472  1.7443 -0.6408
  114OSM    H2G11927   1.410   4.684  10.640  0.7425 -1.9691 -1.5142
  114OSM    C3F11928   1.620   4.654  10.614  0.8264  0.1478 -0.2101
  114OSM    H3F11929   1.717   4.649  10.669  1.0286  1.3828 -0.4264
  114OSM    H3G11930   1.624   4.756  10.569  0.4489  0.1149 -0.3156
  114OSM    C4F11931   1.600   4.561  10.497 -0.8159  0.3263  0.1486
  114OSM    H4F11932   1.494   4.559  10.464 -0.7784  1.3381 -0.0409
  114OSM    H4G11933   1.609   4.453  10.524 -0.9549 -0.1514 -1.5492
  114OSM    C5F11934   1.687   4.601  10.382  0.2582 -0.5878  0.0072
  114OSM    H5F11935   1.796   4.581  10.396 -0.0427 -3.2668 -0.9514
  114OSM    H5G11936   1.672   4.711  10.374 -1.3380 -0.8868 -2.2758
  114OSM    C6F11937   1.643   4.526  10.255 -0.4425  0.0845  0.1098
  114OSM    H6F11938   1.536   4.544  10.234 -0.8666 -0.8972  1.2966
  114OSM    H6G11939   1.658   4.418  10.274  2.1844  0.0740 -1.5497
  114OSM    C7F11940   1.716   4.572  10.133  0.4959  0.1211  0.3565
  114OSM    H7F11941   1.820   4.533  10.127  0.7570  0.9042 -0.4797
  114OSM    H7G11942   1.729   4.682  10.141  1.5097  0.1178 -0.8989
  114OSM    C8F11943   1.640   4.547   9.999  0.0283 -0.5276  0.1753
  114OSM    H8F11944   1.536   4.581  10.020 -0.6796 -1.9832 -0.7504
  114OSM    H8G11945   1.640   4.439   9.971 -2.6045 -1.2165  2.3581
  114OSM    C9F11946   1.701   4.637   9.898  0.2395  0.0379 -0.1988
  114OSM    H9F11947   1.716   4.740   9.933 -0.9171  0.0819  0.2315
  114OSM   C10F11948   1.733   4.604   9.778 -0.0134  0.2784 -0.2886
  114OSM   H10F11949   1.789   4.681   9.722  2.8199 -0.4637  1.3549
  114OSM   C11F11950   1.714   4.467   9.718 -0.2160  0.2991  0.1297
  114OSM   H11F11951   1.607   4.443   9.731 -0.2384  0.8686  1.0948
  114OSM   H11G11952   1.776   4.394   9.774  1.4157 -1.0736 -3.1673
  114OSM   C12F11953   1.746   4.444   9.568  0.1301  0.0030 -0.6839
  114OSM   H12F11954   1.661   4.491   9.514 -1.9485 -2.3863  0.2833
  114OSM   H12G11955   1.731   4.336   9.549 -0.8029 -0.0958  0.5113
  114OSM   C13F11956   1.892   4.488   9.525  0.3534  0.7402 -0.6637
  114OSM   H13F11957   1.954   4.441   9.604  1.7827 -0.5311 -2.4616
  114OSM   H13G11958   1.895   4.599   9.536 -0.1050  0.5390  1.8727
  114OSM   C14F11959   1.928   4.452   9.379 -0.0884 -0.4303 -0.1453
  114OSM   H14F11960   1.944   4.343   9.391 -1.7234 -0.7224 -0.4330
  114OSM   H14G11961   2.026   4.496   9.350  0.8460 -3.1939 -1.5007
  114OSM   C15F11962   1.822   4.486   9.274  0.2111  0.3561 -0.3862
  114OSM   H15F11963   1.824   4.597   9.264  2.4616  0.3018 -0.9838
  114OSM   H15G11964   1.716   4.459   9.297  0.2009  1.6392  1.2141
  114OSM   C16F11965   1.847   4.420   9.132 -0.3651  0.0620 -0.2322
  114OSM   H16F11966   1.950   4.377   9.140 -0.5472 -0.3138  0.0851
  114OSM   H16G11967   1.851   4.487   9.043  2.1923 -1.2866 -1.2567
  114OSM   C17F11968   1.755   4.303   9.110  0.6466  0.1967 -0.0970
  114OSM   H17F11969   1.655   4.348   9.097  0.4562 -0.6884 -1.9055
  114OSM   H17G11970   1.760   4.241   9.202 -0.7273  1.7592  1.0809
  114OSM   C18F11971   1.794   4.206   9.000  0.0052 -0.4558 -0.1759
  114OSM   H18F11972   1.889   4.150   9.014 -0.1743 -0.3084  1.8929
  114OSM   H18G11973   1.807   4.262   8.904  0.3687  2.5414  1.5118
  114OSM   H18H11974   1.712   4.131   8.990 -1.1313  0.6302  0.7421
  115OSM      N11975   4.737   3.579  11.920 -0.6786 -0.3602  0.1231
  115OSM    C1511976   4.591   3.589  11.911  0.2989 -0.0666 -0.0252
  115OSM   H15A11977   4.554   3.489  11.928  0.4862 -0.3346 -1.1071
  115OSM   H15B11978   4.555   3.623  11.815 -0.8541  0.6930  0.6562
  115OSM   H15C11979   4.538   3.643  11.988  0.3057 -2.2871  1.6234
  115OSM    C1411980   4.809   3.702  11.961  0.0287 -0.1187  0.3498
  115OSM   H14A11981   4.916   3.686  11.964  0.1929  1.0972  1.7177
  115OSM   H14B11982   4.794   3.743  12.059  1.0742 -0.8513  0.8414
  115OSM   H14C11983   4.787   3.779  11.888 -0.2130  1.4267  1.9917
  115OSM    C1311984   4.766   3.467  12.010  0.4795  0.2784 -0.3882
  115OSM   H13A11985   4.740   3.484  12.114 -1.5784 -1.9999 -0.4295
  115OSM   H13B11986   4.864   3.422  12.003 -1.1797 -3.5346 -1.7835
  115OSM   H13C11987   4.691   3.391  11.996  1.7794 -1.6037  1.9675
  115OSM    C1211988   4.795   3.528  11.787 -0.0599  0.1849 -0.4126
  115OSM   H12A11989   4.743   3.438  11.759 -0.3173  0.5873 -1.2589
  115OSM   H12B11990   4.894   3.484  11.790 -0.0483  0.0073 -2.0443
  115OSM    C1111991   4.797   3.627  11.665  0.2829 -0.7792 -0.5543
  115OSM   H11A11992   4.855   3.582  11.582  1.3816 -0.3387 -0.0389
  115OSM   H11B11993   4.846   3.723  11.693  1.9965 -1.7452 -0.1290
  115OSM      P11994   4.595   3.611  11.508  0.2964 -0.2063  0.6037
  115OSM    O1311995   4.604   3.464  11.509 -0.6925  0.4483  0.3224
  115OSM    O1411996   4.460   3.677  11.484  0.2858 -0.3839  0.1992
  115OSM    O1111997   4.684   3.659  11.388  0.2378  0.6176 -0.2573
  115OSM    O1211998   4.663   3.671  11.636 -0.0684 -0.5295  0.6697
  115OSM    C1S11999   4.689   3.582  11.264 -0.8196 -0.2821 -0.2206
  115OSM    H1S12000   4.587   3.556  11.227 -0.7014  0.8215 -1.4052
  115OSM    H1T12001   4.758   3.496  11.269  0.0917  0.4350 -0.2165
  115OSM     NF12002   4.723   3.613  11.023  0.1721  0.1156  0.0436
  115OSM    HNF12003   4.785   3.539  10.996 -0.8213 -0.2174 -1.3985
  115OSM    C2S12004   4.755   3.672  11.150 -0.1129  0.1350 -0.8063
  115OSM    H2S12005   4.703   3.769  11.145 -1.3793 -0.5580 -1.5721
  115OSM    C3S12006   4.908   3.687  11.173  0.5714  0.2503  0.0421
  115OSM    H3S12007   4.957   3.588  11.176 -2.4512 -1.3528  0.5665
  115OSM     O312008   4.933   3.723  11.312  0.2679 -0.1289 -0.7287
  115OSM    HO312009   4.848   3.716  11.355 -0.1567 -0.3006 -1.5579
  115OSM    C4S12010   4.970   3.797  11.086 -0.8387  0.3333 -0.2892
  115OSM    H4S12011   4.948   3.900  11.118 -0.1521  0.3181  0.2638
  115OSM    C5S12012   5.053   3.781  10.978 -0.0561 -0.0053 -0.3092
  115OSM    H5S12013   5.094   3.681  10.955  0.1301 -0.0298  0.1109
  115OSM    C6S12014   5.113   3.887  10.886 -0.1002 -0.7461 -0.0019
  115OSM    H6S12015   5.096   3.844  10.785 -3.8259 -1.0464  0.6052
  115OSM    H6T12016   5.222   3.894  10.909 -0.6002 -0.4663  2.5958
  115OSM    C7S12017   5.055   4.034  10.885 -0.3556  0.5990 -0.1164
  115OSM    H7S12018   5.065   4.068  10.990 -2.4449  1.1124 -0.0276
  115OSM    H7T12019   4.946   4.045  10.863 -0.3226 -0.3018 -0.7630
  115OSM    C8S12020   5.131   4.130  10.798 -0.0674  0.5398  0.2631
  115OSM    H8S12021   5.239   4.108  10.806 -0.1247  0.0303 -0.2351
  115OSM    H8T12022   5.124   4.234  10.836 -0.7656  0.3866  0.5725
  115OSM    C9S12023   5.082   4.131  10.654 -0.9092 -0.2880 -0.1264
  115OSM    H9S12024   4.974   4.155  10.659 -0.3833  2.1986  0.8214
  115OSM    H9T12025   5.097   4.043  10.589 -0.5260 -0.5598  0.3274
  115OSM   C10S12026   5.152   4.242  10.574  0.3431  0.3459  0.2385
  115OSM   H10S12027   5.261   4.239  10.592  0.3601 -1.5222  0.0575
  115OSM   H10T12028   5.110   4.336  10.615  0.5009  0.8540 -0.7548
  115OSM   C11S12029   5.121   4.226  10.419  0.3154  0.1041  0.1834
  115OSM   H11S12030   5.025   4.170  10.407  0.7017 -0.2135 -1.8790
  115OSM   H11T12031   5.195   4.157  10.373 -0.8721 -1.0294 -0.1177
  115OSM   C12S12032   5.123   4.362  10.354  0.2323 -0.0409  0.0355
  115OSM   H12S12033   5.227   4.400  10.355  0.5514 -0.8286 -1.4417
  115OSM   H12T12034   5.067   4.434  10.418  0.9104 -0.9019  1.6722
  115OSM   C13S12035   5.061   4.355  10.208  0.0429  0.2146 -0.1441
  115OSM   H13S12036   4.959   4.311  10.201  0.4088 -0.3647 -2.4002
  115OSM   H13T12037   5.128   4.301  10.139  0.4180  2.0251 -1.2817
  115OSM   C14S12038   5.053   4.504  10.149  0.0947 -0.0916 -0.0955
  115OSM   H14S12039   5.154   4.546  10.164  0.9369 -2.1853  0.5302
  115OSM   H14T12040   4.984   4.561  10.215  0.8522 -0.3271  0.9449
  115OSM   C15S12041   5.012   4.521  10.001 -0.2774 -0.0372  0.5240
  115OSM   H15S12042   5.063   4.453   9.931 -2.0884 -1.6980  0.7394
  115OSM   H15T12043   5.032   4.624   9.965  4.2142 -0.6857  0.6168
  115OSM   C16S12044   4.868   4.497   9.974 -0.0666 -0.3247  0.1020
  115OSM   H16S12045   4.800   4.573  10.017  1.6615  0.4907  1.4895
  115OSM   H16T12046   4.835   4.392   9.992 -0.5326 -0.4488 -1.3026
  115OSM   C17S12047   4.820   4.509   9.827 -0.3843  0.3369 -0.3658
  115OSM   H17S12048   4.885   4.442   9.767 -1.3857 -0.5435 -0.5000
  115OSM   H17T12049   4.824   4.618   9.802 -0.0742  0.4931  0.3501
  115OSM   C18S12050   4.674   4.451   9.800  0.5678  0.6594  0.0825
  115OSM   H18S12051   4.608   4.509   9.868 -1.8070 -0.0950 -1.4729
  115OSM   H18T12052   4.668   4.348   9.840  2.5896  0.2787 -0.4540
  115OSM   H18U12053   4.645   4.453   9.693 -0.5207 -0.6684  0.3387
  115OSM    C1F12054   4.595   3.613  10.974  0.0710 -0.9790 -0.4537
  115OSM     OF12055   4.522   3.692  11.030 -0.0506 -0.1526 -0.1263
  115OSM    C2F12056   4.562   3.520  10.865  0.3809 -0.2831  0.1815
  115OSM    H2F12057   4.509   3.434  10.910 -1.3903 -0.6111 -2.3091
  115OSM    H2G12058   4.653   3.480  10.815 -0.9540 -0.2526 -2.4597
  115OSM    C3F12059   4.465   3.589  10.762  0.3647  0.5039 -0.2058
  115OSM    H3F12060   4.509   3.676  10.710 -0.3947  2.2329  1.8738
  115OSM    H3G12061   4.374   3.611  10.822 -0.1349 -1.2824 -0.2438
  115OSM    C4F12062   4.430   3.483  10.658  0.4292 -0.0779  0.5278
  115OSM    H4F12063   4.335   3.508  10.607  0.1771 -2.3232 -0.2269
  115OSM    H4G12064   4.411   3.378  10.691  0.4904  0.3136  1.8661
  115OSM    C5F12065   4.539   3.473  10.541 -0.5554  0.2351 -0.8520
  115OSM    H5F12066   4.624   3.420  10.590 -0.5526  0.4676 -0.5986
  115OSM    H5G12067   4.562   3.574  10.502  0.0468  0.3829 -0.1566
  115OSM    C6F12068   4.505   3.389  10.419  0.4576  0.0796 -0.2760
  115OSM    H6F12069   4.413   3.436  10.379  0.3017  0.6285  0.7144
  115OSM    H6G12070   4.476   3.287  10.451 -1.9688  1.3525  1.9971
  115OSM    C7F12071   4.622   3.387  10.316  0.4655 -0.1357 -0.0476
  115OSM    H7F12072   4.598   3.303  10.247 -0.1991 -0.0305  0.0563
  115OSM    H7G12073   4.719   3.387  10.370  0.4157  0.6921  0.0455
  115OSM    C8F12074   4.626   3.516  10.220  0.1894  0.5328 -0.3736
  115OSM    H8F12075   4.632   3.607  10.285  0.6438 -1.8015  3.1454
  115OSM    H8G12076   4.527   3.529  10.170  0.0756 -0.3770 -0.4002
  115OSM    C9F12077   4.742   3.506  10.122  0.1604 -0.2867  0.0912
  115OSM    H9F12078   4.834   3.488  10.179  0.9489  0.1551 -1.0156
  115OSM   C10F12079   4.737   3.536   9.991 -0.5163  0.0184  0.0392
  115OSM   H10F12080   4.826   3.532   9.927 -1.9949  0.5436 -2.1589
  115OSM   C11F12081   4.621   3.576   9.910 -0.6696  0.1264 -0.2832
  115OSM   H11F12082   4.573   3.668   9.948 -2.9334 -0.1253 -2.2740
  115OSM   H11G12083   4.540   3.499   9.913 -0.3153 -0.2175  1.5070
  115OSM   C12F12084   4.650   3.600   9.765 -0.4154 -0.0019  0.6409
  115OSM   H12F12085   4.642   3.507   9.706  0.5495  0.9405 -1.0311
  115OSM   H12G12086   4.753   3.642   9.756 -1.6626  2.8184 -2.2695
  115OSM   C13F12087   4.540   3.693   9.702 -0.7665 -0.4268  0.3979
  115OSM   H13F12088   4.569   3.705   9.595 -0.3264 -2.7140  0.2074
  115OSM   H13G12089   4.539   3.796   9.744 -0.2914 -0.9324  1.6732
  115OSM   C14F12090   4.406   3.624   9.704 -0.7599  0.2768  0.6392
  115OSM   H14F12091   4.392   3.597   9.811 -0.7512  3.0099  1.4142
  115OSM   H14G12092   4.420   3.537   9.637 -0.9672  0.8105 -0.1080
  115OSM   C15F12093   4.290   3.714   9.655 -0.8394  0.4037  0.5732
  115OSM   H15F12094   4.333   3.728   9.553  0.2147 -0.4261  0.8772
  115OSM   H15G12095   4.292   3.812   9.707 -1.1091  0.6515  0.1178
  115OSM   C16F12096   4.142   3.661   9.666 -0.1049 -0.6540  0.1151
  115OSM   H16F12097   4.122   3.646   9.775  0.2394  3.1988  0.8641
  115OSM   H16G12098   4.126   3.571   9.603 -0.3315  0.4404 -1.4403
  115OSM   C17F12099   4.040   3.759   9.601 -0.1441  0.1384 -0.5469
  115OSM   H17F12100   4.054   3.855   9.656  0.4834 -0.6435  0.6780
  115OSM   H17G12101   3.934   3.727   9.609 -0.4696  1.0793 -0.8620
  115OSM   C18F12102   4.065   3.785   9.454 -0.4901 -0.5170  0.0767
  115OSM   H18F12103   4.062   3.690   9.397 -0.5354 -1.7279  2.0362
  115OSM   H18G12104   4.163   3.837   9.447 -0.8314  0.5514  2.3755
  115OSM   H18H12105   3.986   3.857   9.425 -0.0090  0.7245  1.6813
  116OSM      N12106   0.887   1.749  11.085 -0.0880 -0.0919 -0.1954
  116OSM    C1512107   0.818   1.646  11.172  0.4069 -0.0342  0.6220
  116OSM   H15A12108   0.769   1.688  11.258 -2.1923 -1.4335 -0.0861
  116OSM   H15B12109   0.886   1.586  11.230  0.9120  1.8293  2.0874
  116OSM   H15C12110   0.744   1.591  11.117  0.3482 -0.8957  1.5486
  116OSM    C1412111   0.795   1.801  10.982 -0.9029 -0.5693  0.1056
  116OSM   H14A12112   0.710   1.851  11.026 -1.3616  1.8305 -3.1267
  116OSM   H14B12113   0.757   1.718  10.923 -0.6145 -0.9066  0.3901
  116OSM   H14C12114   0.842   1.873  10.917  1.0174 -2.6474 -0.9654
  116OSM    C1312115   0.929   1.868  11.174 -0.5632 -0.3811 -0.3872
  116OSM   H13A12116   0.983   1.834  11.262 -0.2155  1.9298  0.3454
  116OSM   H13B12117   0.837   1.911  11.209 -0.0923  0.2664  0.0755
  116OSM   H13C12118   0.972   1.948  11.116 -1.1016  0.8601  0.8526
  116OSM    C1212119   1.006   1.689  11.015 -0.6766 -0.0793 -0.2910
  116OSM   H12A12120   1.076   1.649  11.087  0.3333 -0.7989 -1.6055
  116OSM   H12B12121   1.073   1.764  10.977  1.0068 -2.0959 -1.5702
  116OSM    C1112122   0.986   1.585  10.898  0.7999 -0.4091  0.3201
  116OSM   H11A12123   1.087   1.576  10.850  0.7451 -0.6063  0.2394
  116OSM   H11B12124   0.910   1.614  10.822 -1.4242 -2.2605  1.7334
  116OSM      P12125   1.045   1.363  11.013  0.2232  0.2665  0.0581
  116OSM    O1312126   1.161   1.435  11.074 -0.1938  0.3366 -0.3332
  116OSM    O1412127   0.981   1.254  11.090 -0.5556 -0.1550 -0.8414
  116OSM    O1112128   1.092   1.304  10.872 -0.0493  0.0955 -0.2446
  116OSM    O1212129   0.939   1.463  10.956 -0.0482 -0.5231 -0.7612
  116OSM    C1S12130   1.009   1.217  10.791  0.4850  0.5229 -0.6732
  116OSM    H1S12131   0.901   1.217  10.816  0.8702  0.3328  1.1233
  116OSM    H1T12132   1.040   1.111  10.806 -0.1924  0.3826 -0.2080
  116OSM     NF12133   0.937   1.145  10.565 -0.5565  0.1969  0.0443
  116OSM    HNF12134   0.983   1.065  10.526 -1.2774 -1.1959  1.8715
  116OSM    C2S12135   1.020   1.243  10.639 -0.3778  0.0748 -0.5423
  116OSM    H2S12136   0.982   1.346  10.624  0.5162  0.7896  1.6520
  116OSM    C3S12137   1.175   1.253  10.592 -0.0462  0.0037 -0.5839
  116OSM    H3S12138   1.220   1.152  10.607 -1.2599 -0.5409 -0.5109
  116OSM     O312139   1.263   1.336  10.668 -0.1612 -0.0592 -0.2170
  116OSM    HO312140   1.202   1.359  10.739 -0.7148 -0.6646 -0.4782
  116OSM    C4S12141   1.191   1.294  10.446 -1.1653  0.3706 -1.0100
  116OSM    H4S12142   1.164   1.397  10.418  0.7994  0.7850 -1.5639
  116OSM    C5S12143   1.247   1.204  10.358  0.1386 -0.5706  0.0911
  116OSM    H5S12144   1.264   1.102  10.397  0.0097  0.2023  2.3516
  116OSM    C6S12145   1.279   1.238  10.217  1.2786 -0.4967  0.2879
  116OSM    H6S12146   1.387   1.219  10.202  1.4210  0.5830 -0.1083
  116OSM    H6T12147   1.262   1.347  10.206  0.5395 -0.2947  2.7965
  116OSM    C7S12148   1.194   1.151  10.112 -0.2744 -0.1221 -0.3781
  116OSM    H7S12149   1.091   1.172  10.150  0.1261 -0.0849  0.7306
  116OSM    H7T12150   1.216   1.043  10.132  0.3230 -0.0166 -0.4580
  116OSM    C8S12151   1.206   1.208   9.970  0.4738  0.4287  0.3004
  116OSM    H8S12152   1.310   1.206   9.931  0.7655  0.9388  1.0361
  116OSM    H8T12153   1.185   1.317   9.969 -1.3937  0.1474  2.1749
  116OSM    C9S12154   1.120   1.138   9.861 -0.3190 -0.3441  0.0192
  116OSM    H9S12155   1.014   1.148   9.893 -0.4383 -1.7260  0.1280
  116OSM    H9T12156   1.146   1.030   9.863  1.5656  0.0826  0.1878
  116OSM   C10S12157   1.128   1.198   9.725 -0.5527  0.0726 -0.0194
  116OSM   H10S12158   1.231   1.230   9.698 -1.8568  3.1334 -1.8858
  116OSM   H10T12159   1.077   1.296   9.734 -1.8135 -0.6428  0.8741
  116OSM   C11S12160   1.086   1.103   9.613 -0.6330 -0.1818 -0.4760
  116OSM   H11S12161   0.984   1.071   9.643  0.0415  0.0315  2.3980
  116OSM   H11T12162   1.142   1.007   9.616 -1.7489 -0.8215  1.6494
  116OSM   C12S12163   1.092   1.166   9.476  0.1991 -0.1093 -0.3009
  116OSM   H12S12164   1.200   1.176   9.453  0.9553 -2.0097  1.9975
  116OSM   H12T12165   1.064   1.273   9.471 -1.0683 -0.4069  0.1783
  116OSM   C13S12166   1.017   1.087   9.366 -0.5975  0.2136 -0.2808
  116OSM   H13S12167   1.049   1.125   9.267 -0.2363 -0.4226 -0.4171
  116OSM   H13T12168   0.907   1.074   9.371 -0.5791 -2.0238 -3.0506
  116OSM   C14S12169   1.072   0.938   9.357  0.3351  0.5571 -0.2320
  116OSM   H14S12170   1.054   0.890   9.456 -0.1090  1.3520  0.0795
  116OSM   H14T12171   1.181   0.933   9.337  0.0647  0.3936 -1.8083
  116OSM   C15S12172   0.988   0.851   9.258  0.8658  0.6982 -0.5756
  116OSM   H15S12173   0.884   0.890   9.266  1.1901  1.2915  1.1593
  116OSM   H15T12174   0.991   0.751   9.306 -1.2073  1.1709  0.7058
  116OSM   C16S12175   1.045   0.855   9.116  0.3267  0.3114 -0.5298
  116OSM   H16S12176   1.153   0.831   9.121  0.6809  2.0083  0.8095
  116OSM   H16T12177   1.024   0.948   9.060 -0.6868 -0.6887 -1.8706
  116OSM   C17S12178   0.984   0.744   9.026  0.5793 -0.1591 -0.4022
  116OSM   H17S12179   0.877   0.766   9.005 -0.1785 -1.7790  1.4873
  116OSM   H17T12180   0.991   0.645   9.075 -0.0012 -0.0790 -0.1527
  116OSM   C18S12181   1.056   0.727   8.888 -0.5015 -0.3396  0.3376
  116OSM   H18S12182   0.999   0.649   8.832 -0.9394 -1.2455  1.9716
  116OSM   H18T12183   1.159   0.690   8.907  0.2304  1.6197  0.3710
  116OSM   H18U12184   1.070   0.821   8.831 -2.0951 -0.3231 -0.0659
  116OSM    C1F12185   0.809   1.134  10.581 -0.2229  0.2897 -0.2624
  116OSM     OF12186   0.749   1.232  10.608 -0.3226 -0.8774 -0.1601
  116OSM    C2F12187   0.750   0.999  10.569  0.0810  0.1920 -0.8883
  116OSM    H2F12188   0.710   0.977  10.671  1.2220  0.9643 -0.2528
  116OSM    H2G12189   0.829   0.928  10.538  0.6675 -0.0854  1.0678
  116OSM    C3F12190   0.630   1.005  10.466 -0.8134  0.3338 -0.0217
  116OSM    H3F12191   0.552   1.069  10.511 -1.6772  1.3092 -2.7559
  116OSM    H3G12192   0.587   0.903  10.454  1.0086 -0.4455 -0.3349
  116OSM    C4F12193   0.672   1.050  10.329 -0.2261  0.4172  0.5896
  116OSM    H4F12194   0.757   0.985  10.299 -0.5073  0.8424 -1.2681
  116OSM    H4G12195   0.695   1.159  10.329  0.2873  0.3210 -0.3327
  116OSM    C5F12196   0.556   1.029  10.222  0.3779  0.6449  0.1631
  116OSM    H5F12197   0.462   1.077  10.257  1.4980  1.6514  1.9927
  116OSM    H5G12198   0.540   0.919  10.224  0.4803  0.6011 -1.0813
  116OSM    C6F12199   0.616   1.076  10.087 -0.1287 -0.5608  0.1941
  116OSM    H6F12200   0.707   1.015  10.067  0.9174  1.1764 -0.6504
  116OSM    H6G12201   0.659   1.178  10.101  1.4967 -1.3335  1.1560
  116OSM    C7F12202   0.514   1.080   9.972 -0.2075  0.6009 -0.0024
  116OSM    H7F12203   0.438   1.154  10.006 -0.9901  0.8336 -2.0985
  116OSM    H7G12204   0.453   0.990   9.948  1.7401 -1.1664  1.3009
  116OSM    C8F12205   0.580   1.139   9.846  0.0952 -0.6981 -0.5151
  116OSM    H8F12206   0.639   1.227   9.877  0.9209 -0.7961 -1.7341
  116OSM    H8G12207   0.501   1.177   9.779 -0.8863 -0.1996  0.8669
  116OSM    C9F12208   0.673   1.037   9.779 -0.7565 -0.3549 -0.2286
  116OSM    H9F12209   0.725   0.969   9.848 -3.2452 -0.3796  1.7631
  116OSM   C10F12210   0.693   1.033   9.651 -0.1348  0.1245 -0.0488
  116OSM   H10F12211   0.760   0.956   9.610  0.9238  0.3732  1.1395
  116OSM   C11F12212   0.637   1.130   9.549  0.1882 -0.3379 -0.0040
  116OSM   H11F12213   0.714   1.162   9.474 -1.3390  0.0175 -1.4904
  116OSM   H11G12214   0.583   1.217   9.591  0.0265  0.0275 -0.9317
  116OSM   C12F12215   0.537   1.060   9.450  0.4266 -0.0382 -0.2077
  116OSM   H12F12216   0.454   1.008   9.502  2.7973 -5.2262 -0.9988
  116OSM   H12G12217   0.598   0.976   9.411  0.7397 -0.2471  0.7210
  116OSM   C13F12218   0.491   1.163   9.351  0.4150  0.3995 -0.1395
  116OSM   H13F12219   0.449   1.110   9.262 -0.0657  0.6762 -0.0808
  116OSM   H13G12220   0.573   1.228   9.313  0.7093  0.7422  1.0391
  116OSM   C14F12221   0.376   1.250   9.394  0.1048  0.0253 -0.6777
  116OSM   H14F12222   0.399   1.308   9.487  0.3606 -1.3809  0.1605
  116OSM   H14G12223   0.305   1.182   9.444  1.4936  0.9122  2.8503
  116OSM   C15F12224   0.317   1.331   9.275 -0.0492  0.2194  0.5061
  116OSM   H15F12225   0.241   1.406   9.309 -0.0053  2.0322 -2.9110
  116OSM   H15G12226   0.265   1.265   9.203  2.0241  0.6720 -1.5327
  116OSM   C16F12227   0.406   1.422   9.194  0.1819 -0.0055 -0.3535
  116OSM   H16F12228   0.460   1.364   9.116  1.4307  0.4045  0.1791
  116OSM   H16G12229   0.485   1.471   9.256  0.4367 -0.2765 -0.4612
  116OSM   C17F12230   0.325   1.534   9.118  0.1008  0.2648  0.5959
  116OSM   H17F12231   0.259   1.600   9.178 -1.2044  0.5525 -1.0761
  116OSM   H17G12232   0.258   1.479   9.049  2.7571 -0.9073 -1.2363
  116OSM   C18F12233   0.425   1.624   9.044 -0.0464 -0.7211  0.3364
  116OSM   H18F12234   0.485   1.571   8.967 -0.6793 -1.2927  0.2335
  116OSM   H18G12235   0.494   1.678   9.112 -1.3427  2.1850 -0.5351
  116OSM   H18H12236   0.364   1.697   8.987 -2.2317 -2.3825  0.4401
  117OSM      N12237   5.539   1.290  11.297  0.4504 -0.4003  0.0013
  117OSM    C1512238   5.558   1.201  11.416 -0.1478  0.1522  0.8496
  117OSM   H15A12239   5.583   1.260  11.503 -0.7297 -0.9640  1.8032
  117OSM   H15B12240   5.639   1.132  11.400  1.4459  2.3451 -1.2028
  117OSM   H15C12241   5.470   1.142  11.433  0.3327 -0.7576  0.2440
  117OSM    C1412242   5.672   1.337  11.268 -0.4307 -1.1209  0.1747
  117OSM   H14A12243   5.712   1.386  11.356 -1.7277  0.4102 -0.0459
  117OSM   H14B12244   5.662   1.422  11.203  0.6864 -0.6889  0.5462
  117OSM   H14C12245   5.735   1.262  11.222  0.7388 -0.1754  0.1765
  117OSM    C1312246   5.489   1.205  11.184  0.3752 -0.3767 -0.1791
  117OSM   H13A12247   5.401   1.155  11.220  0.6728 -1.3957 -0.8121
  117OSM   H13B12248   5.561   1.132  11.146 -0.1245 -0.7037 -0.5106
  117OSM   H13C12249   5.462   1.263  11.097 -0.0248  1.2579  1.0014
  117OSM    C1212250   5.443   1.401  11.322  0.4022 -0.2908  0.1333
  117OSM   H12A12251   5.350   1.359  11.356 -0.5497  0.8600 -0.9494
  117OSM   H12B12252   5.415   1.452  11.231  0.1751  0.2202  0.4815
  117OSM    C1112253   5.483   1.514  11.423  0.2401 -0.6651 -0.1544
  117OSM   H11A12254   5.503   1.465  11.521  1.5273  3.8405  2.1219
  117OSM   H11B12255   5.406   1.591  11.446 -0.5943 -1.4434 -0.2784
  117OSM      P12256   5.619   1.685  11.284  0.2235  0.2059 -0.0710
  117OSM    O1312257   5.545   1.799  11.342 -0.4812  0.1883  0.1890
  117OSM    O1412258   5.762   1.694  11.267 -0.1388 -0.4212  0.4072
  117OSM    O1112259   5.544   1.621  11.160  0.2776  0.3309 -0.7184
  117OSM    O1212260   5.601   1.576  11.393  0.0804 -0.1861  0.0300
  117OSM    C1S12261   5.561   1.691  11.034 -0.5625 -0.6347 -0.6271
  117OSM    H1S12262   5.667   1.693  11.001 -0.6177 -0.8602 -0.8167
  117OSM    H1T12263   5.524   1.795  11.046  0.5514 -0.5104  3.0959
  117OSM     NF12264   5.517   1.697  10.789  0.6760  0.1316 -0.6480
  117OSM    HNF12265   5.457   1.775  10.779  0.0350  0.1651  2.4309
  117OSM    C2S12266   5.484   1.628  10.912 -0.6386  0.0031 -0.7157
  117OSM    H2S12267   5.521   1.523  10.915 -1.6835 -0.3501  0.8672
  117OSM    C3S12268   5.330   1.620  10.941 -0.2429 -0.1311  0.0134
  117OSM    H3S12269   5.293   1.725  10.947 -1.1878 -0.4621  0.1072
  117OSM     O312270   5.312   1.560  11.068 -0.0350 -0.3285  0.8776
  117OSM    HO312271   5.379   1.602  11.122  2.4416 -2.6684 -0.1331
  117OSM    C4S12272   5.257   1.539  10.838  0.1489 -0.5314  0.0138
  117OSM    H4S12273   5.266   1.433  10.863 -0.5723 -0.2800  1.4312
  117OSM    C5S12274   5.190   1.593  10.731  0.2663 -0.0697  0.0194
  117OSM    H5S12275   5.205   1.699  10.710  1.3299 -0.7062 -2.8557
  117OSM    C6S12276   5.127   1.505  10.625  0.5864 -0.1877 -0.0080
  117OSM    H6S12277   5.021   1.536  10.620  0.3313 -1.1594 -0.9860
  117OSM    H6T12278   5.121   1.401  10.662 -1.9572 -0.1463 -0.1732
  117OSM    C7S12279   5.201   1.495  10.487  0.4040  0.0912  0.5384
  117OSM    H7S12280   5.168   1.400  10.439 -1.6740  0.4666  1.1143
  117OSM    H7T12281   5.310   1.487  10.511 -0.2485 -2.1082  3.4066
  117OSM    C8S12282   5.159   1.621  10.405  0.2724  0.3686 -0.0353
  117OSM    H8S12283   5.238   1.696  10.425  0.5903  0.0170  0.0427
  117OSM    H8T12284   5.061   1.658  10.440 -0.0302  0.2883 -0.7767
  117OSM    C9S12285   5.142   1.602  10.255 -0.0553  0.7647  0.3935
  117OSM    H9S12286   5.087   1.686  10.207 -0.5112 -0.6014 -1.6034
  117OSM    H9T12287   5.079   1.513  10.238  0.2671  0.6174 -0.0616
  117OSM   C10S12288   5.278   1.604  10.179  0.5633 -0.1122  0.2206
  117OSM   H10S12289   5.362   1.557  10.234  2.2354 -1.1665 -2.9596
  117OSM   H10T12290   5.302   1.712  10.168 -1.0478  0.3361  0.7804
  117OSM   C11S12291   5.259   1.541  10.044 -0.5490  0.3857  0.2299
  117OSM   H11S12292   5.267   1.432  10.065  0.7916  0.1521 -1.3763
  117OSM   H11T12293   5.347   1.569   9.983  0.1129  4.1632  2.5432
  117OSM   C12S12294   5.128   1.559   9.969  0.2370 -0.0016  0.4679
  117OSM   H12S12295   5.105   1.667   9.960 -0.0504 -0.0917  0.0946
  117OSM   H12T12296   5.051   1.510  10.032 -0.6021  1.3482  0.5420
  117OSM   C13S12297   5.126   1.507   9.825 -0.2918  0.5379 -0.5754
  117OSM   H13S12298   5.038   1.440   9.810  0.5096 -0.9713  1.0279
  117OSM   H13T12299   5.205   1.431   9.811  0.1638  0.8549  0.2179
  117OSM   C14S12300   5.141   1.618   9.725 -0.1603 -0.3084 -0.1178
  117OSM   H14S12301   5.241   1.665   9.741  0.7714 -2.3409  0.2627
  117OSM   H14T12302   5.050   1.681   9.736 -1.2920 -1.6791 -1.2444
  117OSM   C15S12303   5.152   1.574   9.579 -0.2396  0.0754  0.5911
  117OSM   H15S12304   5.060   1.517   9.552  0.4577  0.3512 -2.8720
  117OSM   H15T12305   5.240   1.513   9.552  0.0687  1.5792 -2.2441
  117OSM   C16S12306   5.171   1.690   9.475 -0.3527 -0.4694  0.1973
  117OSM   H16S12307   5.106   1.777   9.499  1.4632  1.1483 -0.4761
  117OSM   H16T12308   5.136   1.643   9.381 -0.5963 -0.3510  0.2257
  117OSM   C17S12309   5.312   1.736   9.449  0.6752  0.0128 -0.2324
  117OSM   H17S12310   5.362   1.641   9.419 -1.0694 -0.4849 -1.7237
  117OSM   H17T12311   5.354   1.762   9.549  0.0478 -1.2810  0.3932
  117OSM   C18S12312   5.333   1.831   9.328  0.0862 -0.2524 -0.5557
  117OSM   H18S12313   5.272   1.797   9.241 -0.2328  1.6957 -1.1340
  117OSM   H18T12314   5.441   1.828   9.303  0.1766 -1.3784 -0.1040
  117OSM   H18U12315   5.293   1.932   9.351  0.5264 -0.9432  4.3461
  117OSM    C1F12316   5.634   1.689  10.728  0.2733  0.2969  0.5171
  117OSM     OF12317   5.731   1.626  10.770 -0.3057  0.3620 -0.5793
  117OSM    C2F12318   5.645   1.765  10.594  0.4210  0.3488  0.2841
  117OSM    H2F12319   5.708   1.855  10.612  0.1151  0.7027 -0.3750
  117OSM    H2G12320   5.543   1.793  10.559 -0.0517  0.5080  1.7408
  117OSM    C3F12321   5.730   1.687  10.485  0.4162  0.2047 -0.4069
  117OSM    H3F12322   5.831   1.658  10.521  0.1601 -2.4781 -1.6178
  117OSM    H3G12323   5.752   1.751  10.397  1.1257  0.5925  0.0389
  117OSM    C4F12324   5.644   1.577  10.429  0.6862 -0.0430  0.7126
  117OSM    H4F12325   5.537   1.606  10.415  0.0820 -2.5947 -0.5417
  117OSM    H4G12326   5.629   1.487  10.493 -3.6942 -0.0941 -0.0286
  117OSM    C5F12327   5.697   1.519  10.296  0.0151  0.0986 -0.4752
  117OSM    H5F12328   5.633   1.431  10.275 -3.2001  2.1364  0.1018
  117OSM    H5G12329   5.801   1.483  10.309 -0.9080 -3.0144 -0.9324
  117OSM    C6F12330   5.692   1.621  10.187  0.0892 -0.5655  0.5428
  117OSM    H6F12331   5.708   1.730  10.201 -1.0340 -0.1443 -1.1734
  117OSM    H6G12332   5.585   1.628  10.160  0.2017  1.7697  0.5060
  117OSM    C7F12333   5.781   1.583  10.067 -0.2461 -0.3507  0.0182
  117OSM    H7F12334   5.881   1.572  10.113 -0.5397  1.9333  1.3690
  117OSM    H7G12335   5.780   1.670   9.998 -0.0539 -0.5589 -0.2502
  117OSM    C8F12336   5.739   1.456   9.991  0.1548 -0.4122  0.1764
  117OSM    H8F12337   5.750   1.358  10.043  0.5710  0.5486  1.9528
  117OSM    H8G12338   5.808   1.457   9.904 -1.1389  1.0846 -0.8940
  117OSM    C9F12339   5.601   1.464   9.935  0.2605  0.2980  0.4961
  117OSM    H9F12340   5.518   1.460  10.007 -0.7130  0.8535 -0.5605
  117OSM   C10F12341   5.561   1.475   9.808  0.6765  0.4833 -0.0778
  117OSM   H10F12342   5.455   1.475   9.778  0.6504  2.0202 -0.0717
  117OSM   C11F12343   5.643   1.485   9.678 -0.6281 -0.0710 -0.2199
  117OSM   H11F12344   5.591   1.426   9.600  0.8177 -0.9578 -0.5545
  117OSM   H11G12345   5.743   1.438   9.688 -1.5447 -1.5653  3.9157
  117OSM   C12F12346   5.672   1.634   9.648  0.1588 -0.0967  0.2179
  117OSM   H12F12347   5.737   1.671   9.731 -0.2699 -0.1120  0.5665
  117OSM   H12G12348   5.581   1.698   9.641 -0.0685 -0.2737  1.3004
  117OSM   C13F12349   5.757   1.661   9.528  0.5625  0.6408  0.2633
  117OSM   H13F12350   5.859   1.617   9.523 -0.1698 -1.1263  0.2319
  117OSM   H13G12351   5.787   1.767   9.539  2.9785 -0.0125  0.5271
  117OSM   C14F12352   5.670   1.647   9.397  0.2101  0.7149  0.6083
  117OSM   H14F12353   5.581   1.713   9.404  0.1762  0.8699 -0.9992
  117OSM   H14G12354   5.626   1.545   9.395  1.2059  0.2807  0.0770
  117OSM   C15F12355   5.751   1.666   9.268 -0.2181  0.4558  0.3056
  117OSM   H15F12356   5.796   1.766   9.284 -2.5983  1.3772  1.7167
  117OSM   H15G12357   5.689   1.662   9.176 -0.1703 -1.3757  0.3074
  117OSM   C16F12358   5.862   1.560   9.254 -0.2075  0.1503  0.3045
  117OSM   H16F12359   5.815   1.460   9.245 -2.5851  1.2241 -0.1201
  117OSM   H16G12360   5.932   1.553   9.339  1.5189 -0.3188 -1.1075
  117OSM   C17F12361   5.945   1.589   9.132 -0.4823 -0.2085  0.5580
  117OSM   H17F12362   6.022   1.509   9.122 -0.5889 -0.1245 -1.1865
  117OSM   H17G12363   6.008   1.679   9.148 -0.3285 -0.5038  1.6806
  117OSM   C18F12364   5.864   1.603   9.001  0.2394 -0.1440  0.1023
  117OSM   H18F12365   5.802   1.513   8.981 -2.2405  1.0930  1.7674
  117OSM   H18G12366   5.928   1.631   8.915 -2.2941 -0.4754 -1.9936
  117OSM   H18H12367   5.787   1.682   9.006 -1.2414 -1.3827 -1.7619
  118OSM      N12368   6.734   3.414  11.181 -0.0196 -0.0632  0.2875
  118OSM    C1512369   6.840   3.311  11.182  0.2321  0.3164 -0.2445
  118OSM   H15A12370   6.809   3.217  11.138  0.9851 -0.2478  0.4050
  118OSM   H15B12371   6.863   3.281  11.283 -1.7404  2.5274  0.9480
  118OSM   H15C12372   6.924   3.343  11.122 -0.7472  0.0956 -1.7950
  118OSM    C1412373   6.787   3.541  11.222  0.3374 -0.0634 -0.0515
  118OSM   H14A12374   6.810   3.542  11.327  0.3919 -1.5236 -0.0318
  118OSM   H14B12375   6.722   3.622  11.193 -0.3869 -0.5465  0.1907
  118OSM   H14C12376   6.881   3.546  11.168 -1.4143 -1.3552 -3.5838
  118OSM    C1312377   6.697   3.420  11.035  0.6102 -0.0326 -0.1049
  118OSM   H13A12378   6.619   3.494  11.022  1.3186  0.7318 -0.0662
  118OSM   H13B12379   6.675   3.322  10.994  1.9744  0.0581 -1.0857
  118OSM   H13C12380   6.775   3.460  10.972  0.1395 -2.6739 -2.5799
  118OSM    C1212381   6.611   3.380  11.261  0.3607 -0.4684 -0.4590
  118OSM   H12A12382   6.649   3.346  11.357  0.5188  0.6150 -0.1229
  118OSM   H12B12383   6.567   3.288  11.225 -1.6993 -0.4717  1.7952
  118OSM    C1112384   6.500   3.479  11.285  0.1286  0.6939 -0.4234
  118OSM   H11A12385   6.537   3.573  11.333 -0.5578  0.8833 -0.2490
  118OSM   H11B12386   6.433   3.437  11.364 -4.2489 -0.3047 -4.2371
  118OSM      P12387   6.336   3.378  11.118  0.5272  0.0469  0.2086
  118OSM    O1312388   6.408   3.282  11.040  0.2382 -0.7017 -0.0301
  118OSM    O1412389   6.259   3.328  11.229  0.0241  0.6217 -0.0692
  118OSM    O1112390   6.230   3.450  11.023 -0.0805  0.1368 -0.5165
  118OSM    O1212391   6.428   3.500  11.166  0.3186  0.0752  0.1785
  118OSM    C1S12392   6.274   3.527  10.913  0.5722 -0.1725 -0.3612
  118OSM    H1S12393   6.383   3.517  10.895  0.7828 -1.9593  1.5491
  118OSM    H1T12394   6.265   3.630  10.953 -2.5644  0.7024 -2.8925
  118OSM     NF12395   6.254   3.585  10.675 -0.4934 -0.2822 -0.3813
  118OSM    HNF12396   6.256   3.684  10.680 -2.1028 -0.1452 -1.7203
  118OSM    C2S12397   6.191   3.519  10.785  0.0142  0.5852  0.8133
  118OSM    H2S12398   6.177   3.412  10.761 -2.9413  0.8426  1.0881
  118OSM    C3S12399   6.051   3.579  10.814 -0.6945 -0.1842  0.3866
  118OSM    H3S12400   6.059   3.685  10.848 -0.0719 -0.7191  2.0321
  118OSM     O312401   5.993   3.524  10.932 -0.0675  0.3579  0.2975
  118OSM    HO312402   6.072   3.494  10.978 -0.6210 -1.5684  0.0740
  118OSM    C4S12403   5.958   3.556  10.698 -0.2079  0.2088 -0.5617
  118OSM    H4S12404   5.948   3.450  10.668 -0.0932 -0.2513  0.9257
  118OSM    C5S12405   5.883   3.655  10.646 -0.7177 -0.6205 -1.0906
  118OSM    H5S12406   5.898   3.752  10.696 -2.0027 -1.0586  0.2040
  118OSM    C6S12407   5.785   3.659  10.533  0.6473 -0.2583 -0.2280
  118OSM    H6S12408   5.816   3.732  10.455  0.2364  0.1995  0.0266
  118OSM    H6T12409   5.685   3.693  10.566  0.2265 -0.0027 -1.6859
  118OSM    C7S12410   5.763   3.524  10.469  0.6516  0.0573 -0.1867
  118OSM    H7S12411   5.722   3.448  10.539 -0.0748 -0.5144 -1.2111
  118OSM    H7T12412   5.859   3.494  10.422  0.8427 -0.0926  0.2889
  118OSM    C8S12413   5.651   3.524  10.363  0.2540 -0.3286  0.0754
  118OSM    H8S12414   5.661   3.625  10.317 -2.3408 -0.1617 -0.3144
  118OSM    H8T12415   5.546   3.519  10.401  0.1156  0.7777 -0.1152
  118OSM    C9S12416   5.666   3.414  10.250 -0.1001 -0.5984 -0.9957
  118OSM    H9S12417   5.607   3.324  10.276 -2.0626  0.7709 -0.5126
  118OSM    H9T12418   5.771   3.376  10.250  1.1058  1.9222  3.1625
  118OSM   C10S12419   5.639   3.478  10.112 -0.5833  0.2372 -0.1977
  118OSM   H10S12420   5.723   3.546  10.085 -0.2411 -0.3273 -0.5736
  118OSM   H10T12421   5.554   3.544  10.140 -0.7821 -0.3920  0.7233
  118OSM   C11S12422   5.622   3.384   9.997 -0.1628 -0.7522 -0.1891
  118OSM   H11S12423   5.546   3.306  10.019  0.1737 -0.6039  1.6012
  118OSM   H11T12424   5.717   3.327   9.987 -0.4763 -1.2294 -0.5016
  118OSM   C12S12425   5.599   3.462   9.865 -0.0242  0.4758  0.4806
  118OSM   H12S12426   5.514   3.532   9.880 -0.4672 -0.0989  0.7008
  118OSM   H12T12427   5.552   3.396   9.788 -1.1687  1.1574  0.5649
  118OSM   C13S12428   5.724   3.539   9.817  0.0483 -0.1406 -0.3408
  118OSM   H13S12429   5.810   3.473   9.841  0.5243 -0.3241 -2.3834
  118OSM   H13T12430   5.732   3.632   9.877 -0.0860  0.8210 -1.7775
  118OSM   C14S12431   5.711   3.566   9.666 -0.4660  0.2248  0.9207
  118OSM   H14S12432   5.770   3.655   9.636  0.0855 -0.9023 -1.6288
  118OSM   H14T12433   5.603   3.571   9.642  0.0269  1.5406 -1.3231
  118OSM   C15S12434   5.771   3.449   9.586  0.0049 -0.5158 -0.2076
  118OSM   H15S12435   5.733   3.350   9.620  0.4034 -0.2592  1.0343
  118OSM   H15T12436   5.882   3.444   9.591  0.1739  0.2607 -2.2261
  118OSM   C16S12437   5.737   3.451   9.433 -0.7764 -0.5525 -0.7273
  118OSM   H16S12438   5.794   3.537   9.392 -2.8106  1.9213  1.3112
  118OSM   H16T12439   5.631   3.474   9.411 -1.3882 -2.1190  0.3943
  118OSM   C17S12440   5.776   3.318   9.369  0.0074 -0.1465  0.1296
  118OSM   H17S12441   5.712   3.242   9.417  0.0023 -1.6428 -2.1097
  118OSM   H17T12442   5.884   3.301   9.390 -0.1280 -1.3028 -0.0590
  118OSM   C18S12443   5.730   3.317   9.226 -0.3764  0.1798 -0.3936
  118OSM   H18S12444   5.798   3.381   9.166 -0.6017  1.3728  0.5729
  118OSM   H18T12445   5.625   3.351   9.212 -1.3764 -2.0070  1.2228
  118OSM   H18U12446   5.743   3.213   9.191  0.6598 -0.1841  0.9646
  118OSM    C1F12447   6.361   3.530  10.628  0.1172 -0.0945 -0.1777
  118OSM     OF12448   6.362   3.406  10.639  0.0316  0.0950 -0.1359
  118OSM    C2F12449   6.464   3.618  10.575 -0.0156  0.5510  0.2296
  118OSM    H2F12450   6.551   3.596  10.640  0.2101 -0.2230 -0.3157
  118OSM    H2G12451   6.442   3.726  10.584  1.2117  0.7734  0.6284
  118OSM    C3F12452   6.474   3.598  10.421 -0.0887  0.2967 -0.2938
  118OSM    H3F12453   6.377   3.621  10.371  0.8553  0.3714 -2.1635
  118OSM    H3G12454   6.508   3.494  10.401 -0.7866 -0.0141  0.1011
  118OSM    C4F12455   6.577   3.693  10.365  0.1600  0.2718 -0.7746
  118OSM    H4F12456   6.670   3.673  10.422 -0.6043  3.3497  1.8124
  118OSM    H4G12457   6.554   3.796  10.398  1.5066  0.6755 -1.0409
  118OSM    C5F12458   6.615   3.668  10.219  0.7304 -0.9058  0.0485
  118OSM    H5F12459   6.647   3.565  10.192 -0.7927 -1.1847 -0.8022
  118OSM    H5G12460   6.694   3.745  10.207 -1.6958  1.8392  0.6913
  118OSM    C6F12461   6.490   3.707  10.133 -0.1940 -0.3957 -0.2616
  118OSM    H6F12462   6.463   3.809  10.166  0.6615  0.1334 -1.1359
  118OSM    H6G12463   6.409   3.634  10.156 -0.2787 -1.0551 -2.4186
  118OSM    C7F12464   6.511   3.704   9.988 -0.4617  0.1041  1.1168
  118OSM    H7F12465   6.538   3.601   9.957 -1.6067  0.0234  0.3159
  118OSM    H7G12466   6.584   3.783   9.958  1.3332 -1.0951  2.1402
  118OSM    C8F12467   6.376   3.756   9.913  0.1681 -0.2530 -0.1821
  118OSM    H8F12468   6.362   3.856   9.961  1.1848  0.5365 -1.4667
  118OSM    H8G12469   6.294   3.683   9.934 -1.9084  2.2974  1.2401
  118OSM    C9F12470   6.405   3.796   9.768 -0.2597  0.1058 -0.1696
  118OSM    H9F12471   6.490   3.863   9.753  0.3959 -0.5803  0.3948
  118OSM   C10F12472   6.347   3.750   9.656 -0.1471  0.0192 -0.2821
  118OSM   H10F12473   6.370   3.794   9.558 -1.0098  1.3337  0.0822
  118OSM   C11F12474   6.234   3.651   9.646 -0.1958  0.5000  0.8187
  118OSM   H11F12475   6.149   3.702   9.597  0.2998  0.3117 -0.2645
  118OSM   H11G12476   6.211   3.608   9.746 -1.9256 -0.6195 -0.0156
  118OSM   C12F12477   6.291   3.528   9.570  0.2021 -0.2320  0.4999
  118OSM   H12F12478   6.235   3.433   9.583  2.1667 -1.5899 -0.3777
  118OSM   H12G12479   6.391   3.504   9.612  0.3549  0.3792  0.5022
  118OSM   C13F12480   6.315   3.549   9.424  0.3156 -0.6603 -0.3355
  118OSM   H13F12481   6.396   3.478   9.397  2.0977  0.7189  1.1083
  118OSM   H13G12482   6.351   3.650   9.397 -1.1149  0.1215  0.5425
  118OSM   C14F12483   6.193   3.527   9.340 -0.4612 -0.2643  0.2719
  118OSM   H14F12484   6.110   3.599   9.358 -1.2965 -1.2458  0.4677
  118OSM   H14G12485   6.156   3.424   9.359  0.8506 -1.2293 -2.0142
  118OSM   C15F12486   6.231   3.517   9.195 -0.6536 -0.4167  0.2017
  118OSM   H15F12487   6.287   3.421   9.195 -0.5395 -0.3533 -0.5647
  118OSM   H15G12488   6.287   3.609   9.169 -1.4206  0.2579  0.8688
  118OSM   C16F12489   6.117   3.503   9.092 -0.3699 -0.6673  0.7308
  118OSM   H16F12490   6.067   3.404   9.103  1.6470 -1.8738 -0.3185
  118OSM   H16G12491   6.160   3.505   8.989  0.0721  0.2164  0.9258
  118OSM   C17F12492   6.002   3.606   9.108  0.1891 -0.5068  0.4466
  118OSM   H17F12493   6.039   3.710   9.096  2.8828 -1.4470  0.0311
  118OSM   H17G12494   5.949   3.590   9.205 -1.2987 -0.5564 -0.3346
  118OSM   C18F12495   5.895   3.586   9.002 -0.2381  0.1849 -0.3103
  118OSM   H18F12496   5.854   3.483   8.999  1.0087 -0.3292 -2.4241
  118OSM   H18G12497   5.936   3.607   8.900  0.7824  0.3235  0.1142
  118OSM   H18H12498   5.815   3.656   9.032  0.1049  0.1851  0.6268
  119OSM      N12499   6.467   2.587  11.144 -0.1205 -0.0347 -0.1908
  119OSM    C1512500   6.430   2.501  11.256  0.1902  0.2035  0.2636
  119OSM   H15A12501   6.501   2.426  11.287  1.7084  1.8119  0.8776
  119OSM   H15B12502   6.338   2.448  11.238  0.5088 -0.3403  0.2026
  119OSM   H15C12503   6.411   2.556  11.347 -0.0104 -2.0508  1.6785
  119OSM    C1412504   6.484   2.501  11.019 -0.1353 -0.3352  0.3554
  119OSM   H14A12505   6.437   2.540  10.930 -1.4666 -1.0184  0.7281
  119OSM   H14B12506   6.432   2.408  11.035 -0.6916 -0.1252 -0.2017
  119OSM   H14C12507   6.590   2.486  11.004 -0.6202 -1.1656 -3.2484
  119OSM    C1312508   6.343   2.669  11.122 -0.2577 -0.2611  0.2250
  119OSM   H13A12509   6.258   2.603  11.113 -0.5112 -0.3949  2.8933
  119OSM   H13B12510   6.347   2.721  11.028 -3.7286  0.5806  0.4000
  119OSM   H13C12511   6.318   2.736  11.203 -6.1186 -0.6877 -0.8187
  119OSM    C1212512   6.588   2.676  11.183  0.3803 -0.4842 -0.0235
  119OSM   H12A12513   6.560   2.737  11.268  1.8889  0.9567 -0.5115
  119OSM   H12B12514   6.621   2.738  11.102  0.3737 -1.2967 -0.6585
  119OSM    C1112515   6.718   2.610  11.235  0.3422  0.3911 -0.2750
  119OSM   H11A12516   6.695   2.552  11.327  2.2808  0.6817  0.4468
  119OSM   H11B12517   6.787   2.690  11.268  1.0614 -1.3521  2.8475
  119OSM      P12518   6.855   2.583  11.011 -0.0183 -0.1461 -0.3670
  119OSM    O1312519   6.817   2.725  10.986  0.0856 -0.6349 -0.4833
  119OSM    O1412520   7.002   2.563  11.032  0.5547  0.6935 -0.0879
  119OSM    O1112521   6.807   2.495  10.886  0.4179 -0.0210  0.1807
  119OSM    O1212522   6.780   2.526  11.134 -0.0461 -0.0390  1.1145
  119OSM    C1S12523   6.787   2.543  10.752  0.5080  0.1947 -0.0150
  119OSM    H1S12524   6.870   2.605  10.713  0.5210  1.4888  1.9369
  119OSM    H1T12525   6.704   2.617  10.742  0.5334  0.3632  0.9392
  119OSM     NF12526   6.736   2.492  10.513  0.6439  0.1196  0.1257
  119OSM    HNF12527   6.642   2.484  10.480  0.7098 -0.8930  0.1482
  119OSM    C2S12528   6.745   2.435  10.644 -0.0608 -1.2940 -0.4586
  119OSM    H2S12529   6.833   2.368  10.637  0.1713 -1.3416  2.2034
  119OSM    C3S12530   6.625   2.355  10.700  0.3870  1.2105 -0.1100
  119OSM    H3S12531   6.535   2.420  10.698  0.2056  0.9376 -1.3228
  119OSM     O312532   6.649   2.294  10.827  0.2205  0.5833 -0.0674
  119OSM    HO312533   6.721   2.342  10.869 -1.0730  3.2790 -0.7017
  119OSM    C4S12534   6.606   2.237  10.613  0.0994  0.0218 -0.0543
  119OSM    H4S12535   6.674   2.152  10.631  0.0138 -0.0977 -0.2827
  119OSM    C5S12536   6.505   2.215  10.527 -0.1860 -0.4837 -0.4215
  119OSM    H5S12537   6.437   2.300  10.509  0.5575  0.1659 -0.1699
  119OSM    C6S12538   6.491   2.106  10.433 -0.2444 -0.2938 -0.6477
  119OSM    H6S12539   6.417   2.036  10.478  1.8469  0.3701  4.4552
  119OSM    H6T12540   6.589   2.057  10.416 -0.0581  0.1569 -0.8946
  119OSM    C7S12541   6.446   2.164  10.296 -0.8607  0.1453  0.1341
  119OSM    H7S12542   6.343   2.206  10.298 -0.4561  1.1445  1.0948
  119OSM    H7T12543   6.441   2.067  10.242  1.6551 -2.3607  3.8667
  119OSM    C8S12544   6.524   2.277  10.245 -0.2126 -0.3157 -0.6461
  119OSM    H8S12545   6.626   2.267  10.287 -0.1627 -1.0897 -0.9334
  119OSM    H8T12546   6.483   2.375  10.278 -1.7934 -0.7323 -1.2643
  119OSM    C9S12547   6.532   2.291  10.097 -0.0747  0.2193  0.7906
  119OSM    H9S12548   6.432   2.293  10.048  0.8289  0.6113 -1.1634
  119OSM    H9T12549   6.572   2.201  10.045 -2.0347  0.1752 -0.7867
  119OSM   C10S12550   6.617   2.414  10.061 -0.1210 -0.7033 -0.1500
  119OSM   H10S12551   6.726   2.392  10.073  0.1644  0.5625 -0.2579
  119OSM   H10T12552   6.596   2.492  10.138  1.5849 -1.7070  1.4056
  119OSM   C11S12553   6.583   2.454   9.914  0.4677  0.3110  0.1537
  119OSM   H11S12554   6.476   2.482   9.916  0.6229  1.3314 -2.3013
  119OSM   H11T12555   6.584   2.365   9.847  0.5782 -0.5007  1.2105
  119OSM   C12S12556   6.665   2.570   9.841  0.9443 -0.0876 -0.6964
  119OSM   H12S12557   6.768   2.533   9.825  1.0493 -0.1433  0.0707
  119OSM   H12T12558   6.661   2.648   9.920 -0.4151  0.1615 -0.9806
  119OSM   C13S12559   6.604   2.621   9.712 -0.3389  0.2700  0.0631
  119OSM   H13S12560   6.610   2.553   9.624 -0.6964  1.0128 -0.5482
  119OSM   H13T12561   6.667   2.706   9.680  0.4290 -0.9370 -1.8725
  119OSM   C14S12562   6.454   2.661   9.725  0.4510  0.4394  0.7988
  119OSM   H14S12563   6.436   2.700   9.827 -0.6584  1.8548  0.1045
  119OSM   H14T12564   6.397   2.566   9.732 -1.7380  1.7421  1.4838
  119OSM   C15S12565   6.400   2.758   9.613  0.1339 -0.1845 -0.3028
  119OSM   H15S12566   6.484   2.788   9.546  1.3891 -2.7767 -0.0230
  119OSM   H15T12567   6.370   2.851   9.665 -0.9070  0.1279 -1.4000
  119OSM   C16S12568   6.271   2.709   9.540 -0.0861 -0.5975  0.3103
  119OSM   H16S12569   6.217   2.789   9.486  1.6537  1.8293  1.9293
  119OSM   H16T12570   6.201   2.684   9.623  0.0494 -0.7826  0.3724
  119OSM   C17S12571   6.284   2.583   9.451 -0.6556 -0.0180 -0.4630
  119OSM   H17S12572   6.184   2.547   9.417  0.4164 -0.7856 -3.0538
  119OSM   H17T12573   6.316   2.501   9.519 -1.0668  0.8210  0.7619
  119OSM   C18S12574   6.378   2.602   9.331 -0.4896  0.0037 -0.1966
  119OSM   H18S12575   6.340   2.679   9.261  2.6454  1.4339 -0.4874
  119OSM   H18T12576   6.383   2.504   9.278 -1.7766 -0.1716 -0.0281
  119OSM   H18U12577   6.481   2.624   9.364 -0.9610  0.7714  0.8264
  119OSM    C1F12578   6.833   2.563  10.451  0.6661  0.8580  1.0944
  119OSM     OF12579   6.939   2.591  10.503 -0.1088  0.3140 -0.6193
  119OSM    C2F12580   6.817   2.589  10.305 -0.4625 -0.3857  0.3368
  119OSM    H2F12581   6.707   2.582  10.288 -0.6809  3.2601 -0.6613
  119OSM    H2G12582   6.871   2.511  10.246  1.6954 -0.8919  2.8030
  119OSM    C3F12583   6.865   2.724  10.262 -0.7390 -0.0093 -0.3918
  119OSM    H3F12584   6.975   2.711  10.263 -0.7359  0.0275  0.4878
  119OSM    H3G12585   6.844   2.810  10.329 -0.2465  0.3481 -0.6924
  119OSM    C4F12586   6.817   2.765  10.119  0.2548  0.8069 -0.0359
  119OSM    H4F12587   6.711   2.793  10.136 -0.2542 -1.1385  0.2333
  119OSM    H4G12588   6.822   2.679  10.048 -1.4422  0.1978  0.5471
  119OSM    C5F12589   6.899   2.888  10.058 -0.5001  0.0942  0.6742
  119OSM    H5F12590   6.875   2.968  10.132 -1.2006 -1.4169  2.1298
  119OSM    H5G12591   6.853   2.916   9.961 -0.7589 -2.9391 -0.1598
  119OSM    C6F12592   7.045   2.865  10.035  0.4665  0.0609 -0.5979
  119OSM    H6F12593   7.061   2.771   9.978  0.2361  0.6004 -1.5955
  119OSM    H6G12594   7.093   2.853  10.134 -1.6906  0.1198  0.5024
  119OSM    C7F12595   7.122   2.963   9.941  0.3493  0.3579 -0.0956
  119OSM    H7F12596   7.107   2.931   9.836 -1.4625 -0.4878  0.3865
  119OSM    H7G12597   7.231   2.950   9.957 -0.2991 -3.2909  2.8854
  119OSM    C8F12598   7.095   3.119   9.954 -0.2217 -0.0357  0.5604
  119OSM    H8F12599   6.988   3.135   9.930  0.0999  1.1197 -0.2006
  119OSM    H8G12600   7.148   3.170   9.871 -0.2460  0.8492  1.0650
  119OSM    C9F12601   7.133   3.169  10.093  0.7713 -0.1243 -0.7385
  119OSM    H9F12602   7.123   3.099  10.178  1.7839  0.9643  0.3186
  119OSM   C10F12603   7.174   3.291  10.122  0.5982  0.1702 -0.0167
  119OSM   H10F12604   7.189   3.325  10.225  3.2807  1.6423 -0.7915
  119OSM   C11F12605   7.190   3.404  10.023  0.2269  0.4270  0.3204
  119OSM   H11F12606   7.142   3.386   9.924  0.5701  1.3002 -0.0123
  119OSM   H11G12607   7.300   3.415  10.011  0.2273 -0.9879 -1.6049
  119OSM   C12F12608   7.135   3.538  10.085 -0.0048  0.3458 -0.2020
  119OSM   H12F12609   7.177   3.620  10.023  1.6813 -0.1388  0.2474
  119OSM   H12G12610   7.175   3.559  10.187  0.2835 -0.1646 -0.2092
  119OSM   C13F12611   6.977   3.551  10.098 -0.2870 -0.2103  0.2678
  119OSM   H13F12612   6.971   3.650  10.148 -1.9012  0.6734 -1.5695
  119OSM   H13G12613   6.939   3.478  10.173 -0.9139 -1.2591 -1.0279
  119OSM   C14F12614   6.892   3.545   9.971  0.4477  0.0901  0.4596
  119OSM   H14F12615   6.788   3.578   9.992 -0.6236 -0.5437 -3.2350
  119OSM   H14G12616   6.887   3.445   9.924 -1.2321  1.1237 -1.7181
  119OSM   C15F12617   6.945   3.636   9.865  0.1695 -0.7928  0.3024
  119OSM   H15F12618   7.045   3.609   9.827 -0.6221 -1.3861 -1.4679
  119OSM   H15G12619   6.959   3.737   9.907  4.8231 -0.8941 -0.5297
  119OSM   C16F12620   6.834   3.654   9.757 -0.4149  0.3123  0.3142
  119OSM   H16F12621   6.867   3.743   9.698  1.0065 -1.0715 -1.0674
  119OSM   H16G12622   6.733   3.671   9.800 -0.9871 -0.0553 -0.8473
  119OSM   C17F12623   6.818   3.542   9.662 -1.2597 -0.3511 -0.6701
  119OSM   H17F12624   6.794   3.447   9.715  0.1345 -1.1886 -1.4896
  119OSM   H17G12625   6.918   3.525   9.618 -0.9834  2.0116 -1.0975
  119OSM   C18F12626   6.713   3.561   9.553  0.0481  0.7978  0.2614
  119OSM   H18F12627   6.709   3.469   9.489 -2.2933  1.0009  0.0318
  119OSM   H18G12628   6.748   3.650   9.498  0.4711  0.4288 -0.0764
  119OSM   H18H12629   6.614   3.584   9.597 -0.2096  1.6848 -0.7494
  120OSM      N12630   6.228   5.288  10.729 -0.0510  0.0621  0.5809
  120OSM    C1512631   6.350   5.372  10.758  0.2122  0.3512  0.2425
  120OSM   H15A12632   6.389   5.413  10.665  1.6728 -0.0363  0.6534
  120OSM   H15B12633   6.427   5.315  10.808  1.5255  0.3090 -1.6909
  120OSM   H15C12634   6.331   5.466  10.808 -0.9155  0.0715  0.3647
  120OSM    C1412635   6.266   5.193  10.619 -1.0908 -0.0244  0.2373
  120OSM   H14A12636   6.312   5.248  10.538 -2.7445  0.3077 -0.5138
  120OSM   H14B12637   6.173   5.146  10.592 -1.8951  1.1693  0.8805
  120OSM   H14C12638   6.340   5.119  10.646  0.4914  1.1401 -0.7100
  120OSM    C1312639   6.175   5.205  10.841  0.3080  0.1126 -0.2545
  120OSM   H13A12640   6.086   5.153  10.811  1.0382 -1.1962 -0.2357
  120OSM   H13B12641   6.169   5.268  10.929  1.9503  1.9909 -1.3991
  120OSM   H13C12642   6.243   5.126  10.870 -1.4221 -0.7056  1.8092
  120OSM    C1212643   6.123   5.385  10.681 -0.6375 -0.6135 -0.3636
  120OSM   H12A12644   6.041   5.321  10.652 -1.5424  0.4068 -0.1378
  120OSM   H12B12645   6.163   5.444  10.599  2.7046 -0.7936  1.0184
  120OSM    C1112646   6.061   5.485  10.792  0.2600 -0.0018  0.3916
  120OSM   H11A12647   6.012   5.420  10.869 -0.0076  2.2133  2.1847
  120OSM   H11B12648   5.980   5.547  10.748 -1.1720 -1.6735  0.5436
  120OSM      P12649   6.200   5.705  10.816 -0.4472  0.0417 -0.2406
  120OSM    O1312650   6.092   5.794  10.862 -0.1371 -0.7532  0.0617
  120OSM    O1412651   6.340   5.736  10.867 -0.2030  0.1898 -0.4928
  120OSM    O1112652   6.212   5.705  10.662  0.1271 -0.5049  0.1772
  120OSM    O1212653   6.165   5.561  10.859 -0.0847 -0.0836  0.0664
  120OSM    C1S12654   6.319   5.779  10.595 -0.1716 -0.4407 -0.5624
  120OSM    H1S12655   6.408   5.714  10.580 -0.3188 -0.4437 -1.4398
  120OSM    H1T12656   6.351   5.873  10.645  2.7680 -1.4003 -0.3934
  120OSM     NF12657   6.396   5.855  10.366 -0.2870  0.1449 -0.4885
  120OSM    HNF12658   6.394   5.952  10.346 -1.5838  0.2053 -0.1835
  120OSM    C2S12659   6.282   5.815  10.444 -0.4987  0.2803 -0.0805
  120OSM    H2S12660   6.248   5.722  10.392 -0.0784  0.9342 -1.5794
  120OSM    C3S12661   6.165   5.927  10.441 -0.2320  0.2288 -0.1622
  120OSM    H3S12662   6.208   6.026  10.466 -0.6666 -0.2954  2.9898
  120OSM     O312663   6.055   5.906  10.537 -0.6369  0.2674  0.2071
  120OSM    HO312664   6.075   5.826  10.585 -1.1791  1.2071  2.1049
  120OSM    C4S12665   6.107   5.919  10.298  0.2007 -0.3859  0.0220
  120OSM    H4S12666   6.041   5.832  10.288  1.2051 -1.3689  1.4973
  120OSM    C5S12667   6.124   6.001  10.192  0.1327 -0.2523 -0.3824
  120OSM    H5S12668   6.202   6.076  10.206  0.2225 -0.3858 -0.1444
  120OSM    C6S12669   6.063   5.996  10.046  0.2605  0.5502 -0.0313
  120OSM    H6S12670   5.972   6.059  10.051 -0.4954 -0.5502  0.6940
  120OSM    H6T12671   6.030   5.894  10.014 -0.8333  1.7737 -3.2091
  120OSM    C7S12672   6.163   6.044   9.944 -0.4887 -0.9294 -0.4282
  120OSM    H7S12673   6.257   5.986   9.935  1.5418  1.8179  1.5826
  120OSM    H7T12674   6.205   6.140   9.980  0.2149 -2.1824  2.3241
  120OSM    C8S12675   6.093   6.062   9.807  0.2449 -0.6951  0.5566
  120OSM    H8S12676   6.119   6.161   9.762 -1.5200 -0.4670 -0.0378
  120OSM    H8T12677   5.986   6.058   9.835  0.2878 -0.0773  0.8324
  120OSM    C9S12678   6.151   5.964   9.705 -0.3707  0.1259 -0.2135
  120OSM    H9S12679   6.144   5.864   9.752  1.6347  0.3482  0.6648
  120OSM    H9T12680   6.259   5.979   9.683 -0.2966  0.3567  0.3038
  120OSM   C10S12681   6.072   5.959   9.570 -0.5386 -0.5055  0.3203
  120OSM   H10S12682   5.967   5.936   9.599 -0.9790  0.1497 -0.6962
  120OSM   H10T12683   6.110   5.873   9.511 -1.5325 -0.5813 -0.2410
  120OSM   C11S12684   6.081   6.092   9.488  0.0828  0.2006 -0.6926
  120OSM   H11S12685   6.172   6.148   9.517  0.7444 -0.0619 -2.1474
  120OSM   H11T12686   6.000   6.161   9.517  1.9945  1.5377  1.8997
  120OSM   C12S12687   6.102   6.073   9.333  0.4812  0.0448 -0.0899
  120OSM   H12S12688   6.188   6.006   9.313  2.1432  2.2223 -0.6583
  120OSM   H12T12689   6.122   6.173   9.287 -0.3674  1.0912  1.6797
  120OSM   C13S12690   5.980   5.987   9.276 -0.0580  0.5293  0.3328
  120OSM   H13S12691   5.880   6.028   9.303 -0.9567 -1.2408 -0.1943
  120OSM   H13T12692   5.996   5.883   9.310  2.1092  0.5476 -0.4768
  120OSM   C14S12693   5.978   5.991   9.122 -0.6538  0.3287 -0.7706
  120OSM   H14S12694   6.063   5.932   9.082  0.9986  2.4328 -0.5830
  120OSM   H14T12695   5.993   6.090   9.073  0.4099 -0.4735 -2.1342
  120OSM   C15S12696   5.851   5.931   9.060  0.0875  1.0245  0.0566
  120OSM   H15S12697   5.877   5.926   8.952  1.2294  1.3454  0.3093
  120OSM   H15T12698   5.756   5.988   9.066 -1.6448 -1.4297 -1.8094
  120OSM   C16S12699   5.807   5.790   9.127  0.0111  0.2130 -0.5325
  120OSM   H16S12700   5.770   5.811   9.230 -1.8546  0.3715 -1.2113
  120OSM   H16T12701   5.901   5.730   9.132 -0.8301 -1.2711 -1.9156
  120OSM   C17S12702   5.705   5.715   9.038  0.5078 -0.2781  0.1201
  120OSM   H17S12703   5.766   5.680   8.953 -0.2314  1.1752 -1.0505
  120OSM   H17T12704   5.635   5.789   8.993  1.8434  0.2107 -1.1990
  120OSM   C18S12705   5.628   5.593   9.101  0.7808  0.9688 -0.1230
  120OSM   H18S12706   5.538   5.566   9.042  2.0126 -1.3330 -1.0847
  120OSM   H18T12707   5.595   5.626   9.202  1.1678 -1.9142  1.0532
  120OSM   H18U12708   5.691   5.502   9.118  2.1524  1.9632  0.2697
  120OSM    C1F12709   6.500   5.774  10.337 -0.2105 -0.7902  0.4949
  120OSM     OF12710   6.486   5.654  10.344 -0.2810  0.1387 -0.1889
  120OSM    C2F12711   6.633   5.832  10.293 -0.6735  0.1338  0.0898
  120OSM    H2F12712   6.716   5.759  10.279  1.8895  2.2406  2.7574
  120OSM    H2G12713   6.673   5.908  10.364  0.1209  0.3708 -0.5895
  120OSM    C3F12714   6.616   5.900  10.155  0.3623  0.1574  0.3204
  120OSM    H3F12715   6.710   5.957  10.134  0.1249  0.8786  1.1618
  120OSM    H3G12716   6.527   5.966  10.163  0.5886  0.6766 -1.1792
  120OSM    C4F12717   6.578   5.807  10.032 -0.2169 -0.5382 -0.7450
  120OSM    H4F12718   6.500   5.733  10.058  0.5175 -0.5910  1.5380
  120OSM    H4G12719   6.671   5.748  10.015  0.3500 -0.4822  1.8142
  120OSM    C5F12720   6.542   5.880   9.901  0.5868  0.3512  0.1425
  120OSM    H5F12721   6.620   5.956   9.879  1.9275 -1.0277 -0.0579
  120OSM    H5G12722   6.445   5.931   9.917 -0.1144 -1.0752  0.5456
  120OSM    C6F12723   6.522   5.781   9.782 -0.3120  0.3004  0.6707
  120OSM    H6F12724   6.416   5.748   9.786  0.1195 -1.3002 -0.0741
  120OSM    H6G12725   6.583   5.693   9.813  0.2352 -0.3694 -2.0538
  120OSM    C7F12726   6.565   5.854   9.651 -0.0501 -0.5319  0.1183
  120OSM    H7F12727   6.669   5.883   9.678 -0.3795  0.2732  0.5368
  120OSM    H7G12728   6.511   5.950   9.642 -1.5330 -1.3556 -0.0095
  120OSM    C8F12729   6.566   5.776   9.511  0.0341 -0.4399  0.4643
  120OSM    H8F12730   6.609   5.674   9.526 -0.1702 -1.1137 -2.8388
  120OSM    H8G12731   6.629   5.841   9.447 -1.0469  1.7693  1.5558
  120OSM    C9F12732   6.423   5.761   9.464  0.1733  0.6933 -0.3925
  120OSM    H9F12733   6.366   5.696   9.532  2.1006 -0.4505  0.2228
  120OSM   C10F12734   6.372   5.810   9.349 -0.0300 -0.2767  0.6037
  120OSM   H10F12735   6.266   5.800   9.320  0.5740  0.0681 -1.9858
  120OSM   C11F12736   6.439   5.888   9.237  0.1511 -0.7128 -0.1985
  120OSM   H11F12737   6.532   5.932   9.278 -2.5249  2.8163  2.7176
  120OSM   H11G12738   6.381   5.980   9.218 -1.5779 -1.4500  1.2645
  120OSM   C12F12739   6.459   5.805   9.106  0.2897  0.5904 -0.3983
  120OSM   H12F12740   6.362   5.755   9.086 -0.8326  1.6701  1.9239
  120OSM   H12G12741   6.537   5.726   9.113  0.8194  1.1054 -0.4312
  120OSM   C13F12742   6.487   5.894   8.977 -0.4506  0.4148 -0.3020
  120OSM   H13F12743   6.396   5.953   8.954  1.3279  2.7833 -1.6831
  120OSM   H13G12744   6.509   5.817   8.901 -0.2338 -0.7087  0.8669
  120OSM   C14F12745   6.592   6.007   8.988  0.0562 -0.6511 -0.0203
  120OSM   H14F12746   6.684   5.962   9.032  0.0080  0.2032  0.9997
  120OSM   H14G12747   6.561   6.089   9.056  2.1483  0.8215 -0.7444
  120OSM   C15F12748   6.643   6.071   8.862 -0.6987  0.3102 -0.0464
  120OSM   H15F12749   6.558   6.116   8.807 -0.6676  0.3573 -0.0560
  120OSM   H15G12750   6.691   5.996   8.794  0.9513  1.1260  0.1650
  120OSM   C16F12751   6.742   6.185   8.908 -0.2090  0.1941  0.3978
  120OSM   H16F12752   6.823   6.138   8.967  0.2651  0.9073  0.3211
  120OSM   H16G12753   6.689   6.260   8.970  1.0502  0.3084  1.3629
  120OSM   C17F12754   6.807   6.249   8.781  0.1209 -0.1583 -0.0571
  120OSM   H17F12755   6.892   6.312   8.814  2.0040 -2.3420 -0.4690
  120OSM   H17G12756   6.730   6.313   8.732  1.6640  0.8437 -1.2570
  120OSM   C18F12757   6.873   6.161   8.670  0.2378 -0.2730  0.4147
  120OSM   H18F12758   6.915   6.227   8.590 -0.7044  1.0420  0.9679
  120OSM   H18G12759   6.792   6.101   8.622 -1.2678  1.7603  0.2755
  120OSM   H18H12760   6.946   6.086   8.705 -1.1949 -1.6124  0.6730
  121OSM      N12761   4.748   1.910  10.941  0.0465 -0.0257  0.2556
  121OSM    C1512762   4.869   1.817  10.944  0.0700  1.0169 -0.4772
  121OSM   H15A12763   4.955   1.853  10.888  0.4082  1.6376  0.4146
  121OSM   H15B12764   4.842   1.722  10.902 -0.1402 -0.1980  2.2267
  121OSM   H15C12765   4.889   1.800  11.049 -1.0578 -0.6931 -0.5029
  121OSM    C1412766   4.681   1.904  10.806 -0.2732  0.0125 -0.0116
  121OSM   H14A12767   4.600   1.971  10.781 -0.6420 -0.9589 -1.5454
  121OSM   H14B12768   4.647   1.802  10.801  1.4833 -0.6261  0.3885
  121OSM   H14C12769   4.754   1.926  10.729  0.6884 -0.4940  0.7381
  121OSM    C1312770   4.649   1.874  11.047 -0.6355  0.5248 -0.1139
  121OSM   H13A12771   4.693   1.906  11.140  1.2682 -0.5445 -0.5889
  121OSM   H13B12772   4.622   1.769  11.042  0.1232  0.3530 -1.1306
  121OSM   H13C12773   4.554   1.922  11.033 -1.6984 -1.0195  1.4553
  121OSM    C1212774   4.795   2.048  10.967 -0.5222  0.1123  0.6097
  121OSM   H12A12775   4.834   2.044  11.068  1.4790  0.0411 -0.1187
  121OSM   H12B12776   4.707   2.111  10.972  0.5468  1.6453  1.0777
  121OSM    C1112777   4.898   2.120  10.879  0.1004  0.2900 -0.4231
  121OSM   H11A12778   4.891   2.225  10.914 -0.3836  0.3887 -0.8018
  121OSM   H11B12779   4.869   2.118  10.771  0.3322  0.2982 -0.4856
  121OSM      P12780   5.116   2.090  11.020  0.0197 -0.0742 -0.2618
  121OSM    O1312781   5.033   2.104  11.143 -0.8040 -0.2938  0.0330
  121OSM    O1412782   5.218   1.981  11.029  0.1745  0.1131 -0.1250
  121OSM    O1112783   5.188   2.230  10.987  0.6521 -0.4059  0.1232
  121OSM    O1212784   5.030   2.070  10.891  0.3429 -0.6082 -0.9384
  121OSM    C1S12785   5.272   2.252  10.874 -0.1133  0.6073 -0.0111
  121OSM    H1S12786   5.304   2.153  10.835  2.7491  0.8681  1.3905
  121OSM    H1T12787   5.362   2.308  10.908 -0.1283  1.1744 -0.8555
  121OSM     NF12788   5.275   2.309  10.630  0.1357 -0.1357  0.6039
  121OSM    HNF12789   5.313   2.392  10.589  0.1437 -0.3314  0.2092
  121OSM    C2S12790   5.206   2.325  10.756  0.8841  0.0684  0.5051
  121OSM    H2S12791   5.105   2.281  10.742  0.9352  0.5435 -1.7934
  121OSM    C3S12792   5.189   2.462  10.803  0.3557 -0.2793  0.4724
  121OSM    H3S12793   5.290   2.507  10.818  1.5800 -2.4281 -0.7298
  121OSM     O312794   5.113   2.477  10.925 -0.1605 -0.0528  0.2365
  121OSM    HO312795   5.107   2.386  10.955 -0.2500 -0.2406 -0.3316
  121OSM    C4S12796   5.122   2.550  10.700 -0.4950  0.1206 -0.8384
  121OSM    H4S12797   5.196   2.604  10.639  0.6772 -0.0949  0.3395
  121OSM    C5S12798   4.995   2.568  10.668  0.7528  0.1405 -0.2464
  121OSM    H5S12799   4.919   2.524  10.734 -0.3109  1.4051 -0.5705
  121OSM    C6S12800   4.946   2.660  10.560 -0.1878 -0.0872  0.0224
  121OSM    H6S12801   4.924   2.763  10.594 -0.4491  0.3430 -1.4078
  121OSM    H6T12802   4.848   2.622  10.523 -1.3347  1.3822  1.4174
  121OSM    C7S12803   5.033   2.677  10.426  0.4709  0.2942 -0.5695
  121OSM    H7S12804   5.133   2.722  10.444  1.4309 -1.9169 -0.0421
  121OSM    H7T12805   4.978   2.752  10.365  0.2329 -0.1597 -0.9286
  121OSM    C8S12806   5.041   2.549  10.351 -0.0156 -0.3133 -0.0839
  121OSM    H8S12807   4.944   2.518  10.307  0.8117 -0.8300 -1.6583
  121OSM    H8T12808   5.060   2.463  10.419 -1.7122 -0.3527  0.3767
  121OSM    C9S12809   5.132   2.558  10.230 -0.2283  0.0197  0.1450
  121OSM    H9S12810   5.123   2.465  10.169  1.0871  0.8617 -1.4230
  121OSM    H9T12811   5.237   2.583  10.256 -0.0013 -1.2841  0.5823
  121OSM   C10S12812   5.075   2.660  10.136  0.0407 -0.2326  0.1203
  121OSM   H10S12813   5.075   2.762  10.180  1.4579 -1.1107  2.3599
  121OSM   H10T12814   4.967   2.645  10.115 -0.5680  1.9925  1.3299
  121OSM   C11S12815   5.144   2.668   9.999 -0.4440  0.5380  0.2167
  121OSM   H11S12816   5.196   2.571   9.982 -0.1193  0.8258 -0.4490
  121OSM   H11T12817   5.234   2.733  10.002  1.3443 -1.8156  0.6931
  121OSM   C12S12818   5.065   2.716   9.883 -0.2659  0.5201  0.3979
  121OSM   H12S12819   5.097   2.822   9.873  1.4441  0.0734  0.6382
  121OSM   H12T12820   4.957   2.731   9.900 -0.5585  2.9656 -2.6790
  121OSM   C13S12821   5.073   2.637   9.750  0.6219  0.1523 -0.4662
  121OSM   H13S12822   5.018   2.545   9.782 -0.3372  1.4204  1.7502
  121OSM   H13T12823   5.170   2.609   9.703 -0.3509 -1.0526 -1.9002
  121OSM   C14S12824   4.995   2.706   9.632 -0.0390  1.1683  0.2886
  121OSM   H14S12825   5.025   2.813   9.632  1.9942  0.6682 -1.5343
  121OSM   H14T12826   4.884   2.710   9.637 -0.3629 -2.7520 -0.5353
  121OSM   C15S12827   5.053   2.653   9.501  0.5217 -0.2424  0.3176
  121OSM   H15S12828   5.026   2.546   9.486  0.7777 -0.1791 -0.6878
  121OSM   H15T12829   5.163   2.667   9.492  0.7028 -1.9358 -0.5103
  121OSM   C16S12830   4.988   2.734   9.386  0.3400 -0.0485  0.2428
  121OSM   H16S12831   4.963   2.836   9.423  0.6106 -0.6286  2.0762
  121OSM   H16T12832   4.892   2.680   9.370 -0.2491  0.6676  1.2754
  121OSM   C17S12833   5.071   2.759   9.256 -0.0440  0.9385 -0.7557
  121OSM   H17S12834   5.166   2.813   9.277 -0.3755  1.3142 -0.1562
  121OSM   H17T12835   5.027   2.820   9.174 -1.4497  1.0277  0.0347
  121OSM   C18S12836   5.092   2.621   9.179  0.3686  0.2422 -0.4023
  121OSM   H18S12837   4.995   2.585   9.141  0.2219 -2.0173  1.8585
  121OSM   H18T12838   5.128   2.548   9.254  2.9615  2.9796  1.2808
  121OSM   H18U12839   5.161   2.643   9.095 -0.8979  2.5561 -0.9180
  121OSM    C1F12840   5.293   2.197  10.558 -0.3883 -0.1387 -0.5085
  121OSM     OF12841   5.255   2.089  10.604 -0.1211 -0.4089  0.0827
  121OSM    C2F12842   5.368   2.211  10.431 -0.3707  0.2086 -0.2125
  121OSM    H2F12843   5.443   2.293  10.431  0.4721 -0.4996  1.9413
  121OSM    H2G12844   5.306   2.221  10.339  2.3702  1.0739 -2.1168
  121OSM    C3F12845   5.455   2.078  10.421  0.0322 -0.2074  0.2061
  121OSM    H3F12846   5.386   1.992  10.407 -0.1255 -0.0190 -0.1758
  121OSM    H3G12847   5.505   2.040  10.513  1.4302 -0.7351 -0.7335
  121OSM    C4F12848   5.552   2.068  10.305 -0.0975  0.0060 -0.4028
  121OSM    H4F12849   5.622   1.983  10.319 -1.3086 -1.0859 -0.7963
  121OSM    H4G12850   5.612   2.161  10.315 -2.4904  1.5018  0.9489
  121OSM    C5F12851   5.475   2.061  10.172  0.4269  0.3138 -0.0067
  121OSM    H5F12852   5.409   2.149  10.161  1.8482  1.3977 -0.0616
  121OSM    H5G12853   5.407   1.973  10.184  2.2542 -0.9684  1.5399
  121OSM    C6F12854   5.561   2.031  10.053  0.4605  0.4319  0.9986
  121OSM    H6F12855   5.622   1.938  10.064 -2.0523 -1.5295 -0.5150
  121OSM    H6G12856   5.626   2.115  10.022  0.2639 -0.0396 -0.7963
  121OSM    C7F12857   5.470   1.999   9.936  0.3322  0.2266  1.1263
  121OSM    H7F12858   5.421   2.092   9.898 -0.8208 -0.2973  1.2914
  121OSM    H7G12859   5.393   1.923   9.957 -2.4275  1.7966 -2.2424
  121OSM    C8F12860   5.550   1.925   9.822  0.1091  0.3614  0.4202
  121OSM    H8F12861   5.482   1.897   9.740  2.2396  0.3228 -1.4307
  121OSM    H8G12862   5.593   1.829   9.858  0.0342  0.3561  0.4954
  121OSM    C9F12863   5.658   2.015   9.779 -0.7699 -0.1758 -0.1090
  121OSM    H9F12864   5.740   2.045   9.846 -0.5925  0.7878 -0.7285
  121OSM   C10F12865   5.662   2.080   9.661 -0.4949  0.1619 -0.4868
  121OSM   H10F12866   5.741   2.155   9.645  0.4370 -0.2499  1.8632
  121OSM   C11F12867   5.569   2.075   9.546 -0.0196 -0.7344  0.0504
  121OSM   H11F12868   5.508   2.167   9.529 -1.7461 -2.0982 -1.6424
  121OSM   H11G12869   5.482   2.006   9.547 -1.0775  0.5403  1.4385
  121OSM   C12F12870   5.645   2.069   9.410  0.6163  0.0309 -0.5895
  121OSM   H12F12871   5.620   1.974   9.358  3.6294 -0.7540 -0.8012
  121OSM   H12G12872   5.753   2.066   9.433  0.7250 -0.0736 -1.0974
  121OSM   C13F12873   5.611   2.181   9.316  0.0614  0.1443 -0.2440
  121OSM   H13F12874   5.627   2.282   9.360 -0.4553  1.4558 -2.8833
  121OSM   H13G12875   5.501   2.172   9.310  0.0313  0.6780 -0.5785
  121OSM   C14F12876   5.675   2.172   9.176 -0.4962 -0.4781 -0.1793
  121OSM   H14F12877   5.785   2.170   9.190 -0.5312 -0.2685  0.1270
  121OSM   H14G12878   5.657   2.262   9.114  0.7381  0.2350  0.4626
  121OSM   C15F12879   5.650   2.053   9.089 -0.0131 -0.3259  0.1129
  121OSM   H15F12880   5.541   2.032   9.094  0.3807 -2.4605  0.8960
  121OSM   H15G12881   5.712   1.971   9.133  1.0417  0.0928 -0.5405
  121OSM   C16F12882   5.699   2.076   8.944  0.1368  0.0852 -0.4613
  121OSM   H16F12883   5.809   2.062   8.938  0.5725  2.3593  0.7819
  121OSM   H16G12884   5.688   2.184   8.920 -0.3759  0.5509  1.6935
  121OSM   C17F12885   5.624   1.997   8.842  0.2544 -0.6043 -0.0478
  121OSM   H17F12886   5.516   2.024   8.850  0.6201  1.5053 -1.3727
  121OSM   H17G12887   5.636   1.889   8.867 -2.5338 -0.9056  0.2756
  121OSM   C18F12888   5.658   2.024   8.696 -0.3261 -0.6148 -0.6560
  121OSM   H18F12889   5.768   2.017   8.679  0.0533  2.3606  0.0107
  121OSM   H18G12890   5.630   2.126   8.661 -0.9662 -1.6399 -3.4101
  121OSM   H18H12891   5.595   1.958   8.634 -0.8060 -0.8262  0.0567
  122OSM      N12892   4.147   0.027  10.760  0.3386 -0.2322 -0.1917
  122OSM    C1512893   4.264  -0.044  10.831 -0.6863 -0.0348  0.4584
  122OSM   H15A12894   4.356  -0.028  10.776 -1.4532 -2.1044 -1.6035
  122OSM   H15B12895   4.245  -0.150  10.825  2.1119 -0.5572 -0.7870
  122OSM   H15C12896   4.279  -0.004  10.930  2.1886  2.0786 -0.6751
  122OSM    C1412897   4.146  -0.022  10.619 -0.3434  0.5607  0.1200
  122OSM   H14A12898   4.138  -0.129  10.603 -0.0440  0.2098  2.0458
  122OSM   H14B12899   4.243   0.002  10.576 -0.4029 -0.1296 -0.4185
  122OSM   H14C12900   4.071   0.026  10.559 -0.5363  1.3672  0.9905
  122OSM    C1312901   4.015  -0.007  10.826 -0.3299 -0.9783 -0.3214
  122OSM   H13A12902   3.940   0.054  10.778  0.3062 -0.4998 -0.7359
  122OSM   H13B12903   4.031   0.013  10.930  4.9363  0.1421 -1.0482
  122OSM   H13C12904   3.995  -0.113  10.813 -1.4541 -0.9478  1.0069
  122OSM    C1212905   4.171   0.174  10.753  1.2677 -0.4016  0.2801
  122OSM   H12A12906   4.086   0.224  10.708  2.1889 -0.4152 -1.5654
  122OSM   H12B12907   4.254   0.192  10.687  1.4702 -1.5554  0.2029
  122OSM    C1112908   4.202   0.248  10.881 -0.0703  0.1794  0.3210
  122OSM   H11A12909   4.114   0.223  10.944 -1.2011 -0.8925 -1.5769
  122OSM   H11B12910   4.199   0.357  10.863 -0.9941  0.1226  0.0683
  122OSM      P12911   4.457   0.259  10.941 -0.4519 -0.0068 -0.1740
  122OSM    O1312912   4.489   0.371  11.037  0.2344  0.1058 -0.4575
  122OSM    O1412913   4.554   0.147  10.947  0.4188  0.5269 -0.7063
  122OSM    O1112914   4.463   0.321  10.792  0.1950  0.0652  0.5285
  122OSM    O1212915   4.314   0.196  10.950 -0.5399 -0.0759  0.1255
  122OSM    C1S12916   4.587   0.292  10.718 -0.3968 -0.2811 -0.0091
  122OSM    H1S12917   4.594   0.186  10.686  0.4125 -0.6220  1.1967
  122OSM    H1T12918   4.679   0.308  10.779 -1.5565 -1.8850  2.2971
  122OSM     NF12919   4.727   0.348  10.533 -0.5193 -0.1797  0.4609
  122OSM    HNF12920   4.801   0.409  10.561 -1.2603  0.9476  0.0470
  122OSM    C2S12921   4.596   0.375  10.584 -0.4886  0.0743  0.6396
  122OSM    H2S12922   4.532   0.325  10.509  0.4684  0.4134 -0.4403
  122OSM    C3S12923   4.556   0.531  10.591 -0.1328  0.9535 -0.0598
  122OSM    H3S12924   4.619   0.576  10.670  1.4264 -0.0189 -0.7075
  122OSM     O312925   4.419   0.549  10.626 -0.6849 -0.3821  0.2791
  122OSM    HO312926   4.396   0.457  10.644 -0.5167 -0.3987  0.4067
  122OSM    C4S12927   4.588   0.598  10.457  0.1278  0.2975 -0.5857
  122OSM    H4S12928   4.696   0.613  10.443  0.1951  0.5440  0.1589
  122OSM    C5S12929   4.501   0.627  10.353  0.3224 -0.3124  0.2297
  122OSM    H5S12930   4.391   0.623  10.359 -0.0639  0.0945 -3.8234
  122OSM    C6S12931   4.554   0.689  10.226  0.4817 -0.0587  0.0126
  122OSM    H6S12932   4.538   0.799  10.229  3.3314  0.5301 -2.2426
  122OSM    H6T12933   4.484   0.666  10.143  0.4815  0.4438 -0.1314
  122OSM    C7S12934   4.695   0.649  10.184  0.4464 -0.1021  0.3081
  122OSM    H7S12935   4.696   0.540  10.163  0.3909  0.3183 -2.2046
  122OSM    H7T12936   4.758   0.660  10.275 -0.9068 -1.3536  1.4488
  122OSM    C8S12937   4.745   0.734  10.065 -0.7651  0.5657  0.0816
  122OSM    H8S12938   4.855   0.728  10.055 -0.8543 -0.7944 -0.4233
  122OSM    H8T12939   4.722   0.840  10.086 -0.5176  0.8494 -1.0036
  122OSM    C9S12940   4.683   0.687   9.935  0.7005 -0.2261 -0.2396
  122OSM    H9S12941   4.577   0.721   9.935  0.9803  0.6883  0.4369
  122OSM    H9T12942   4.693   0.576   9.931  2.7388 -0.1016  0.0596
  122OSM   C10S12943   4.743   0.739   9.805  0.6101 -0.0958  0.6375
  122OSM   H10S12944   4.849   0.713   9.787  0.3728 -0.9709  0.4410
  122OSM   H10T12945   4.748   0.850   9.805  0.8554 -0.0947 -0.6295
  122OSM   C11S12946   4.660   0.709   9.679  0.0350  0.0414  0.2716
  122OSM   H11S12947   4.558   0.753   9.680 -0.8207 -1.8119 -0.7187
  122OSM   H11T12948   4.642   0.600   9.665  1.7948  0.0197 -2.8646
  122OSM   C12S12949   4.737   0.748   9.553  0.3019 -0.6617  0.7759
  122OSM   H12S12950   4.835   0.695   9.552  0.5789 -0.1698 -0.2936
  122OSM   H12T12951   4.743   0.859   9.549  2.5865 -0.7560 -0.0389
  122OSM   C13S12952   4.655   0.701   9.431 -0.4509  0.4293 -0.3358
  122OSM   H13S12953   4.558   0.754   9.437 -0.3009  0.5763  1.0073
  122OSM   H13T12954   4.627   0.593   9.430 -1.2872  0.6303  0.3710
  122OSM   C14S12955   4.731   0.725   9.297 -0.8164  0.0041 -0.7558
  122OSM   H14S12956   4.826   0.670   9.315 -2.6655 -3.5337 -1.0824
  122OSM   H14T12957   4.753   0.833   9.280 -0.0993  0.2558  1.4448
  122OSM   C15S12958   4.678   0.652   9.173  0.4100 -0.8528  0.2207
  122OSM   H15S12959   4.575   0.689   9.155 -0.2625 -2.0731  1.3738
  122OSM   H15T12960   4.676   0.544   9.196 -1.2890 -0.6809  1.0511
  122OSM   C16S12961   4.770   0.671   9.049 -0.5761 -0.2642  0.3684
  122OSM   H16S12962   4.869   0.625   9.068 -0.3237 -0.0575 -0.4437
  122OSM   H16T12963   4.774   0.778   9.018  2.5025 -0.8647 -1.7282
  122OSM   C17S12964   4.715   0.604   8.927 -0.4556  0.6084  0.9309
  122OSM   H17S12965   4.609   0.633   8.912  0.0439  1.4608 -1.3608
  122OSM   H17T12966   4.707   0.493   8.940 -1.2698  0.7696  1.9609
  122OSM   C18S12967   4.786   0.632   8.793  0.6185  0.4691 -1.0126
  122OSM   H18S12968   4.894   0.609   8.809  0.9062  2.9551  1.4979
  122OSM   H18T12969   4.766   0.741   8.779 -2.5814  0.0679 -0.3223
  122OSM   H18U12970   4.743   0.583   8.704 -0.1133 -0.6636 -0.0626
  122OSM    C1F12971   4.777   0.229  10.485  0.4568 -0.1545 -0.9231
  122OSM     OF12972   4.705   0.132  10.471  0.3525  0.3772  0.1764
  122OSM    C2F12973   4.927   0.227  10.482 -0.0660 -0.2961  0.0758
  122OSM    H2F12974   4.958   0.156  10.561 -1.7287  0.0723  1.1039
  122OSM    H2G12975   4.962   0.329  10.509  0.5366 -0.6403  0.6123
  122OSM    C3F12976   4.969   0.197  10.336 -0.1225 -0.2304  0.3583
  122OSM    H3F12977   4.915   0.103  10.308  0.5715 -0.4857 -0.1507
  122OSM    H3G12978   5.077   0.171  10.334 -0.4873 -1.9155 -1.6589
  122OSM    C4F12979   4.934   0.304  10.226  0.3183  0.2514  0.3925
  122OSM    H4F12980   4.976   0.405  10.243  2.0070 -0.4459  0.5884
  122OSM    H4G12981   4.824   0.317  10.224  0.3922  1.0501  1.0649
  122OSM    C5F12982   4.967   0.254  10.076 -0.1193 -0.6987  0.0367
  122OSM    H5F12983   4.918   0.158  10.051 -1.3616  0.2031 -1.1319
  122OSM    H5G12984   5.077   0.236  10.074 -0.2167 -2.3188  3.1787
  122OSM    C6F12985   4.935   0.346   9.961  0.3478  0.4624  0.1888
  122OSM    H6F12986   4.991   0.442   9.967 -0.3754  0.9593 -0.7438
  122OSM    H6G12987   4.826   0.369   9.967  0.0747 -0.4323 -0.9468
  122OSM    C7F12988   4.958   0.295   9.818 -0.0671  0.1588 -0.4301
  122OSM    H7F12989   4.885   0.212   9.803 -1.1083  1.1493 -1.0392
  122OSM    H7G12990   5.059   0.248   9.823  0.3138  1.0505  0.5655
  122OSM    C8F12991   4.934   0.398   9.709  0.2305 -0.3745  0.9899
  122OSM    H8F12992   4.843   0.459   9.726  0.1150  0.4967 -2.1206
  122OSM    H8G12993   4.922   0.342   9.614  1.2555 -0.7193  1.0561
  122OSM    C9F12994   5.061   0.476   9.698 -0.8989 -0.0629  0.1186
  122OSM    H9F12995   5.116   0.485   9.793  3.6160  0.1631 -2.2418
  122OSM   C10F12996   5.125   0.520   9.585 -0.6450 -0.4211 -0.4056
  122OSM   H10F12997   5.224   0.568   9.596  0.9188 -3.4341 -0.3471
  122OSM   C11F12998   5.070   0.496   9.444 -0.1379 -0.4117 -0.6535
  122OSM   H11F12999   5.067   0.590   9.385 -1.3961 -0.3953 -0.5729
  122OSM   H11G13000   4.965   0.461   9.444 -0.0057 -0.8316 -1.3420
  122OSM   C12F13001   5.159   0.413   9.352  0.3963  0.3162 -0.1772
  122OSM   H12F13002   5.189   0.328   9.416 -0.3477  1.3080  1.5559
  122OSM   H12G13003   5.255   0.468   9.338  1.4298 -0.8418  1.9807
  122OSM   C13F13004   5.088   0.364   9.224 -0.0053 -0.5894  0.2746
  122OSM   H13F13005   4.978   0.357   9.238  0.0160 -3.9170 -0.4300
  122OSM   H13G13006   5.143   0.272   9.197 -0.4184 -0.5961 -0.5732
  122OSM   C14F13007   5.112   0.453   9.107 -1.2635 -0.6522 -0.0743
  122OSM   H14F13008   5.220   0.478   9.107 -1.2533 -0.5590  1.4387
  122OSM   H14G13009   5.065   0.553   9.118  0.3000 -0.1081  2.5525
  122OSM   C15F13010   5.066   0.388   8.974  0.0958 -0.4102 -0.6661
  122OSM   H15F13011   4.957   0.405   8.984  0.4368  0.4304  2.6199
  122OSM   H15G13012   5.088   0.281   8.954 -2.0567 -0.4373 -3.6145
  122OSM   C16F13013   5.132   0.466   8.851  0.0608  0.1901  0.6274
  122OSM   H16F13014   5.239   0.487   8.871  0.4912 -0.5034 -0.8141
  122OSM   H16G13015   5.089   0.567   8.834 -0.8894 -0.1586  0.8861
  122OSM   C17F13016   5.102   0.389   8.720 -0.1090  0.9258 -0.3716
  122OSM   H17F13017   5.134   0.451   8.633  2.5716  1.0336  0.5840
  122OSM   H17G13018   4.996   0.361   8.702  0.1210 -0.6571  0.5876
  122OSM   C18F13019   5.177   0.251   8.706  0.2038 -0.0660  0.0788
  122OSM   H18F13020   5.190   0.214   8.602 -2.9548 -1.2211  0.0077
  122OSM   H18G13021   5.137   0.174   8.775  1.4632  0.1493  1.0803
  122OSM   H18H13022   5.279   0.272   8.744  0.9809 -0.9758 -1.3941
  123OSM      N13023   1.830   0.406   5.906 -0.1255  0.0763  0.0342
  123OSM    C1513024   1.976   0.401   5.865 -0.4769 -0.2006  0.1619
  123OSM   H15A13025   2.012   0.303   5.839  4.0022  1.3095 -0.2203
  123OSM   H15B13026   2.035   0.428   5.951  1.8877 -1.9720 -0.8153
  123OSM   H15C13027   1.991   0.463   5.778 -0.8446  1.9079  1.5225
  123OSM    C1413028   1.796   0.554   5.919  0.1412 -0.7301  0.6136
  123OSM   H14A13029   1.694   0.587   5.930  0.5136  0.5269  0.4772
  123OSM   H14B13030   1.830   0.617   5.838 -0.8836 -1.4667 -0.4208
  123OSM   H14C13031   1.850   0.598   6.002 -2.7384  2.7866  0.8536
  123OSM    C1313032   1.750   0.342   5.796 -0.5807 -0.0625  0.2269
  123OSM   H13A13033   1.647   0.372   5.807 -0.2227  0.7512  1.8019
  123OSM   H13B13034   1.759   0.235   5.805 -0.6411 -0.0070  1.0367
  123OSM   H13C13035   1.792   0.373   5.702  0.9137 -0.2538  0.8009
  123OSM    C1213036   1.798   0.341   6.039 -0.6524  0.1412  0.3657
  123OSM   H12A13037   1.832   0.238   6.035 -0.7399  0.1544 -1.2347
  123OSM   H12B13038   1.694   0.351   6.065 -0.5498  1.3277  0.3580
  123OSM    C1113039   1.886   0.391   6.159  0.4142 -0.1459  0.0475
  123OSM   H11A13040   1.860   0.323   6.243 -0.5187 -2.0966 -1.7545
  123OSM   H11B13041   1.849   0.495   6.172  0.3266 -0.3187  1.2873
  123OSM      P13042   2.121   0.479   6.222  0.2422  0.4754  0.1060
  123OSM    O1313043   2.256   0.443   6.176 -0.1583 -0.3724 -0.2607
  123OSM    O1413044   2.074   0.616   6.209 -0.1843 -0.3109  0.5268
  123OSM    O1113045   2.094   0.431   6.368 -0.2971 -0.0815  0.4855
  123OSM    O1213046   2.025   0.382   6.137  0.4323 -0.1654  0.2040
  123OSM    C1S13047   2.136   0.503   6.488 -0.0484  0.1880  0.0278
  123OSM    H1S13048   2.146   0.613   6.471  0.9361  0.2680  1.0316
  123OSM    H1T13049   2.241   0.473   6.510  0.3362  0.0068 -1.8621
  123OSM     NF13050   2.075   0.566   6.713  0.6202  0.5350 -0.6539
  123OSM    HNF13051   2.144   0.541   6.780 -0.0508  0.4682  0.0280
  123OSM    C2S13052   2.039   0.479   6.600  1.0819 -0.1959 -0.5573
  123OSM    H2S13053   1.937   0.501   6.562  1.2887  2.2658  0.1545
  123OSM    C3S13054   2.053   0.333   6.632  0.2364  0.8529 -0.1927
  123OSM    H3S13055   2.152   0.328   6.683 -0.1728  3.6335  1.0838
  123OSM     O313056   2.051   0.243   6.523  0.2514  0.0575 -0.0620
  123OSM    HO313057   2.048   0.297   6.444 -0.5851  0.0944 -0.0169
  123OSM    C4S13058   1.954   0.293   6.742  0.1488  0.2957 -0.4739
  123OSM    H4S13059   1.977   0.346   6.836  1.2997  1.2390 -1.2631
  123OSM    C5S13060   1.854   0.209   6.753 -0.8616  0.1465 -0.3442
  123OSM    H5S13061   1.828   0.142   6.669 -1.2730 -2.8469  1.9787
  123OSM    C6S13062   1.770   0.177   6.868 -0.5335 -1.1735  0.0742
  123OSM    H6S13063   1.753   0.068   6.873  0.8829 -1.3508  1.9482
  123OSM    H6T13064   1.673   0.230   6.853 -0.3258 -0.5917  0.7130
  123OSM    C7S13065   1.820   0.221   7.003 -0.1157 -0.9814  0.1412
  123OSM    H7S13066   1.818   0.332   7.012  2.7088 -0.4019 -4.0319
  123OSM    H7T13067   1.927   0.208   7.028 -0.5865  1.2996  4.2705
  123OSM    C8S13068   1.736   0.167   7.121  0.2897 -0.1554 -0.7482
  123OSM    H8S13069   1.726   0.057   7.116 -0.3388 -0.0598 -2.9246
  123OSM    H8T13070   1.633   0.205   7.100  0.0287 -0.8000 -0.6682
  123OSM    C9S13071   1.770   0.237   7.256  0.3942 -0.4967 -0.3222
  123OSM    H9S13072   1.762   0.346   7.240 -1.3302 -0.6256 -0.5442
  123OSM    H9T13073   1.872   0.207   7.286  0.6132  0.6831  0.1693
  123OSM   C10S13074   1.665   0.190   7.366 -0.1581 -0.4299  0.0336
  123OSM   H10S13075   1.597   0.107   7.339 -1.7838  1.1838 -1.0918
  123OSM   H10T13076   1.589   0.270   7.373  2.5214  2.2352  0.7068
  123OSM   C11S13077   1.734   0.173   7.505  0.3324 -0.1617  0.7083
  123OSM   H11S13078   1.831   0.227   7.509  0.3023 -0.1207  0.8794
  123OSM   H11T13079   1.763   0.067   7.522 -0.1197 -0.3341  0.4396
  123OSM   C12S13080   1.653   0.236   7.624 -0.0533  0.7585  0.3862
  123OSM   H12S13081   1.549   0.256   7.592 -0.5122  1.3455  2.1223
  123OSM   H12T13082   1.699   0.335   7.640  1.5625  0.6347 -2.7636
  123OSM   C13S13083   1.642   0.154   7.750 -0.0742 -1.0100 -0.3078
  123OSM   H13S13084   1.626   0.045   7.733 -1.0981 -1.1319  1.2017
  123OSM   H13T13085   1.544   0.189   7.789  0.4906 -0.6566  0.8397
  123OSM   C14S13086   1.757   0.183   7.851  0.5298  0.0554  0.8311
  123OSM   H14S13087   1.752   0.291   7.878 -2.7701 -0.4430  2.7596
  123OSM   H14T13088   1.856   0.158   7.809 -1.5146 -2.2834 -3.2188
  123OSM   C15S13089   1.745   0.113   7.984  1.1022  0.3265 -0.3887
  123OSM   H15S13090   1.820   0.166   8.046  2.2516 -0.9560 -0.6384
  123OSM   H15T13091   1.781   0.008   7.974  2.5196  0.7543 -0.0502
  123OSM   C16S13092   1.614   0.109   8.068  0.2186  0.8074 -0.1065
  123OSM   H16S13093   1.629   0.045   8.157  2.2191  0.2042 -0.8116
  123OSM   H16T13094   1.531   0.057   8.015  0.0989 -0.2263  1.0566
  123OSM   C17S13095   1.581   0.255   8.111  0.9768  0.0785 -0.3209
  123OSM   H17S13096   1.524   0.293   8.024 -1.2918 -1.1468  0.5396
  123OSM   H17T13097   1.674   0.316   8.122  0.8480 -0.0224  1.9583
  123OSM   C18S13098   1.486   0.272   8.229  0.2353 -0.7808  0.5928
  123OSM   H18S13099   1.455   0.379   8.232  0.1223 -0.7880 -0.1414
  123OSM   H18T13100   1.526   0.230   8.324 -0.1984 -1.0417  0.6643
  123OSM   H18U13101   1.394   0.214   8.208 -0.4247 -0.0200  1.2940
  123OSM    C1F13102   2.049   0.698   6.699  0.3785 -0.2110  0.9084
  123OSM     OF13103   1.973   0.733   6.605  0.0091 -0.3075 -0.0676
  123OSM    C2F13104   2.122   0.797   6.790  0.4579  0.0330  0.7307
  123OSM    H2F13105   2.133   0.893   6.734  0.0177  1.2647  2.6764
  123OSM    H2G13106   2.219   0.755   6.824  1.7105  0.6020 -1.8235
  123OSM    C3F13107   2.015   0.825   6.897  0.1685 -0.2309  0.6355
  123OSM    H3F13108   1.913   0.822   6.853  0.1854  1.3679  0.4144
  123OSM    H3G13109   2.024   0.926   6.943 -1.9433  0.1704  0.2687
  123OSM    C4F13110   2.002   0.726   7.018  0.2344  0.6016  0.1552
  123OSM    H4F13111   2.008   0.622   6.978 -2.0649  0.6905 -0.5806
  123OSM    H4G13112   1.910   0.730   7.080 -0.1442 -2.8088  0.0462
  123OSM    C5F13113   2.124   0.748   7.107 -0.2072 -0.3508  0.1935
  123OSM    H5F13114   2.219   0.745   7.048 -0.5432  2.3368 -0.5867
  123OSM    H5G13115   2.133   0.659   7.173  5.1954  0.1427  0.6221
  123OSM    C6F13116   2.119   0.868   7.202 -0.3716 -0.1673  0.3154
  123OSM    H6F13117   2.131   0.958   7.138  0.1727 -0.4194  0.0618
  123OSM    H6G13118   2.201   0.847   7.274  2.2673  2.2415 -1.7779
  123OSM    C7F13119   1.988   0.895   7.269 -0.4743 -1.1057 -0.1292
  123OSM    H7F13120   1.947   0.799   7.308 -1.9605 -0.3222  0.3186
  123OSM    H7G13121   1.925   0.928   7.184  1.3083  1.4390 -0.5645
  123OSM    C8F13122   1.983   1.002   7.384 -0.5895  0.2867  0.3620
  123OSM    H8F13123   2.038   0.963   7.472  1.4753  1.3922 -0.3920
  123OSM    H8G13124   1.874   1.011   7.406 -0.8112  1.0410 -0.9275
  123OSM    C9F13125   2.046   1.137   7.347 -0.6358  0.9604 -0.1248
  123OSM    H9F13126   2.095   1.139   7.249 -1.3247 -0.0069 -0.5068
  123OSM   C10F13127   2.039   1.247   7.424 -0.1962 -0.4610 -0.4939
  123OSM   H10F13128   2.081   1.335   7.372  2.3145 -0.8244  0.7616
  123OSM   C11F13129   1.978   1.256   7.562 -0.1687 -0.5411 -0.0057
  123OSM   H11F13130   1.949   1.156   7.599  1.4515 -1.0248 -0.0042
  123OSM   H11G13131   1.886   1.319   7.553  0.7449  0.9628  0.7890
  123OSM   C12F13132   2.062   1.324   7.666 -0.4016 -0.0171  0.0690
  123OSM   H12F13133   2.100   1.422   7.629  0.3869  0.2041  1.4308
  123OSM   H12G13134   2.150   1.260   7.687 -0.4058 -1.1738 -2.9060
  123OSM   C13F13135   1.974   1.347   7.787  0.1787 -0.0161 -0.0461
  123OSM   H13F13136   1.938   1.247   7.819 -1.9765  0.6589 -0.1994
  123OSM   H13G13137   1.881   1.402   7.759 -0.3392 -1.7298 -1.9405
  123OSM   C14F13138   2.048   1.418   7.899 -0.5515  0.5398 -0.8156
  123OSM   H14F13139   2.058   1.525   7.870 -1.2263  0.6923 -0.5104
  123OSM   H14G13140   2.147   1.373   7.921 -0.2830  0.9215 -1.2072
  123OSM   C15F13141   1.973   1.411   8.036 -0.5891 -0.7539 -1.0942
  123OSM   H15F13142   1.976   1.307   8.075 -0.3277 -0.3119  0.1210
  123OSM   H15G13143   1.869   1.443   8.017 -0.8964 -0.7750  0.4448
  123OSM   C16F13144   2.033   1.500   8.144 -0.0971 -0.5817  0.6858
  123OSM   H16F13145   2.018   1.607   8.118  0.7125 -0.1483  1.9269
  123OSM   H16G13146   2.143   1.484   8.147 -0.1220 -0.9513 -0.1087
  123OSM   C17F13147   1.991   1.469   8.286 -0.0191  0.5747 -0.7507
  123OSM   H17F13148   2.052   1.524   8.361 -1.5772  0.4746  0.6509
  123OSM   H17G13149   1.999   1.361   8.312 -1.6555  1.0288  2.1056
  123OSM   C18F13150   1.849   1.513   8.316 -0.5524 -0.3218  0.3791
  123OSM   H18F13151   1.833   1.535   8.424 -0.6105  2.9415 -0.1912
  123OSM   H18G13152   1.776   1.444   8.270  1.1902 -0.8430 -1.7814
  123OSM   H18H13153   1.831   1.615   8.275  1.6848 -0.5857 -1.4701
  124OSM      N13154   5.598   4.390   6.521  0.7989  0.2587 -0.5778
  124OSM    C1513155   5.597   4.322   6.385  0.2882 -0.2936  0.1068
  124OSM   H15A13156   5.566   4.220   6.401 -0.9932  0.1379  0.5083
  124OSM   H15B13157   5.699   4.333   6.354  0.8492 -0.2655  1.8620
  124OSM   H15C13158   5.522   4.370   6.323  0.9124  1.5204  0.6795
  124OSM    C1413159   5.467   4.352   6.579  0.4200  0.0113  0.1745
  124OSM   H14A13160   5.387   4.375   6.510  0.6104  0.2934  0.0469
  124OSM   H14B13161   5.445   4.413   6.665 -4.3226  0.0505 -0.8087
  124OSM   H14C13162   5.464   4.247   6.605  3.5272 -0.1782  0.1427
  124OSM    C1313163   5.712   4.345   6.607 -0.1436 -0.1432 -0.0073
  124OSM   H13A13164   5.707   4.241   6.637  0.1705 -0.3898 -0.7794
  124OSM   H13B13165   5.726   4.407   6.694 -1.1747  0.0338  0.0439
  124OSM   H13C13166   5.807   4.342   6.556  0.8063 -1.3515  1.7440
  124OSM    C1213167   5.594   4.544   6.509 -0.3404 -0.2422  0.1512
  124OSM   H12A13168   5.514   4.572   6.442  0.0623 -1.6013 -0.9398
  124OSM   H12B13169   5.690   4.580   6.475 -0.2472 -1.3386 -0.8126
  124OSM    C1113170   5.576   4.621   6.641  0.1087 -0.4758 -1.0001
  124OSM   H11A13171   5.614   4.724   6.624  0.2627 -0.0969  1.2925
  124OSM   H11B13172   5.626   4.567   6.724  0.6088 -0.0240 -1.0033
  124OSM      P13173   5.343   4.720   6.588 -0.1360  0.2924  0.3398
  124OSM    O1313174   5.334   4.680   6.445  0.3337  0.6241 -0.1078
  124OSM    O1413175   5.212   4.734   6.657  0.7000 -0.4439 -0.0079
  124OSM    O1113176   5.425   4.854   6.591  0.2945  0.0411 -0.2715
  124OSM    O1213177   5.436   4.628   6.679 -0.0539  0.3386  0.3994
  124OSM    C1S13178   5.356   4.971   6.642 -0.0749  0.0721 -0.3840
  124OSM    H1S13179   5.248   4.974   6.615  0.4611  0.0364 -2.7236
  124OSM    H1T13180   5.409   5.063   6.612  1.0858 -0.6106 -0.4971
  124OSM     NF13181   5.281   5.094   6.844  0.0133  0.2297  0.0854
  124OSM    HNF13182   5.324   5.184   6.850  1.2760 -0.2223 -1.7205
  124OSM    C2S13183   5.366   4.990   6.795 -0.0554 -0.4138 -0.1023
  124OSM    H2S13184   5.332   4.896   6.844 -0.0515 -0.9311 -1.0678
  124OSM    C3S13185   5.519   5.003   6.828  0.2462 -0.4855  1.0917
  124OSM    H3S13186   5.575   5.061   6.752 -1.7770  0.3156  0.1260
  124OSM     O313187   5.584   4.876   6.822  0.3263  0.3190 -0.0354
  124OSM    HO313188   5.521   4.814   6.783  0.9942  0.4455 -1.3644
  124OSM    C4S13189   5.529   5.054   6.962 -0.2764 -0.0356  0.2399
  124OSM    H4S13190   5.479   4.992   7.038 -0.5751 -1.3928 -1.0386
  124OSM    C5S13191   5.574   5.171   7.000  0.0998  0.8505  0.0884
  124OSM    H5S13192   5.624   5.233   6.924  3.0224  0.0644  1.2304
  124OSM    C6S13193   5.581   5.239   7.138 -0.3925  0.3908 -0.0013
  124OSM    H6S13194   5.512   5.192   7.211 -2.1735  2.6102 -0.1550
  124OSM    H6T13195   5.551   5.344   7.121 -0.6718  0.5543  1.3930
  124OSM    C7S13196   5.731   5.243   7.174  0.2457  0.3637  0.4931
  124OSM    H7S13197   5.716   5.310   7.262 -0.5094  1.8100 -0.6928
  124OSM    H7T13198   5.796   5.298   7.103 -0.0456 -0.1804 -0.2072
  124OSM    C8S13199   5.793   5.113   7.228  0.9644 -0.0401  0.2479
  124OSM    H8S13200   5.796   5.034   7.151 -0.4911  3.6029 -3.9331
  124OSM    H8T13201   5.733   5.077   7.314 -1.2378 -1.6529 -1.8599
  124OSM    C9S13202   5.941   5.126   7.279  0.0497 -0.7681  0.5075
  124OSM    H9S13203   5.950   5.226   7.325 -1.5378 -0.2979 -0.1191
  124OSM    H9T13204   6.006   5.125   7.189 -1.0046 -0.6665 -0.2800
  124OSM   C10S13205   5.991   5.022   7.380  0.5891 -0.6833  0.5439
  124OSM   H10S13206   6.099   5.038   7.399  1.3708 -1.2982 -2.7366
  124OSM   H10T13207   5.977   4.917   7.347 -1.1923  0.4182 -2.6495
  124OSM   C11S13208   5.908   5.035   7.507  0.1055 -0.5728  0.0044
  124OSM   H11S13209   5.819   4.969   7.494 -0.1662  0.0780 -1.6020
  124OSM   H11T13210   5.878   5.140   7.526 -2.2080 -1.2822  0.6927
  124OSM   C12S13211   5.984   4.992   7.630  0.1194 -0.8185  0.4344
  124OSM   H12S13212   6.094   4.991   7.617 -0.0148 -0.4784 -0.7842
  124OSM   H12T13213   5.962   4.889   7.666  0.4567 -0.7524  0.8379
  124OSM   C13S13214   5.953   5.112   7.736  0.0007  0.3563 -0.0240
  124OSM   H13S13215   5.842   5.111   7.744  0.0868 -0.3889  1.5068
  124OSM   H13T13216   5.993   5.210   7.701 -0.2767  0.2787 -0.5709
  124OSM   C14S13217   6.004   5.083   7.876  0.9395  0.1209  0.0190
  124OSM   H14S13218   6.113   5.068   7.890  1.3047  1.6017 -0.9944
  124OSM   H14T13219   5.941   4.998   7.910  1.3976  1.0626  3.6497
  124OSM   C15S13220   5.963   5.201   7.970 -0.4849  0.6180 -0.3076
  124OSM   H15S13221   5.855   5.227   7.976 -0.6911  0.1046 -1.5731
  124OSM   H15T13222   6.020   5.292   7.941 -0.0403  0.5330  0.2741
  124OSM   C16S13223   6.022   5.176   8.110 -0.1806 -0.0878 -1.3608
  124OSM   H16S13224   5.994   5.262   8.174  0.2280 -0.9207 -0.0377
  124OSM   H16T13225   6.133   5.177   8.111 -0.1874  1.1101 -0.5598
  124OSM   C17S13226   5.970   5.053   8.189  0.2535  0.3587  0.4790
  124OSM   H17S13227   5.997   4.959   8.138 -0.5166 -0.9795  2.4309
  124OSM   H17T13228   5.859   5.057   8.188 -0.0200 -2.5413 -3.5022
  124OSM   C18S13229   6.032   5.040   8.326 -0.6165 -0.3872  0.1347
  124OSM   H18S13230   5.979   4.966   8.389 -0.6394 -0.5112 -0.0268
  124OSM   H18T13231   6.033   5.129   8.392  0.5247 -0.5737  0.3933
  124OSM   H18U13232   6.139   5.012   8.315 -0.4363  0.5350 -0.6148
  124OSM    C1F13233   5.147   5.092   6.852 -0.2342 -0.5963  0.3644
  124OSM     OF13234   5.091   4.989   6.824  0.6488  0.7669 -0.3554
  124OSM    C2F13235   5.069   5.215   6.882  0.2822  0.4479  0.2939
  124OSM    H2F13236   4.971   5.187   6.926 -0.3361  2.3757  0.2270
  124OSM    H2G13237   5.054   5.285   6.798  1.0148  0.0573 -0.1723
  124OSM    C3F13238   5.141   5.306   6.987  0.0859  0.1628 -0.2811
  124OSM    H3F13239   5.062   5.377   7.018 -0.6855  0.2337 -2.2780
  124OSM    H3G13240   5.213   5.377   6.940 -2.4195  2.0354 -1.4975
  124OSM    C4F13241   5.203   5.244   7.109 -0.2719 -0.1952 -0.2998
  124OSM    H4F13242   5.230   5.334   7.168 -0.2916 -0.9929  0.9574
  124OSM    H4G13243   5.303   5.200   7.087 -0.0445  0.7692 -1.2772
  124OSM    C5F13244   5.104   5.168   7.195 -0.8655  1.0374  0.2489
  124OSM    H5F13245   5.045   5.099   7.130  2.6636 -2.0471 -0.0476
  124OSM    H5G13246   5.032   5.241   7.237  0.8125  2.8396  0.1395
  124OSM    C6F13247   5.180   5.095   7.308  1.0487 -0.4395 -0.6387
  124OSM    H6F13248   5.231   5.179   7.360 -0.8383 -0.1833  0.9567
  124OSM    H6G13249   5.257   5.020   7.281  1.5982 -0.1050 -0.0336
  124OSM    C7F13250   5.085   5.028   7.412 -1.5371  0.0471  0.0603
  124OSM    H7F13251   5.156   4.971   7.475  0.3375  1.5168 -0.6397
  124OSM    H7G13252   5.019   4.959   7.356  0.7374 -0.3666 -2.3034
  124OSM    C8F13253   5.002   5.133   7.501 -0.3098  0.1563  0.2425
  124OSM    H8F13254   4.922   5.173   7.434  2.0924 -0.1659 -3.1026
  124OSM    H8G13255   5.075   5.213   7.529  0.5822 -0.3783 -0.4940
  124OSM    C9F13256   4.943   5.055   7.618 -0.3988 -0.1158  0.0995
  124OSM    H9F13257   4.853   4.997   7.591 -0.1625 -0.5024  0.1258
  124OSM   C10F13258   4.975   5.069   7.744  0.1639  0.3053 -0.4024
  124OSM   H10F13259   4.929   4.996   7.812  0.9415 -0.0397 -0.2295
  124OSM   C11F13260   5.087   5.164   7.794  0.1372  0.4312 -0.0520
  124OSM   H11F13261   5.065   5.270   7.770  0.5994  0.0338 -2.4781
  124OSM   H11G13262   5.186   5.136   7.752  0.4111  0.0031  0.8500
  124OSM   C12F13263   5.112   5.155   7.951  0.3567 -0.5894  0.1136
  124OSM   H12F13264   5.189   5.234   7.967 -0.0517 -0.3292  0.8077
  124OSM   H12G13265   5.160   5.057   7.974  0.8085 -0.5832 -0.7423
  124OSM   C13F13266   4.987   5.184   8.036 -0.2998  0.3422 -0.2899
  124OSM   H13F13267   4.911   5.112   7.999  2.0230 -2.3219 -0.2259
  124OSM   H13G13268   4.952   5.289   8.042  0.0063  0.3803  1.6584
  124OSM   C14F13269   5.012   5.138   8.181  0.1448  0.0379  0.2428
  124OSM   H14F13270   5.103   5.185   8.224  1.9349 -0.7203 -2.4583
  124OSM   H14G13271   5.039   5.030   8.183 -1.1300 -0.2834  0.7638
  124OSM   C15F13272   4.895   5.163   8.278 -0.0326 -0.1084 -0.3180
  124OSM   H15F13273   4.807   5.103   8.247  1.2612 -1.9861 -0.4804
  124OSM   H15G13274   4.882   5.273   8.281  3.3853  0.4033 -0.9852
  124OSM   C16F13275   4.932   5.118   8.430 -0.6338 -0.4874  0.7779
  124OSM   H16F13276   5.031   5.165   8.450  0.1266 -1.2170 -0.9909
  124OSM   H16G13277   4.927   5.008   8.439 -1.3557 -0.4100  1.3395
  124OSM   C17F13278   4.846   5.176   8.537 -0.3639  0.2994  0.2443
  124OSM   H17F13279   4.880   5.133   8.634 -1.6973 -3.1501 -0.6811
  124OSM   H17G13280   4.736   5.165   8.543 -0.4746  1.8710  2.0554
  124OSM   C18F13281   4.888   5.325   8.569  0.8624  0.1114 -0.2820
  124OSM   H18F13282   4.871   5.392   8.483 -0.2617  1.1410  0.6989
  124OSM   H18G13283   4.997   5.329   8.593  0.3647  1.3386  2.0647
  124OSM   H18H13284   4.823   5.362   8.652  0.0590  0.7938 -1.1991
  125OSM      N13285   4.577   5.525   6.310 -0.4248 -0.1953  0.7946
  125OSM    C1513286   4.508   5.440   6.210  0.5467  0.1984  0.9712
  125OSM   H15A13287   4.562   5.355   6.173 -1.5773 -0.3714 -1.0168
  125OSM   H15B13288   4.479   5.500   6.124 -0.5151 -1.4940  0.1079
  125OSM   H15C13289   4.419   5.398   6.253  1.1273 -2.6159 -0.3821
  125OSM    C1413290   4.467   5.610   6.369  0.2817  0.0236  0.0878
  125OSM   H14A13291   4.390   5.548   6.412  0.5003 -0.1468  0.2305
  125OSM   H14B13292   4.419   5.659   6.285  0.2843 -0.3328 -0.1231
  125OSM   H14C13293   4.507   5.686   6.434 -0.7139  0.4945  0.1777
  125OSM    C1313294   4.644   5.444   6.420  0.3054  0.1727 -0.2827
  125OSM   H13A13295   4.708   5.370   6.375 -1.3126  0.0248 -2.5157
  125OSM   H13B13296   4.567   5.404   6.484  1.6480  1.3830  2.2637
  125OSM   H13C13297   4.708   5.502   6.484  0.8166 -1.0091  0.3089
  125OSM    C1213298   4.675   5.613   6.247  0.4233 -0.6078 -0.5284
  125OSM   H12A13299   4.632   5.693   6.188  1.9121  0.3854 -0.3186
  125OSM   H12B13300   4.744   5.554   6.189 -0.0807 -1.5270 -0.2120
  125OSM    C1113301   4.761   5.695   6.341  0.4358 -0.0534 -0.7606
  125OSM   H11A13302   4.839   5.746   6.281 -0.0544  1.0299 -0.5045
  125OSM   H11B13303   4.808   5.629   6.417 -1.8862 -1.0038 -0.0758
  125OSM      P13304   4.650   5.934   6.372  0.0768  0.1157  0.4437
  125OSM    O1313305   4.657   5.922   6.222  0.0837  0.0360 -0.2952
  125OSM    O1413306   4.535   5.993   6.438 -0.0446  0.8895  0.2739
  125OSM    O1113307   4.775   6.009   6.423  0.6463 -0.0910  0.3991
  125OSM    O1213308   4.686   5.789   6.423  0.4598  0.1758 -1.0504
  125OSM    C1S13309   4.769   6.053   6.562 -0.3134 -0.0188 -0.5029
  125OSM    H1S13310   4.666   6.084   6.588 -0.6574 -1.1471 -0.4360
  125OSM    H1T13311   4.823   6.149   6.577 -0.1496 -0.1742 -0.0878
  125OSM     NF13312   4.779   6.005   6.800  0.2050  0.0098 -0.3073
  125OSM    HNF13313   4.845   6.035   6.870  1.2291  1.2608 -1.7410
  125OSM    C2S13314   4.819   5.954   6.667 -0.3010 -0.4443  0.2330
  125OSM    H2S13315   4.771   5.856   6.644 -0.2052  0.0022 -2.0888
  125OSM    C3S13316   4.972   5.928   6.657 -0.8915 -0.6301  0.1518
  125OSM    H3S13317   5.018   6.026   6.683  1.2491 -1.9919  1.8912
  125OSM     O313318   5.012   5.896   6.524 -0.6538 -0.0320  0.2918
  125OSM    HO313319   4.932   5.906   6.472 -2.4249 -0.9419  2.6770
  125OSM    C4S13320   5.022   5.819   6.751  1.0108  0.2356  0.1393
  125OSM    H4S13321   4.932   5.755   6.763  1.4208 -0.2739  0.5678
  125OSM    C5S13322   5.132   5.827   6.830 -0.3607  0.0268  0.2707
  125OSM    H5S13323   5.205   5.908   6.826 -0.0985 -0.2495 -1.3447
  125OSM    C6S13324   5.167   5.723   6.932 -0.0836 -0.1228  0.2709
  125OSM    H6S13325   5.262   5.691   6.883  0.0160  1.3812 -0.5937
  125OSM    H6T13326   5.095   5.639   6.926 -0.0293 -0.1848  0.4893
  125OSM    C7S13327   5.198   5.772   7.073 -0.5686 -0.2034 -0.6012
  125OSM    H7S13328   5.103   5.822   7.100 -0.1933 -0.6001  1.6819
  125OSM    H7T13329   5.275   5.852   7.076 -0.0556 -0.6973  1.8186
  125OSM    C8S13330   5.226   5.655   7.171 -0.7569 -0.4306 -0.5649
  125OSM    H8S13331   5.313   5.592   7.141  0.1096 -0.9568  2.6592
  125OSM    H8T13332   5.148   5.577   7.171 -1.7279  0.4883  0.9483
  125OSM    C9S13333   5.245   5.692   7.316  0.3627  0.8410  0.2452
  125OSM    H9S13334   5.164   5.761   7.349  0.6317  0.8115  0.9927
  125OSM    H9T13335   5.343   5.742   7.318  1.9069 -1.7489 -2.5117
  125OSM   C10S13336   5.260   5.564   7.404 -0.0183  0.0643 -0.2594
  125OSM   H10S13337   5.345   5.506   7.363  1.7028  2.3641 -0.1953
  125OSM   H10T13338   5.164   5.510   7.408  1.0237 -2.6313 -4.6218
  125OSM   C11S13339   5.287   5.594   7.551 -0.6555  0.0372 -0.3764
  125OSM   H11S13340   5.206   5.643   7.609 -1.2196  0.0881 -1.1918
  125OSM   H11T13341   5.378   5.654   7.573  0.5979 -2.0336  0.4606
  125OSM   C12S13342   5.300   5.461   7.634 -0.2140 -0.1602  0.1601
  125OSM   H12S13343   5.376   5.387   7.600  1.7574  0.3197  3.1556
  125OSM   H12T13344   5.196   5.421   7.628 -1.8791  3.8946 -2.0614
  125OSM   C13S13345   5.340   5.469   7.785 -0.2106  0.1819  0.3345
  125OSM   H13S13346   5.443   5.510   7.790  0.1580 -0.6428 -0.4473
  125OSM   H13T13347   5.343   5.365   7.823  0.4027  0.3874  0.8721
  125OSM   C14S13348   5.239   5.538   7.881 -0.7348 -0.5419 -0.7701
  125OSM   H14S13349   5.138   5.492   7.871 -2.1565  1.2770  2.9966
  125OSM   H14T13350   5.225   5.645   7.853  1.2274  0.4925  1.8018
  125OSM   C15S13351   5.295   5.526   8.021 -0.1092  0.2645 -0.2701
  125OSM   H15S13352   5.378   5.600   8.021  1.3039 -1.2853 -0.2852
  125OSM   H15T13353   5.339   5.429   8.050 -0.1803  0.6197  1.0828
  125OSM   C16S13354   5.218   5.595   8.140  0.7978  0.7814  0.2900
  125OSM   H16S13355   5.186   5.698   8.113 -1.3548 -0.3984 -2.1606
  125OSM   H16T13356   5.280   5.613   8.230  0.6344  2.2871  0.1333
  125OSM   C17S13357   5.091   5.520   8.197  0.0044  0.3327  0.8221
  125OSM   H17S13358   5.119   5.443   8.272 -1.0711  0.8766  1.8268
  125OSM   H17T13359   5.041   5.466   8.114 -0.2669  1.2210  0.3952
  125OSM   C18S13360   4.986   5.603   8.264 -0.2494 -0.4213 -0.2170
  125OSM   H18S13361   5.030   5.648   8.356  0.8458 -0.7467 -0.5740
  125OSM   H18T13362   4.901   5.544   8.305 -0.4428  1.5347  2.4701
  125OSM   H18U13363   4.938   5.684   8.206  0.0473  0.1074  0.2658
  125OSM    C1F13364   4.650   6.006   6.832  0.4345  0.1851 -0.2769
  125OSM     OF13365   4.571   5.957   6.752  0.5074  0.9270 -0.0993
  125OSM    C2F13366   4.605   6.061   6.967  0.6247  0.1270  0.0543
  125OSM    H2F13367   4.646   6.165   6.968 -1.8778  1.2009 -0.5735
  125OSM    H2G13368   4.658   5.994   7.038  2.5784 -0.5274 -1.9032
  125OSM    C3F13369   4.449   6.069   6.975 -0.1143 -0.0702  0.6758
  125OSM    H3F13370   4.394   5.979   6.939  0.0783  0.3560 -0.7315
  125OSM    H3G13371   4.421   6.139   6.894 -1.1305 -0.2999  0.8183
  125OSM    C4F13372   4.413   6.125   7.113 -0.1122  0.1245 -0.0794
  125OSM    H4F13373   4.306   6.152   7.108  0.1111  0.7089 -2.4065
  125OSM    H4G13374   4.470   6.220   7.123  0.4637  0.1764 -3.0798
  125OSM    C5F13375   4.438   6.043   7.243  0.3653 -0.3510  0.6148
  125OSM    H5F13376   4.546   6.028   7.263  0.3088 -0.3707  0.9112
  125OSM    H5G13377   4.392   5.942   7.238  2.6139 -1.4294  0.3623
  125OSM    C6F13378   4.388   6.122   7.367  0.4002 -0.5792  0.0932
  125OSM    H6F13379   4.290   6.160   7.331 -0.6667 -1.1727  2.2379
  125OSM    H6G13380   4.461   6.203   7.389 -0.9764  0.4867  0.9092
  125OSM    C7F13381   4.369   6.036   7.496  0.6595 -0.4264  0.6449
  125OSM    H7F13382   4.467   5.992   7.526  0.2026 -2.2007 -0.2823
  125OSM    H7G13383   4.297   5.957   7.467  1.8223 -0.6809 -1.7894
  125OSM    C8F13384   4.301   6.111   7.617  0.3956 -0.0398  0.5310
  125OSM    H8F13385   4.214   6.168   7.579  0.8515  0.1186 -0.3229
  125OSM    H8G13386   4.368   6.195   7.648 -2.9869  2.9984  0.2182
  125OSM    C9F13387   4.265   6.009   7.721 -0.3901 -0.0523 -0.2843
  125OSM    H9F13388   4.194   5.930   7.693 -2.1197  0.6631  1.8348
  125OSM   C10F13389   4.327   6.002   7.841  0.0296  0.8705 -0.3250
  125OSM   H10F13390   4.289   5.929   7.913 -0.0852  1.2700  0.0179
  125OSM   C11F13391   4.440   6.086   7.888 -0.2103 -0.4644 -0.7499
  125OSM   H11F13392   4.453   6.178   7.827 -0.6238  0.9260  1.1599
  125OSM   H11G13393   4.533   6.026   7.883  1.7982  2.3503  0.0511
  125OSM   C12F13394   4.436   6.139   8.032  0.5855  0.3872  0.1253
  125OSM   H12F13395   4.347   6.204   8.044  0.8877  0.8361 -0.0282
  125OSM   H12G13396   4.526   6.202   8.049  1.3305 -0.2061 -1.4659
  125OSM   C13F13397   4.447   6.033   8.148  0.0031  0.2381  0.3239
  125OSM   H13F13398   4.554   6.001   8.146  0.4894  1.6958 -2.5672
  125OSM   H13G13399   4.377   5.952   8.121  0.3970  0.3711 -1.1633
  125OSM   C14F13400   4.399   6.087   8.287  0.6547  0.8125  0.3148
  125OSM   H14F13401   4.431   6.012   8.363  0.6775 -0.1043 -0.5742
  125OSM   H14G13402   4.289   6.100   8.288  0.4609  1.1419 -4.3015
  125OSM   C15F13403   4.442   6.226   8.315  0.6681 -0.7809  0.2501
  125OSM   H15F13404   4.407   6.303   8.242  0.7818 -3.1312 -2.4321
  125OSM   H15G13405   4.552   6.239   8.307  0.7091 -1.4264 -0.4018
  125OSM   C16F13406   4.397   6.260   8.457 -0.9687 -0.9451  0.4381
  125OSM   H16F13407   4.437   6.185   8.529  0.4997 -0.2658  0.3689
  125OSM   H16G13408   4.289   6.246   8.477 -1.4309  2.3103  0.7534
  125OSM   C17F13409   4.449   6.394   8.509  0.2110  0.0084  0.1805
  125OSM   H17F13410   4.398   6.416   8.605 -0.6800  1.4142 -0.5896
  125OSM   H17G13411   4.427   6.475   8.437 -0.9555 -2.0723 -1.9338
  125OSM   C18F13412   4.598   6.400   8.543 -0.1593 -0.1654 -1.1963
  125OSM   H18F13413   4.651   6.359   8.455 -0.9447 -2.7427 -0.5446
  125OSM   H18G13414   4.634   6.342   8.630 -1.0527  0.0609 -0.6611
  125OSM   H18H13415   4.640   6.499   8.569 -1.9405  0.0546  1.1931
  126OSM      N13416   1.910   6.002   6.564  0.6940  0.4843 -0.4200
  126OSM    C1513417   2.028   6.006   6.473  0.0668 -0.1178 -0.5851
  126OSM   H15A13418   2.116   5.984   6.530  0.8480  1.8701 -0.9499
  126OSM   H15B13419   2.025   6.095   6.412 -0.6326 -0.7087 -1.4422
  126OSM   H15C13420   2.023   5.929   6.397 -1.0617 -2.3995  1.6415
  126OSM    C1413421   1.894   6.124   6.653  0.3910 -0.1336 -0.1972
  126OSM   H14A13422   1.868   6.210   6.593 -0.4402 -0.0203  0.3028
  126OSM   H14B13423   1.982   6.143   6.712  1.0480 -1.0231 -0.8598
  126OSM   H14C13424   1.813   6.113   6.723  1.1515  3.2166  1.3866
  126OSM    C1313425   1.779   5.996   6.480 -0.1202  0.3042  0.9085
  126OSM   H13A13426   1.773   5.910   6.415  0.0692  1.8453 -1.2715
  126OSM   H13B13427   1.771   6.077   6.409 -2.4475  0.3504  1.1279
  126OSM   H13C13428   1.687   5.996   6.537 -1.7174  0.3718 -1.5061
  126OSM    C1213429   1.917   5.877   6.653  0.2473 -0.3980  0.5918
  126OSM   H12A13430   1.927   5.788   6.592  5.9513  0.3996 -0.1647
  126OSM   H12B13431   1.824   5.860   6.706 -0.3972 -2.0282 -0.9508
  126OSM    C1113432   2.031   5.870   6.754 -0.2708 -0.1267  0.3717
  126OSM   H11A13433   2.014   5.791   6.830 -0.9355  0.6331  1.0455
  126OSM   H11B13434   2.027   5.958   6.822  1.0107 -0.8989  1.4882
  126OSM      P13435   2.235   5.735   6.671  0.0756  0.1798  0.2088
  126OSM    O1313436   2.159   5.646   6.586  0.2103 -0.6095  0.5251
  126OSM    O1413437   2.375   5.771   6.635  0.2587  0.1910  0.1575
  126OSM    O1113438   2.233   5.676   6.816  0.1345  0.2272  0.6345
  126OSM    O1213439   2.161   5.873   6.693  0.0629 -0.0414  0.4083
  126OSM    C1S13440   2.305   5.734   6.924  0.0666  0.0830  0.3364
  126OSM    H1S13441   2.340   5.837   6.904  2.4911 -1.0527 -1.7905
  126OSM    H1T13442   2.405   5.687   6.937 -0.2317 -0.8502 -0.5815
  126OSM     NF13443   2.289   5.802   7.165  0.2618 -0.4308 -0.5136
  126OSM    HNF13444   2.357   5.751   7.218  0.9848 -2.2159 -2.9995
  126OSM    C2S13445   2.228   5.719   7.060 -0.7900  0.0666  0.2216
  126OSM    H2S13446   2.127   5.765   7.053 -0.5750  0.6378  0.7365
  126OSM    C3S13447   2.211   5.565   7.085  0.0593 -0.3791  0.5774
  126OSM    H3S13448   2.315   5.527   7.095  0.8199  0.7263 -2.1318
  126OSM     O313449   2.160   5.490   6.978 -0.3247  0.3142  0.4011
  126OSM    HO313450   2.170   5.540   6.897 -2.0243  0.2200  0.0919
  126OSM    C4S13451   2.128   5.540   7.214  0.2932  0.5773 -0.3230
  126OSM    H4S13452   2.186   5.518   7.305 -1.6467  0.6432  0.9866
  126OSM    C5S13453   1.993   5.539   7.226  0.2112  0.1622 -0.9026
  126OSM    H5S13454   1.927   5.556   7.139 -0.8629 -0.8066 -0.3086
  126OSM    C6S13455   1.919   5.496   7.351  0.3197  0.0185  0.1574
  126OSM    H6S13456   1.847   5.418   7.319 -1.2747  1.3575  0.2948
  126OSM    H6T13457   1.859   5.584   7.384 -0.4139  0.2856 -1.7331
  126OSM    C7S13458   1.986   5.448   7.485 -0.4042 -0.0905  1.0603
  126OSM    H7S13459   2.068   5.512   7.525  1.0156 -1.1795  0.0055
  126OSM    H7T13460   2.042   5.356   7.460 -1.1250 -0.6640  1.5266
  126OSM    C8S13461   1.889   5.415   7.603 -0.3021  0.1126  0.0284
  126OSM    H8S13462   1.814   5.343   7.563  0.1789 -0.6240  0.4163
  126OSM    H8T13463   1.838   5.509   7.632  0.5532  0.3146  0.9380
  126OSM    C9S13464   1.959   5.351   7.726  0.4108  0.2926 -0.7635
  126OSM    H9S13465   2.050   5.303   7.683 -0.3864 -0.1279 -2.0533
  126OSM    H9T13466   1.887   5.273   7.757 -1.8054  1.5379 -2.4978
  126OSM   C10S13467   1.990   5.450   7.838 -0.0137 -0.3223  0.2139
  126OSM   H10S13468   1.896   5.493   7.880  0.8376 -0.0027  1.8627
  126OSM   H10T13469   2.053   5.533   7.802  1.4269 -2.4271 -2.4994
  126OSM   C11S13470   2.058   5.379   7.955  0.1190 -0.0932 -0.3165
  126OSM   H11S13471   2.147   5.320   7.924 -0.8399 -1.7511  0.0121
  126OSM   H11T13472   1.986   5.307   7.999  0.8164 -0.1885  0.7004
  126OSM   C12S13473   2.096   5.478   8.065  0.8309 -0.4857 -0.0192
  126OSM   H12S13474   2.013   5.538   8.107  0.0640 -1.7395  0.3131
  126OSM   H12T13475   2.171   5.553   8.032 -0.9953  1.7364  0.6544
  126OSM   C13S13476   2.172   5.412   8.169 -0.1016 -0.6958 -1.1936
  126OSM   H13S13477   2.259   5.357   8.126  0.3219 -0.2987 -0.8509
  126OSM   H13T13478   2.113   5.332   8.219 -2.6591  1.2768 -0.8690
  126OSM   C14S13479   2.228   5.508   8.283  0.4995  0.4914  1.1626
  126OSM   H14S13480   2.144   5.573   8.315 -0.6785  0.3414 -1.3782
  126OSM   H14T13481   2.296   5.585   8.239 -2.0732  2.8183  1.0178
  126OSM   C15S13482   2.290   5.423   8.393  0.6483 -0.6601  0.3656
  126OSM   H15S13483   2.377   5.361   8.364  1.1013 -0.6818  1.7405
  126OSM   H15T13484   2.205   5.356   8.417 -1.2966  0.9110 -1.7176
  126OSM   C16S13485   2.340   5.515   8.506  0.1187  1.3365 -0.0429
  126OSM   H16S13486   2.388   5.448   8.580 -1.2888  0.7884  0.4230
  126OSM   H16T13487   2.258   5.567   8.560 -0.5499  2.1153 -1.7306
  126OSM   C17S13488   2.444   5.621   8.463  0.8807 -0.2396 -0.6245
  126OSM   H17S13489   2.418   5.680   8.373  0.7466  0.8903  0.1357
  126OSM   H17T13490   2.544   5.574   8.448  1.1363 -0.5007  1.5067
  126OSM   C18S13491   2.457   5.719   8.585  0.2825 -0.0105 -1.0584
  126OSM   H18S13492   2.492   5.664   8.675 -0.7463  0.6219 -0.2513
  126OSM   H18T13493   2.353   5.753   8.605  0.7610  1.2195 -0.5956
  126OSM   H18U13494   2.521   5.808   8.570 -0.8132  1.1562  0.8117
  126OSM    C1F13495   2.287   5.938   7.174  0.1589 -0.1777 -0.4752
  126OSM     OF13496   2.219   6.003   7.091  0.3927  0.4962 -0.3783
  126OSM    C2F13497   2.379   6.009   7.267  0.5179 -0.8175  0.0507
  126OSM    H2F13498   2.482   5.989   7.231  0.0788 -2.6756 -0.2422
  126OSM    H2G13499   2.351   5.970   7.367 -3.9925 -1.8228 -1.4121
  126OSM    C3F13500   2.345   6.166   7.254 -0.5712  0.2128  0.8137
  126OSM    H3F13501   2.234   6.166   7.249 -0.5484 -1.6656 -1.4655
  126OSM    H3G13502   2.385   6.198   7.155 -1.9081  0.8460  0.4565
  126OSM    C4F13503   2.391   6.257   7.366  0.4055  0.8144 -0.6264
  126OSM    H4F13504   2.382   6.364   7.336 -0.8112  0.7277 -0.6386
  126OSM    H4G13505   2.493   6.221   7.390 -0.0333  1.3488  2.4983
  126OSM    C5F13506   2.311   6.240   7.500 -1.1492 -0.1432  0.3091
  126OSM    H5F13507   2.317   6.134   7.532 -2.3200  0.0117  1.0956
  126OSM    H5G13508   2.204   6.269   7.498 -0.5124  2.4856  0.2103
  126OSM    C6F13509   2.372   6.324   7.611  0.7716  0.2063 -0.8048
  126OSM    H6F13510   2.357   6.429   7.579 -0.9745 -0.0725 -0.9859
  126OSM    H6G13511   2.481   6.311   7.625  0.7854  0.8345 -0.2613
  126OSM    C7F13512   2.325   6.296   7.754 -0.0514 -0.0288 -0.2060
  126OSM    H7F13513   2.365   6.194   7.771  2.8280  1.0884  0.2270
  126OSM    H7G13514   2.214   6.290   7.766  0.0862 -1.1804  0.6467
  126OSM    C8F13515   2.385   6.383   7.865 -0.4039 -0.2711  0.5636
  126OSM    H8F13516   2.372   6.490   7.838  1.6541  0.3645  1.8488
  126OSM    H8G13517   2.493   6.360   7.878 -0.5526 -0.5606  1.3683
  126OSM    C9F13518   2.315   6.358   7.996 -0.3881 -0.0408  0.3425
  126OSM    H9F13519   2.266   6.260   7.991 -0.4305  0.0457 -1.6316
  126OSM   C10F13520   2.312   6.437   8.110 -0.4784  0.1545 -0.3677
  126OSM   H10F13521   2.255   6.406   8.198 -0.9096 -1.3517 -1.1362
  126OSM   C11F13522   2.384   6.574   8.121  0.7031  0.0499 -0.5027
  126OSM   H11F13523   2.386   6.630   8.025  1.8608  0.7687 -0.0855
  126OSM   H11G13524   2.493   6.572   8.141  0.4149  0.9297  1.3339
  126OSM   C12F13525   2.310   6.663   8.227 -0.2323 -0.5891  0.4717
  126OSM   H12F13526   2.201   6.664   8.205 -0.0363  3.1513 -1.1753
  126OSM   H12G13527   2.346   6.768   8.218 -1.6058 -0.1510 -0.2183
  126OSM   C13F13528   2.333   6.614   8.368 -0.7045 -0.0419  0.1558
  126OSM   H13F13529   2.441   6.618   8.395 -0.7322 -0.8610  0.4184
  126OSM   H13G13530   2.298   6.508   8.368 -2.3992  0.4658 -1.5809
  126OSM   C14F13531   2.252   6.685   8.477 -0.2641 -0.5795 -0.0075
  126OSM   H14F13532   2.146   6.684   8.444  0.0212  0.2676 -1.0249
  126OSM   H14G13533   2.268   6.794   8.465 -0.0083 -0.8008 -2.0405
  126OSM   C15F13534   2.284   6.642   8.619  0.0032 -0.5857 -0.4441
  126OSM   H15F13535   2.393   6.640   8.638  0.1409  1.3417 -0.7869
  126OSM   H15G13536   2.237   6.543   8.637  0.8524 -0.6773  1.4791
  126OSM   C16F13537   2.217   6.738   8.720  0.6570 -0.3048  0.4335
  126OSM   H16F13538   2.113   6.757   8.685  0.5457  0.5692  1.2006
  126OSM   H16G13539   2.264   6.838   8.718  1.4004 -0.6458 -1.1498
  126OSM   C17F13540   2.225   6.689   8.865 -0.1070  0.3957 -0.4113
  126OSM   H17F13541   2.326   6.697   8.910  1.0669 -1.8902 -2.3913
  126OSM   H17G13542   2.198   6.582   8.859 -0.2471  0.4278 -0.3687
  126OSM   C18F13543   2.136   6.756   8.974 -0.4359  1.1051  1.1193
  126OSM   H18F13544   2.146   6.866   8.960 -1.7736  1.2320  1.0161
  126OSM   H18G13545   2.165   6.726   9.076 -2.9540  0.0771  1.6267
  126OSM   H18H13546   2.028   6.733   8.957  0.0709 -1.3959  0.9367
  127OSM      N13547   2.490   2.616   5.896 -0.3934 -0.3485 -1.1049
  127OSM    C1513548   2.604   2.678   5.831 -0.4721  0.3416  0.0938
  127OSM   H15A13549   2.703   2.642   5.854  1.0029  3.0671 -1.4128
  127OSM   H15B13550   2.618   2.780   5.864  1.4851 -0.1646  0.9712
  127OSM   H15C13551   2.605   2.671   5.723 -0.1022  1.2560  0.0225
  127OSM    C1413552   2.365   2.673   5.831 -0.2358 -0.0337 -0.4112
  127OSM   H14A13553   2.366   2.666   5.723  2.2223  0.2143 -0.4474
  127OSM   H14B13554   2.350   2.779   5.847  2.0842  0.4936 -1.2987
  127OSM   H14C13555   2.277   2.622   5.869  1.5321 -0.4779  3.5938
  127OSM    C1313556   2.489   2.469   5.876  0.1533  0.7720  0.4123
  127OSM   H13A13557   2.589   2.431   5.892  0.3830  0.4810 -1.4468
  127OSM   H13B13558   2.458   2.445   5.775  1.4771 -0.5422  0.2827
  127OSM   H13C13559   2.416   2.416   5.935  0.7874 -2.0971 -1.1875
  127OSM    C1213560   2.481   2.652   6.043  0.1213 -0.7337  0.1139
  127OSM   H12A13561   2.397   2.598   6.084  0.7011 -2.2484 -0.6184
  127OSM   H12B13562   2.452   2.756   6.049 -2.3993 -1.4496  1.9037
  127OSM    C1113563   2.602   2.616   6.128 -0.2687  0.0064  0.4123
  127OSM   H11A13564   2.582   2.661   6.227  0.9339  2.6475 -0.4603
  127OSM   H11B13565   2.694   2.671   6.100 -0.1062 -0.1338  0.6725
  127OSM      P13566   2.545   2.375   6.223  0.4223 -0.1093 -0.3491
  127OSM    O1313567   2.400   2.413   6.213 -0.2182 -0.2449 -0.7158
  127OSM    O1413568   2.589   2.239   6.197 -0.6071  0.1713 -0.1348
  127OSM    O1113569   2.602   2.419   6.365  0.1302 -0.8271 -0.4593
  127OSM    O1213570   2.625   2.478   6.127  0.5253  0.1855  0.2698
  127OSM    C1S13571   2.745   2.438   6.374 -0.3756  0.6166  0.2623
  127OSM    H1S13572   2.773   2.541   6.342  0.5829 -0.3081 -2.1301
  127OSM    H1T13573   2.800   2.371   6.305  0.7568  1.8370 -0.0648
  127OSM     NF13574   2.926   2.475   6.549  0.4687  0.1885 -0.4215
  127OSM    HNF13575   3.009   2.427   6.577  1.4279  1.7696 -0.4294
  127OSM    C2S13576   2.796   2.412   6.523 -0.6341  0.5525 -0.7943
  127OSM    H2S13577   2.733   2.475   6.590  2.3727  1.4175  1.4147
  127OSM    C3S13578   2.797   2.265   6.566 -0.3973  0.3120 -0.1944
  127OSM    H3S13579   2.881   2.215   6.514 -1.6871  1.3239 -3.5675
  127OSM     O313580   2.674   2.194   6.530 -0.1249 -0.2032 -0.2159
  127OSM    HO313581   2.631   2.253   6.468  1.0440  0.2737 -0.6067
  127OSM    C4S13582   2.824   2.256   6.713 -0.2626 -0.1733  0.4975
  127OSM    H4S13583   2.932   2.258   6.734  0.2905  0.7088 -2.0782
  127OSM    C5S13584   2.740   2.262   6.818 -0.4650  0.1804 -0.0157
  127OSM    H5S13585   2.633   2.274   6.792 -0.0896 -1.9598 -3.1418
  127OSM    C6S13586   2.781   2.249   6.968 -0.7838 -0.0378  0.0037
  127OSM    H6S13587   2.767   2.142   6.994 -2.0371 -0.0396 -0.6146
  127OSM    H6T13588   2.710   2.313   7.025 -0.2680  0.0344  0.5757
  127OSM    C7S13589   2.923   2.299   6.997 -0.2318  0.2425  0.3537
  127OSM    H7S13590   2.932   2.402   6.957 -0.3325 -0.3481 -1.2660
  127OSM    H7T13591   2.993   2.241   6.932  1.7528  2.5282  0.3044
  127OSM    C8S13592   2.954   2.290   7.154  1.1320 -0.1521  0.5629
  127OSM    H8S13593   3.061   2.311   7.171  0.7452  2.5202  0.2041
  127OSM    H8T13594   2.923   2.189   7.187 -2.2444  0.6634  0.3072
  127OSM    C9S13595   2.877   2.407   7.232  0.2778  0.4987  0.4519
  127OSM    H9S13596   2.769   2.388   7.216  0.3993 -0.9152  1.2069
  127OSM    H9T13597   2.903   2.506   7.187  0.6867 -0.6375 -1.9937
  127OSM   C10S13598   2.907   2.395   7.382  0.1913 -0.2354  0.1437
  127OSM   H10S13599   3.017   2.401   7.379  0.1285  0.5139 -1.3972
  127OSM   H10T13600   2.874   2.292   7.409  1.1080 -0.4859  0.3377
  127OSM   C11S13601   2.841   2.502   7.476  0.3523  0.5011 -0.3862
  127OSM   H11S13602   2.743   2.531   7.432 -0.4741 -1.0837  0.3123
  127OSM   H11T13603   2.908   2.588   7.456  1.8407 -0.3117  0.9042
  127OSM   C12S13604   2.849   2.458   7.628 -0.4975  0.2550  0.0833
  127OSM   H12S13605   2.942   2.504   7.668 -0.0166 -0.3319 -0.3521
  127OSM   H12T13606   2.860   2.349   7.643 -3.1192  0.1881  2.4418
  127OSM   C13S13607   2.731   2.506   7.715  0.4024  0.0554 -0.1168
  127OSM   H13S13608   2.636   2.463   7.675  0.0628 -0.9359  1.6446
  127OSM   H13T13609   2.715   2.616   7.716  0.4489  0.0624  1.0916
  127OSM   C14S13610   2.750   2.466   7.865  0.7645  0.8784  0.1508
  127OSM   H14S13611   2.859   2.463   7.887  0.4407 -0.8944  1.7438
  127OSM   H14T13612   2.724   2.359   7.879  1.9352  0.2054 -2.1970
  127OSM   C15S13613   2.662   2.543   7.961 -0.0030 -0.9023 -0.0644
  127OSM   H15S13614   2.553   2.525   7.950  0.1499 -2.5499  0.8637
  127OSM   H15T13615   2.685   2.650   7.944 -1.1312 -0.6831 -0.3280
  127OSM   C16S13616   2.704   2.525   8.106  0.3195  0.7376 -0.0751
  127OSM   H16S13617   2.795   2.584   8.129  0.7655  0.8824 -2.0398
  127OSM   H16T13618   2.721   2.418   8.130 -1.5739  0.1206 -1.2966
  127OSM   C17S13619   2.598   2.567   8.208 -0.1563 -0.2161  0.4160
  127OSM   H17S13620   2.505   2.519   8.171  0.6350 -1.4358 -0.0617
  127OSM   H17T13621   2.597   2.678   8.213 -0.9489 -0.1898 -0.1424
  127OSM   C18S13622   2.617   2.500   8.345  0.0746  0.2240 -0.4646
  127OSM   H18S13623   2.626   2.391   8.325 -1.3600  0.5012 -2.9132
  127OSM   H18T13624   2.532   2.512   8.415  0.4646  0.3422 -0.0036
  127OSM   H18U13625   2.715   2.533   8.386  0.3166 -1.3624  0.3074
  127OSM    C1F13626   2.935   2.609   6.537 -0.2788  0.6047 -0.4549
  127OSM     OF13627   2.834   2.679   6.522 -0.8486  0.8200 -0.2194
  127OSM    C2F13628   3.070   2.682   6.541  0.4444 -0.3812 -0.4352
  127OSM    H2F13629   3.064   2.756   6.458 -0.5820  0.6018  0.4726
  127OSM    H2G13630   3.157   2.618   6.518  0.7747  0.1261 -0.6314
  127OSM    C3F13631   3.101   2.762   6.670 -0.0084  0.1831  0.3730
  127OSM    H3F13632   3.049   2.860   6.677 -0.2805  0.0057  0.8697
  127OSM    H3G13633   3.210   2.780   6.661  0.1700 -1.5178 -1.3251
  127OSM    C4F13634   3.074   2.677   6.797 -0.4212 -0.0585  0.2188
  127OSM    H4F13635   3.124   2.579   6.784  0.5841  0.3607  0.8272
  127OSM    H4G13636   2.965   2.678   6.818 -0.3915 -0.0588  0.3692
  127OSM    C5F13637   3.142   2.734   6.926 -0.3372 -0.0290 -0.6411
  127OSM    H5F13638   3.095   2.829   6.959  0.1696 -0.5033  1.5651
  127OSM    H5G13639   3.252   2.738   6.913  0.5027 -2.6585  3.7309
  127OSM    C6F13640   3.139   2.631   7.046  0.1100 -0.2583 -0.2155
  127OSM    H6F13641   3.173   2.529   7.018 -1.4402 -0.6263 -0.8424
  127OSM    H6G13642   3.033   2.625   7.078  0.6447 -0.8933  1.5795
  127OSM    C7F13643   3.229   2.683   7.162  0.5059 -0.2257 -0.6738
  127OSM    H7F13644   3.218   2.790   7.190  1.6011 -0.8137  2.3688
  127OSM    H7G13645   3.333   2.682   7.124  0.9754  1.1093  0.4982
  127OSM    C8F13646   3.213   2.609   7.296  0.5446 -0.6020  0.4101
  127OSM    H8F13647   3.228   2.500   7.276 -2.4319 -0.9294 -0.6398
  127OSM    H8G13648   3.113   2.604   7.343 -0.1968 -1.0806 -1.1305
  127OSM    C9F13649   3.313   2.653   7.401 -0.1330  0.4765 -0.4066
  127OSM    H9F13650   3.417   2.625   7.383  0.5165  1.2760  1.7666
  127OSM   C10F13651   3.285   2.718   7.517 -0.5829  0.5378  0.3938
  127OSM   H10F13652   3.372   2.732   7.583  0.5143 -2.8197 -0.1422
  127OSM   C11F13653   3.154   2.771   7.549  0.3378  0.3288 -0.5040
  127OSM   H11F13654   3.071   2.698   7.550  0.1398  0.5589 -0.2194
  127OSM   H11G13655   3.119   2.826   7.458  0.7050  0.0042 -0.8479
  127OSM   C12F13656   3.155   2.858   7.676  0.1638 -0.6755  0.3436
  127OSM   H12F13657   3.056   2.902   7.703  0.6506 -0.1653  1.3131
  127OSM   H12G13658   3.220   2.946   7.662 -1.5228  0.7135  0.8655
  127OSM   C13F13659   3.190   2.784   7.807 -0.2471  0.0996 -0.5529
  127OSM   H13F13660   3.218   2.678   7.788  2.9687  1.3063 -3.3859
  127OSM   H13G13661   3.104   2.784   7.878  0.7798  0.1381  0.7236
  127OSM   C14F13662   3.298   2.855   7.886  0.6068 -0.4739  0.2388
  127OSM   H14F13663   3.343   2.941   7.832  0.6044 -0.5293  0.1481
  127OSM   H14G13664   3.380   2.780   7.886 -0.2209 -1.3947 -0.5036
  127OSM   C15F13665   3.256   2.898   8.028  0.2553 -0.6226  0.5051
  127OSM   H15F13666   3.185   2.829   8.079 -0.1347  0.3254  1.2752
  127OSM   H15G13667   3.192   2.987   8.011 -1.2179 -1.7163  0.0951
  127OSM   C16F13668   3.375   2.926   8.125 -0.3011  0.2865 -0.2829
  127OSM   H16F13669   3.431   3.006   8.073 -0.6619 -0.0579 -1.2169
  127OSM   H16G13670   3.437   2.834   8.137 -0.6094  0.2282  1.0486
  127OSM   C17F13671   3.336   2.958   8.276  0.5733 -0.2735 -0.6002
  127OSM   H17F13672   3.266   2.884   8.319  0.5485  1.1527  2.0411
  127OSM   H17G13673   3.282   3.055   8.284  0.7297 -0.2328 -0.0417
  127OSM   C18F13674   3.461   2.965   8.361  0.2711 -0.1124  0.1967
  127OSM   H18F13675   3.506   2.864   8.352 -0.1418 -0.1704 -1.5838
  127OSM   H18G13676   3.449   2.994   8.468 -0.3156 -1.0764  0.4038
  127OSM   H18H13677   3.528   3.039   8.313  0.0023 -0.0415 -0.0736
  128OSM      N13678   5.627   1.182   5.922  0.4079  0.3474  0.3486
  128OSM    C1513679   5.756   1.132   5.955 -0.0093 -0.2275 -0.6460
  128OSM   H15A13680   5.779   1.045   5.895 -0.3024 -0.9053  0.1901
  128OSM   H15B13681   5.758   1.111   6.061  0.4079  3.5580  0.2297
  128OSM   H15C13682   5.841   1.196   5.934  0.2218 -0.7556 -1.3625
  128OSM    C1413683   5.616   1.318   5.984 -0.4893 -0.5773 -0.4141
  128OSM   H14A13684   5.523   1.358   5.947 -0.4842 -0.5988 -0.4505
  128OSM   H14B13685   5.694   1.389   5.962 -1.4058  0.7995  0.6471
  128OSM   H14C13686   5.608   1.304   6.090 -1.7726  0.0803 -0.4079
  128OSM    C1313687   5.613   1.196   5.773  0.2576  0.2785 -0.8735
  128OSM   H13A13688   5.521   1.247   5.747  0.4670  1.4221  0.5466
  128OSM   H13B13689   5.624   1.102   5.720 -1.1421 -0.9437  0.8557
  128OSM   H13C13690   5.698   1.254   5.741  1.0603  0.2472  1.0776
  128OSM    C1213691   5.508   1.090   5.969  0.0116 -0.4326  0.4278
  128OSM   H12A13692   5.516   0.998   5.913 -1.2003 -0.1458 -0.2667
  128OSM   H12B13693   5.416   1.137   5.936  0.5482  1.1335  1.0826
  128OSM    C1113694   5.464   1.065   6.117  0.0498  0.1283  0.4694
  128OSM   H11A13695   5.545   1.002   6.160  0.8941  0.9855  0.1857
  128OSM   H11B13696   5.365   1.015   6.120  0.5687 -1.0352 -0.7556
  128OSM      P13697   5.318   1.269   6.205  0.4309  0.0161  0.0348
  128OSM    O1313698   5.323   1.407   6.159 -0.5979 -0.4131 -0.7713
  128OSM    O1413699   5.207   1.189   6.148 -0.5246 -0.6017 -0.0196
  128OSM    O1113700   5.311   1.270   6.363 -0.2406 -0.1434 -0.4894
  128OSM    O1213701   5.458   1.184   6.185 -0.3070 -0.0727 -0.1471
  128OSM    C1S13702   5.266   1.158   6.438  0.0201  0.1061 -0.0950
  128OSM    H1S13703   5.327   1.068   6.419  0.5828  0.3411  0.5640
  128OSM    H1T13704   5.156   1.146   6.425  0.2295 -1.8908 -0.3426
  128OSM     NF13705   5.263   1.067   6.677 -0.0066 -0.5425  0.2359
  128OSM    HNF13706   5.176   1.066   6.726  0.0918  0.0058  0.4359
  128OSM    C2S13707   5.297   1.183   6.591 -0.0410 -0.8052  0.0884
  128OSM    H2S13708   5.403   1.210   6.611  0.2454 -1.4552 -0.5339
  128OSM    C3S13709   5.207   1.304   6.635  1.5559  0.1890  0.3746
  128OSM    H3S13710   5.101   1.281   6.614  1.4671  1.5088 -0.7744
  128OSM     O313711   5.235   1.420   6.558  0.1723  0.0842 -0.1318
  128OSM    HO313712   5.283   1.382   6.484  0.9874  0.0044  0.4223
  128OSM    C4S13713   5.219   1.335   6.784 -0.6678 -0.2623  0.2323
  128OSM    H4S13714   5.157   1.270   6.848 -0.9372 -0.3467 -0.1078
  128OSM    C5S13715   5.293   1.433   6.844  0.2292  0.1972  0.1437
  128OSM    H5S13716   5.356   1.500   6.784 -0.7593  0.4980 -0.5875
  128OSM    C6S13717   5.294   1.450   6.996 -0.0863  0.7498 -0.0642
  128OSM    H6S13718   5.223   1.526   7.036 -1.5900 -0.3695 -0.5340
  128OSM    H6T13719   5.393   1.488   7.029  1.3550 -2.9416  0.2893
  128OSM    C7S13720   5.283   1.335   7.088  1.0942 -0.3142 -0.6525
  128OSM    H7S13721   5.349   1.249   7.066  2.9426  0.6002  1.0450
  128OSM    H7T13722   5.178   1.299   7.088  0.9449  0.0096  1.0741
  128OSM    C8S13723   5.305   1.386   7.242  0.0160  0.2322  0.5747
  128OSM    H8S13724   5.241   1.476   7.256  0.2631  0.4076  0.5767
  128OSM    H8T13725   5.409   1.421   7.256 -0.0612  0.8728 -0.3399
  128OSM    C9S13726   5.276   1.272   7.341 -0.5583  0.3796  0.0669
  128OSM    H9S13727   5.347   1.195   7.304  0.1411  1.5005 -1.0115
  128OSM    H9T13728   5.170   1.240   7.338 -0.9861  1.5425  1.5764
  128OSM   C10S13729   5.329   1.320   7.483  0.0531 -0.0934  0.7208
  128OSM   H10S13730   5.281   1.418   7.505 -1.3297 -0.5500 -0.1249
  128OSM   H10T13731   5.439   1.333   7.479 -0.0016  0.3113  0.3729
  128OSM   C11S13732   5.308   1.219   7.591 -0.1942 -0.7404 -0.0395
  128OSM   H11S13733   5.334   1.115   7.562  2.0280 -1.9025  5.0944
  128OSM   H11T13734   5.197   1.209   7.601 -0.4027  2.3036  2.0510
  128OSM   C12S13735   5.364   1.237   7.729  0.1430 -0.2780  0.5924
  128OSM   H12S13736   5.330   1.331   7.777  1.1310  0.4589 -0.1445
  128OSM   H12T13737   5.474   1.243   7.716  0.0275 -2.3911 -2.4219
  128OSM   C13S13738   5.345   1.110   7.818 -0.2706  0.2382  0.8440
  128OSM   H13S13739   5.370   1.015   7.767 -2.3851 -0.1300  0.4001
  128OSM   H13T13740   5.238   1.104   7.851 -0.2251 -0.8043  0.8327
  128OSM   C14S13741   5.439   1.112   7.944 -0.2681  0.4765 -0.1298
  128OSM   H14S13742   5.451   1.218   7.978  0.9216 -0.0507  1.1922
  128OSM   H14T13743   5.537   1.076   7.908 -0.9122 -2.4751  0.7772
  128OSM   C15S13744   5.392   1.029   8.068  0.2224 -0.2849  0.6058
  128OSM   H15S13745   5.357   0.927   8.043 -0.8314  0.3418 -0.6051
  128OSM   H15T13746   5.306   1.093   8.098 -0.3392  0.2792 -1.9668
  128OSM   C16S13747   5.507   1.017   8.173  0.3935 -0.1831 -0.4509
  128OSM   H16S13748   5.440   0.984   8.255 -0.7905 -0.6118 -1.5520
  128OSM   H16T13749   5.553   1.114   8.200  0.2450 -0.9229  2.8097
  128OSM   C17S13750   5.606   0.908   8.146  0.0168 -1.3351  0.3304
  128OSM   H17S13751   5.677   0.937   8.066 -1.3179 -0.0098 -0.4229
  128OSM   H17T13752   5.562   0.807   8.134 -0.2851 -0.8618 -3.5826
  128OSM   C18S13753   5.691   0.892   8.275  0.1052 -0.2457  0.7256
  128OSM   H18S13754   5.730   0.986   8.319  0.5696 -0.2124  0.2576
  128OSM   H18T13755   5.778   0.827   8.251 -0.6819 -1.0046 -0.1916
  128OSM   H18U13756   5.620   0.852   8.350 -1.2686 -0.3145 -0.5679
  128OSM    C1F13757   5.345   0.957   6.673  0.4255  0.5323  0.0761
  128OSM     OF13758   5.443   0.958   6.598 -0.0136  0.4484 -0.1147
  128OSM    C2F13759   5.286   0.829   6.732  0.1601  0.5201 -0.3094
  128OSM    H2F13760   5.253   0.773   6.642 -0.7416 -0.7766  0.7830
  128OSM    H2G13761   5.200   0.858   6.796  0.0616  0.4015 -0.3891
  128OSM    C3F13762   5.392   0.760   6.813 -0.5048 -0.3383  0.2538
  128OSM    H3F13763   5.484   0.738   6.754 -0.1790 -0.5138  0.8218
  128OSM    H3G13764   5.360   0.661   6.852  0.7012 -1.8566 -2.3373
  128OSM    C4F13765   5.439   0.853   6.939 -0.0185  0.0144  0.2304
  128OSM    H4F13766   5.341   0.868   6.989 -0.1403 -1.5443  0.5235
  128OSM    H4G13767   5.492   0.934   6.886 -1.5393 -1.4091 -3.8483
  128OSM    C5F13768   5.531   0.778   7.033 -0.1085 -0.8474 -0.3227
  128OSM    H5F13769   5.623   0.741   6.984  1.3528 -0.9001  2.3224
  128OSM    H5G13770   5.484   0.683   7.066  0.8292 -1.1282  0.2262
  128OSM    C6F13771   5.572   0.854   7.160  0.1646 -0.3461  0.3487
  128OSM    H6F13772   5.666   0.803   7.191  0.3735 -0.7025 -0.8290
  128OSM    H6G13773   5.492   0.844   7.237  0.2163  0.1262  0.4701
  128OSM    C7F13774   5.622   1.000   7.131 -0.3961  0.3451  0.1641
  128OSM    H7F13775   5.543   1.077   7.142  0.0808  0.5162  3.3430
  128OSM    H7G13776   5.670   0.992   7.032  0.8678 -1.0957  0.8483
  128OSM    C8F13777   5.737   1.047   7.219  1.2960  0.4940  0.3520
  128OSM    H8F13778   5.790   1.121   7.155  1.0322  1.2614  1.0086
  128OSM    H8G13779   5.800   0.958   7.240 -0.1643 -0.5306  0.5113
  128OSM    C9F13780   5.689   1.114   7.342 -0.1180 -0.4833  0.6507
  128OSM    H9F13781   5.611   1.190   7.327 -2.3555 -3.0652 -2.4924
  128OSM   C10F13782   5.717   1.092   7.473 -0.2998 -0.0281  0.2690
  128OSM   H10F13783   5.662   1.149   7.548  0.5701 -0.2880  1.1234
  128OSM   C11F13784   5.817   0.987   7.523  0.1695 -0.5972 -0.5830
  128OSM   H11F13785   5.878   1.028   7.606 -0.8664 -0.7936  0.3024
  128OSM   H11G13786   5.882   0.947   7.442  0.9059  2.6975 -1.7680
  128OSM   C12F13787   5.740   0.862   7.577  0.2503 -0.2067  0.0173
  128OSM   H12F13788   5.815   0.798   7.629  2.3997  0.5141 -2.0208
  128OSM   H12G13789   5.697   0.803   7.493 -0.2297 -2.0077  1.4510
  128OSM   C13F13790   5.638   0.888   7.684 -0.8286 -0.1866 -0.5161
  128OSM   H13F13791   5.547   0.935   7.641 -2.3213 -2.6800 -0.2890
  128OSM   H13G13792   5.693   0.951   7.757 -0.6209 -2.6863  1.6563
  128OSM   C14F13793   5.586   0.778   7.778 -0.6938  0.0646 -0.3286
  128OSM   H14F13794   5.525   0.822   7.860  0.2514  0.0559  0.3991
  128OSM   H14G13795   5.671   0.726   7.828 -0.1354  1.5405  0.3116
  128OSM   C15F13796   5.499   0.667   7.712  0.3288 -0.4092  0.1501
  128OSM   H15F13797   5.563   0.621   7.633 -0.0949  0.4999 -0.7559
  128OSM   H15G13798   5.413   0.712   7.657 -1.4649 -0.3695  2.8015
  128OSM   C16F13799   5.448   0.555   7.808  1.3679  0.6115  0.3748
  128OSM   H16F13800   5.536   0.511   7.859  0.7341 -2.0734 -0.6466
  128OSM   H16G13801   5.401   0.485   7.735  0.1964  1.6547  0.1107
  128OSM   C17F13802   5.339   0.597   7.907  0.0220 -0.8821 -0.8334
  128OSM   H17F13803   5.239   0.613   7.863  0.5539 -0.9523 -2.1177
  128OSM   H17G13804   5.366   0.698   7.943 -1.0235 -0.3608 -1.4845
  128OSM   C18F13805   5.314   0.497   8.017  0.3754 -0.3838  0.0503
  128OSM   H18F13806   5.398   0.484   8.088 -0.8933 -1.7617  1.3809
  128OSM   H18G13807   5.297   0.398   7.969 -0.1894 -0.0301 -0.4993
  128OSM   H18H13808   5.229   0.521   8.084  1.3900  3.3491  0.2246
  129OSM      N13809   3.100   3.671   6.589 -0.0373 -0.1378 -0.1495
  129OSM    C1513810   3.020   3.587   6.677 -0.0953  0.1742 -0.2295
  129OSM   H15A13811   2.964   3.508   6.628  0.4403  1.6188 -3.3978
  129OSM   H15B13812   2.960   3.652   6.738  3.1036  1.4132  1.8926
  129OSM   H15C13813   3.085   3.545   6.753 -0.9832  0.2467  0.5847
  129OSM    C1413814   3.013   3.791   6.545 -0.3792 -0.0716 -0.6985
  129OSM   H14A13815   2.973   3.840   6.632 -0.8865 -3.2602  0.9751
  129OSM   H14B13816   2.925   3.756   6.494  0.1984 -1.0915 -1.0361
  129OSM   H14C13817   3.058   3.858   6.473 -1.0986 -0.1895 -1.2673
  129OSM    C1313818   3.207   3.740   6.669  0.0494  0.1643 -0.3031
  129OSM   H13A13819   3.289   3.679   6.705 -2.7247 -3.6993  0.1050
  129OSM   H13B13820   3.159   3.777   6.759 -1.1662 -1.5648 -0.1878
  129OSM   H13C13821   3.239   3.831   6.621 -2.3927  0.9211 -0.6252
  129OSM    C1213822   3.160   3.596   6.472 -0.5891  0.0354  0.1370
  129OSM   H12A13823   3.217   3.514   6.512  1.1876  0.8781 -0.5392
  129OSM   H12B13824   3.219   3.669   6.418  1.2099 -1.0586  0.5476
  129OSM    C1113825   3.063   3.528   6.371  0.0567  0.1602 -0.1335
  129OSM   H11A13826   2.991   3.600   6.328 -0.2363  0.2623  0.5203
  129OSM   H11B13827   3.002   3.452   6.424 -0.1314  0.5732  0.2486
  129OSM      P13828   3.244   3.351   6.293 -0.0657 -0.3347  0.0333
  129OSM    O1313829   3.178   3.236   6.236  0.2755  0.3350 -0.3363
  129OSM    O1413830   3.375   3.392   6.236  0.3297 -0.5735  0.1285
  129OSM    O1113831   3.251   3.336   6.454 -0.0200  0.0438  0.2640
  129OSM    O1213832   3.149   3.474   6.271  0.6241 -0.0402 -0.1107
  129OSM    C1S13833   3.355   3.261   6.514  0.2170 -0.3554 -0.1668
  129OSM    H1S13834   3.439   3.333   6.512 -1.7098  2.0271 -0.1228
  129OSM    H1T13835   3.383   3.170   6.456 -0.1573 -0.0063 -0.9148
  129OSM     NF13836   3.436   3.162   6.721 -0.8070 -0.0224 -0.1192
  129OSM    HNF13837   3.433   3.065   6.742 -1.0675  0.0882  0.3722
  129OSM    C2S13838   3.318   3.207   6.651 -0.0183 -0.3487  0.1564
  129OSM    H2S13839   3.286   3.291   6.716  1.4116 -1.3572  2.2998
  129OSM    C3S13840   3.202   3.099   6.651  0.5363 -0.0680 -0.2681
  129OSM    H3S13841   3.245   3.005   6.609 -2.0626 -1.7211  0.5217
  129OSM     O313842   3.100   3.129   6.557 -0.2534  0.1365  0.1351
  129OSM    HO313843   3.131   3.208   6.513 -1.3682  1.0300  0.8940
  129OSM    C4S13844   3.155   3.080   6.796 -0.2316  0.4780  0.1482
  129OSM    H4S13845   3.209   2.998   6.847 -0.9063  0.3610  0.6781
  129OSM    C5S13846   3.058   3.140   6.859  0.8437  1.0329  0.8666
  129OSM    H5S13847   3.002   3.220   6.809 -1.1233 -0.8387 -0.0902
  129OSM    C6S13848   3.018   3.115   6.997 -0.0570  0.3191  0.1214
  129OSM    H6S13849   2.959   3.022   7.010 -0.9020  0.5380 -1.8044
  129OSM    H6T13850   2.963   3.202   7.040 -0.5986 -0.3274  0.7676
  129OSM    C7S13851   3.144   3.094   7.088 -0.4848 -0.8658 -0.0559
  129OSM    H7S13852   3.231   3.160   7.066 -1.6514  0.9580  0.5799
  129OSM    H7T13853   3.170   2.986   7.094 -0.5943 -0.8354  1.1544
  129OSM    C8S13854   3.105   3.137   7.232  0.4125  0.6125 -0.6241
  129OSM    H8S13855   3.032   3.063   7.273  0.9310  1.2280  1.5685
  129OSM    H8T13856   3.063   3.240   7.235  1.1462  0.8944  1.1669
  129OSM    C9S13857   3.225   3.128   7.320  0.1928 -0.5441 -0.6753
  129OSM    H9S13858   3.318   3.172   7.276  0.2553 -1.0609 -1.0625
  129OSM    H9T13859   3.254   3.022   7.334  0.1194 -0.3969  0.7873
  129OSM   C10S13860   3.199   3.181   7.463  0.5064 -0.6292 -1.1909
  129OSM   H10S13861   3.121   3.111   7.501 -0.5991 -0.5265 -3.1335
  129OSM   H10T13862   3.150   3.281   7.463  0.4793 -0.5383  1.6812
  129OSM   C11S13863   3.321   3.178   7.563 -0.0444 -0.1184 -0.2845
  129OSM   H11S13864   3.401   3.241   7.519 -0.4885 -0.0891 -1.0733
  129OSM   H11T13865   3.357   3.073   7.565 -1.2021 -0.6170 -2.3604
  129OSM   C12S13866   3.296   3.230   7.701 -0.3440  0.4437 -0.2851
  129OSM   H12S13867   3.210   3.175   7.745 -0.2006  2.0691  2.2516
  129OSM   H12T13868   3.272   3.337   7.687  1.9753  1.1666  0.7467
  129OSM   C13S13869   3.420   3.216   7.793  0.2765  0.1759 -0.0011
  129OSM   H13S13870   3.501   3.277   7.748  2.6346 -1.0633  2.2622
  129OSM   H13T13871   3.459   3.113   7.781 -0.3190 -0.0588  0.0809
  129OSM   C14S13872   3.399   3.259   7.939  0.9673  0.1503 -0.5329
  129OSM   H14S13873   3.316   3.201   7.985 -0.0301  1.9642  0.0812
  129OSM   H14T13874   3.374   3.367   7.934 -0.5770 -0.1739 -0.2213
  129OSM   C15S13875   3.530   3.249   8.009 -0.0363 -1.0295  0.8317
  129OSM   H15S13876   3.616   3.300   7.962  0.8325 -1.8150  1.5223
  129OSM   H15T13877   3.559   3.142   8.015  2.2150 -0.6186 -1.2362
  129OSM   C16S13878   3.514   3.305   8.155  0.3141  0.1290  0.9518
  129OSM   H16S13879   3.434   3.249   8.207 -0.0228 -0.3580 -0.0716
  129OSM   H16T13880   3.468   3.406   8.143  1.1933  0.2116 -3.7799
  129OSM   C17S13881   3.633   3.325   8.231  0.4602 -0.0108 -0.1067
  129OSM   H17S13882   3.713   3.378   8.175 -0.1060  0.9306 -0.0362
  129OSM   H17T13883   3.673   3.227   8.266 -0.7785 -1.1547 -1.7695
  129OSM   C18S13884   3.599   3.402   8.364 -0.7828 -0.0270  0.3481
  129OSM   H18S13885   3.539   3.494   8.345 -1.1248 -0.5929 -1.4882
  129OSM   H18T13886   3.696   3.417   8.415 -2.3064  3.8444  2.5263
  129OSM   H18U13887   3.539   3.333   8.427 -1.8258  0.9495  0.4536
  129OSM    C1F13888   3.530   3.247   6.776 -0.0712 -0.3206  0.1379
  129OSM     OF13889   3.509   3.371   6.765  0.5829 -0.5350  0.0872
  129OSM    C2F13890   3.643   3.181   6.847 -0.4223 -0.2833 -0.3796
  129OSM    H2F13891   3.738   3.236   6.829 -0.6508  0.6258  0.9994
  129OSM    H2G13892   3.651   3.075   6.818  0.7310  0.2206 -2.0368
  129OSM    C3F13893   3.601   3.182   7.001  0.0296  0.2989 -1.0782
  129OSM    H3F13894   3.493   3.173   7.023  0.6017 -0.2620  2.0558
  129OSM    H3G13895   3.607   3.283   7.049 -0.0695 -0.3439  0.3451
  129OSM    C4F13896   3.669   3.060   7.075  0.4340 -0.0496 -0.5353
  129OSM    H4F13897   3.779   3.073   7.064  0.3220  0.1086 -1.5660
  129OSM    H4G13898   3.645   2.961   7.031  0.6541 -0.3128 -0.0690
  129OSM    C5F13899   3.622   3.052   7.219  0.0535 -0.2651 -0.4813
  129OSM    H5F13900   3.513   3.037   7.232  0.0489  0.5496  0.6204
  129OSM    H5G13901   3.633   3.150   7.272  1.9711  0.5008 -2.1398
  129OSM    C6F13902   3.681   2.936   7.300 -0.1800  0.3093 -0.2634
  129OSM    H6F13903   3.791   2.948   7.295 -0.0286 -1.0305 -0.7120
  129OSM    H6G13904   3.655   2.840   7.249  1.3286 -0.3363  0.1257
  129OSM    C7F13905   3.616   2.932   7.444 -0.1784 -0.3950 -0.3236
  129OSM    H7F13906   3.642   2.832   7.485  2.1085  0.1768 -0.2103
  129OSM    H7G13907   3.505   2.935   7.446 -0.2452 -1.9050  1.8415
  129OSM    C8F13908   3.674   3.034   7.550 -0.4526  0.0763  0.0434
  129OSM    H8F13909   3.599   3.024   7.632  0.7729 -2.6736  0.9333
  129OSM    H8G13910   3.667   3.137   7.507  1.7105  0.4481  0.4507
  129OSM    C9F13911   3.812   2.995   7.597 -0.1896 -0.1478 -0.3753
  129OSM    H9F13912   3.899   3.040   7.547  0.0469 -0.1700  0.0118
  129OSM   C10F13913   3.845   2.912   7.695 -0.0944 -0.5295  0.2538
  129OSM   H10F13914   3.953   2.900   7.710  0.0971  0.0249 -0.6106
  129OSM   C11F13915   3.746   2.828   7.776 -0.5305  0.6005 -0.7037
  129OSM   H11F13916   3.779   2.724   7.796  0.2119  0.7883 -0.9130
  129OSM   H11G13917   3.652   2.820   7.717 -0.8153  0.5229 -0.2451
  129OSM   C12F13918   3.720   2.891   7.913  1.1556  0.5423  0.0030
  129OSM   H12F13919   3.646   2.819   7.954 -0.0135  3.4195  3.5763
  129OSM   H12G13920   3.677   2.994   7.905  2.0018  1.0164  1.1269
  129OSM   C13F13921   3.842   2.894   8.002 -0.1386  0.2984  0.0702
  129OSM   H13F13922   3.921   2.953   7.950 -1.4085 -0.1361 -2.5347
  129OSM   H13G13923   3.885   2.798   8.036 -0.7562 -0.5047 -1.3209
  129OSM   C14F13924   3.815   2.976   8.137 -0.4186 -0.1217  0.9895
  129OSM   H14F13925   3.723   2.938   8.187 -0.8698 -1.1165 -0.5214
  129OSM   H14G13926   3.806   3.082   8.107 -1.6445  0.4052  3.0652
  129OSM   C15F13927   3.928   2.962   8.230  0.2125 -0.6026 -0.4945
  129OSM   H15F13928   4.018   3.003   8.179 -0.4836 -1.0911 -2.1810
  129OSM   H15G13929   3.951   2.856   8.254 -0.2702 -0.2248  1.8690
  129OSM   C16F13930   3.907   3.042   8.366 -0.4170  0.6223  0.3898
  129OSM   H16F13931   3.810   3.010   8.410 -1.5903  0.1610 -2.3713
  129OSM   H16G13932   3.917   3.152   8.361  3.6011  0.4417  1.0755
  129OSM   C17F13933   4.020   3.003   8.466  0.2527 -0.2065  0.0887
  129OSM   H17F13934   4.005   2.894   8.479  1.3675 -0.5494 -1.2125
  129OSM   H17G13935   3.998   3.052   8.563 -1.6291  1.0518 -0.8948
  129OSM   C18F13936   4.167   3.023   8.442  0.1298 -0.0208 -0.6327
  129OSM   H18F13937   4.179   3.127   8.406 -0.4644  0.5079  0.6073
  129OSM   H18G13938   4.199   2.960   8.356 -3.4042 -0.9481 -1.4343
  129OSM   H18H13939   4.214   3.022   8.543  1.9194  0.9673 -1.4260
  130OSM      N13940   5.996   6.139   6.252  0.0051  0.6987 -0.3037
  130OSM    C1513941   5.947   6.275   6.218 -0.4296  0.8635 -0.2939
  130OSM   H15A13942   5.993   6.301   6.124 -1.2038 -0.1992 -1.0005
  130OSM   H15B13943   5.987   6.351   6.283 -1.3105  1.0017  0.0964
  130OSM   H15C13944   5.839   6.281   6.226 -0.4297  2.0802 -1.0516
  130OSM    C1413945   5.942   6.114   6.386 -0.2887  0.7665 -0.4548
  130OSM   H14A13946   5.970   6.016   6.423 -1.1122  0.3399 -0.9438
  130OSM   H14B13947   5.835   6.128   6.390 -0.9198 -3.0346 -0.7912
  130OSM   H14C13948   5.984   6.180   6.461 -0.4664  0.2359  0.1152
  130OSM    C1313949   5.920   6.038   6.164  0.1515  0.0131 -0.2886
  130OSM   H13A13950   5.816   6.059   6.179  0.7219  1.1764  2.7896
  130OSM   H13B13951   5.949   5.936   6.185  0.1553  0.5253  2.6128
  130OSM   H13C13952   5.948   6.056   6.061  1.8288 -0.1393  0.0997
  130OSM    C1213953   6.139   6.113   6.237  0.5033 -0.1034  0.0423
  130OSM   H12A13954   6.154   6.007   6.243 -1.3060 -0.5795 -2.5074
  130OSM   H12B13955   6.202   6.154   6.315 -0.5535  0.5404  0.5740
  130OSM    C1113956   6.198   6.163   6.101  0.2978  0.0251  0.8711
  130OSM   H11A13957   6.139   6.128   6.013  0.2250  1.6967  0.2205
  130OSM   H11B13958   6.295   6.115   6.079  0.6629  0.9292  0.4819
  130OSM      P13959   6.318   6.385   6.149  0.3619 -0.5274 -0.0543
  130OSM    O1313960   6.442   6.338   6.091 -0.0996  0.4241  0.0800
  130OSM    O1413961   6.285   6.530   6.139  0.5821 -0.1308  0.3392
  130OSM    O1113962   6.326   6.332   6.300  0.1221 -0.0258 -0.4721
  130OSM    O1213963   6.205   6.305   6.083 -0.8412 -0.3100  0.5665
  130OSM    C1S13964   6.279   6.398   6.415 -0.2423 -0.2485 -0.0481
  130OSM    H1S13965   6.168   6.404   6.415 -0.1590  3.0146 -0.9976
  130OSM    H1T13966   6.317   6.502   6.415  0.9386 -0.6311  1.9381
  130OSM     NF13967   6.254   6.354   6.663  0.1363 -0.3292  0.4298
  130OSM    HNF13968   6.316   6.389   6.733  2.2238 -1.2921 -0.8282
  130OSM    C2S13969   6.325   6.316   6.542 -0.2177  0.1880 -1.3068
  130OSM    H2S13970   6.294   6.210   6.526 -0.7201  0.0113  0.6271
  130OSM    C3S13971   6.479   6.321   6.549  0.3817 -0.3022 -0.1859
  130OSM    H3S13972   6.509   6.427   6.565  0.0317 -0.3894  1.1907
  130OSM     O313973   6.548   6.268   6.435  0.2451  0.1583 -0.3260
  130OSM    HO313974   6.474   6.259   6.375 -0.9596  2.2390  0.7422
  130OSM    C4S13975   6.535   6.251   6.672  0.1669  0.5851  0.9311
  130OSM    H4S13976   6.505   6.146   6.686  1.8379  0.0789  1.0267
  130OSM    C5S13977   6.621   6.309   6.763  0.6367 -0.7639 -1.0926
  130OSM    H5S13978   6.657   6.411   6.744 -0.8158 -0.0288 -0.0514
  130OSM    C6S13979   6.676   6.233   6.881 -0.5265 -0.4137 -0.1467
  130OSM    H6S13980   6.786   6.231   6.864 -0.6060 -0.6471 -0.6444
  130OSM    H6T13981   6.636   6.130   6.885 -1.7177  0.0715  1.5293
  130OSM    C7S13982   6.652   6.293   7.024  0.1182  0.5578 -0.3176
  130OSM    H7S13983   6.543   6.311   7.023 -0.0560 -0.3518  0.4831
  130OSM    H7T13984   6.707   6.389   7.036  1.5276 -0.3119  0.5544
  130OSM    C8S13985   6.693   6.198   7.140 -0.3100 -0.1693 -0.2626
  130OSM    H8S13986   6.789   6.147   7.117 -0.8068 -0.6462 -1.3397
  130OSM    H8T13987   6.623   6.113   7.152 -0.1187 -0.2054  0.7322
  130OSM    C9S13988   6.701   6.282   7.267 -0.2789 -0.9440  0.0809
  130OSM    H9S13989   6.598   6.319   7.286 -0.8492 -1.6581 -1.5344
  130OSM    H9T13990   6.763   6.371   7.244 -1.3842 -0.0775  0.3466
  130OSM   C10S13991   6.770   6.209   7.386 -0.1615 -0.1525  0.4846
  130OSM   H10S13992   6.876   6.212   7.354 -0.7875  3.6349 -1.8151
  130OSM   H10T13993   6.734   6.104   7.377  1.2521 -0.5687 -0.7515
  130OSM   C11S13994   6.747   6.258   7.527 -0.4595 -0.2689 -0.9498
  130OSM   H11S13995   6.641   6.292   7.534 -0.2672  0.4735 -1.4334
  130OSM   H11T13996   6.797   6.357   7.531 -0.1531 -0.4710  0.5042
  130OSM   C12S13997   6.788   6.158   7.633  0.2665 -0.4099  0.1528
  130OSM   H12S13998   6.897   6.140   7.622  0.9927  2.9988  0.6562
  130OSM   H12T13999   6.735   6.061   7.626 -2.5198  0.8952  1.4551
  130OSM   C13S14000   6.774   6.215   7.771 -0.0714 -0.1748  0.4535
  130OSM   H13S14001   6.666   6.233   7.790  0.3064  0.1123  2.6023
  130OSM   H13T14002   6.838   6.306   7.782  0.6849 -0.5726 -0.5200
  130OSM   C14S14003   6.819   6.127   7.886 -1.0549 -0.1046  0.0238
  130OSM   H14S14004   6.930   6.129   7.882 -1.0519  0.1221  0.2126
  130OSM   H14T14005   6.766   6.029   7.891 -2.0746  0.3918 -0.5791
  130OSM   C15S14006   6.788   6.178   8.030 -0.7231 -0.2250  0.6613
  130OSM   H15S14007   6.677   6.186   8.038 -0.6271  1.5962  0.6786
  130OSM   H15T14008   6.836   6.276   8.049  0.5708 -0.2335 -2.0534
  130OSM   C16S14009   6.833   6.071   8.133 -0.6036  0.0940 -0.1135
  130OSM   H16S14010   6.937   6.042   8.108 -1.1028 -1.2210 -0.7207
  130OSM   H16T14011   6.771   5.979   8.125 -1.9052  0.8536  0.7857
  130OSM   C17S14012   6.827   6.116   8.280 -0.5413 -0.4968 -0.1391
  130OSM   H17S14013   6.874   6.216   8.274 -0.4456 -0.4615  1.0227
  130OSM   H17T14014   6.891   6.049   8.341  2.3908  1.7891 -0.4595
  130OSM   C18S14015   6.685   6.119   8.337  0.4970  0.6348 -0.0267
  130OSM   H18S14016   6.690   6.152   8.443 -1.6212 -0.9710  0.6326
  130OSM   H18T14017   6.644   6.017   8.323 -2.3875  1.7530 -0.4416
  130OSM   H18U14018   6.618   6.186   8.278  1.2839  0.9726 -0.5572
  130OSM    C1F14019   6.126   6.327   6.696 -0.1955  0.1400  0.5841
  130OSM     OF14020   6.067   6.234   6.638 -0.1242  0.0661  0.0027
  130OSM    C2F14021   6.056   6.405   6.811 -0.2316 -0.7001 -0.5712
  130OSM    H2F14022   5.957   6.441   6.776  0.3296  1.6068  0.0495
  130OSM    H2G14023   6.104   6.502   6.835  0.4848 -1.2072  0.1007
  130OSM    C3F14024   6.044   6.323   6.946 -0.1205  0.2523 -0.1739
  130OSM    H3F14025   6.149   6.298   6.972 -0.2312  0.7782  0.8242
  130OSM    H3G14026   5.994   6.224   6.933  1.8591 -1.1390  1.9960
  130OSM    C4F14027   5.959   6.390   7.062  0.0308 -0.6941  1.0075
  130OSM    H4F14028   5.881   6.463   7.031  0.3035 -0.6845  0.3195
  130OSM    H4G14029   6.026   6.454   7.125  0.3923 -0.1983  0.1386
  130OSM    C5F14030   5.901   6.288   7.162  0.1756 -0.1007  0.8157
  130OSM    H5F14031   5.981   6.224   7.205 -0.0607  0.0787  1.5322
  130OSM    H5G14032   5.830   6.225   7.104 -1.9632  1.6379  1.4024
  130OSM    C6F14033   5.820   6.355   7.274 -0.1737  0.6416 -0.1722
  130OSM    H6F14034   5.759   6.278   7.327  0.7493  0.7354  1.0911
  130OSM    H6G14035   5.757   6.438   7.237 -1.6691 -0.4951 -0.2672
  130OSM    C7F14036   5.913   6.419   7.372  0.0167 -0.1933 -0.3985
  130OSM    H7F14037   5.965   6.501   7.317 -1.1505  0.0691 -1.1459
  130OSM    H7G14038   5.982   6.338   7.405  0.2903 -0.0242 -0.5469
  130OSM    C8F14039   5.840   6.479   7.504 -1.2865  0.2675 -0.1951
  130OSM    H8F14040   5.757   6.547   7.474 -1.0890  0.8186  0.4936
  130OSM    H8G14041   5.920   6.538   7.553 -1.1391  0.5890 -0.8052
  130OSM    C9F14042   5.789   6.364   7.587 -0.2387 -0.7907  0.5420
  130OSM    H9F14043   5.686   6.340   7.555 -1.6026  1.5222  2.7802
  130OSM   C10F14044   5.847   6.292   7.680 -0.2102  0.3259 -0.1659
  130OSM   H10F14045   5.774   6.237   7.741 -1.2485 -1.4886 -2.8706
  130OSM   C11F14046   5.988   6.308   7.728 -0.1677 -0.1160  1.0303
  130OSM   H11F14047   6.045   6.391   7.679  1.1281 -0.1180  2.4754
  130OSM   H11G14048   6.049   6.218   7.706 -0.1509  0.3505 -1.0865
  130OSM   C12F14049   6.012   6.325   7.881  0.2139  0.3697  0.3481
  130OSM   H12F14050   5.968   6.422   7.913  1.0507  0.7362  0.4237
  130OSM   H12G14051   6.120   6.331   7.907 -0.2969 -2.1567  3.7318
  130OSM   C13F14052   5.961   6.211   7.978  0.1529  0.3099  0.3473
  130OSM   H13F14053   6.029   6.123   7.971 -0.6604 -0.7559  3.8404
  130OSM   H13G14054   5.852   6.193   7.967  0.2765 -0.9211  0.9226
  130OSM   C14F14055   5.963   6.247   8.123 -0.8203  0.2151 -0.6279
  130OSM   H14F14056   5.903   6.337   8.146 -1.1935 -0.2076  0.0926
  130OSM   H14G14057   6.067   6.276   8.149 -0.1333 -2.2138 -0.4115
  130OSM   C15F14058   5.910   6.130   8.205  0.2354 -0.7699  0.1999
  130OSM   H15F14059   5.996   6.060   8.213  0.0417 -1.4983 -2.8008
  130OSM   H15G14060   5.828   6.073   8.156 -0.1889  0.2697 -0.3126
  130OSM   C16F14061   5.867   6.180   8.342 -0.4727 -0.1501 -0.2056
  130OSM   H16F14062   5.785   6.252   8.326  1.9787  3.0090  0.3769
  130OSM   H16G14063   5.953   6.238   8.382 -0.0255 -0.6353 -0.4412
  130OSM   C17F14064   5.836   6.071   8.438  0.3017 -0.0264  0.0275
  130OSM   H17F14065   5.932   6.017   8.454  1.5691  1.0011 -3.2334
  130OSM   H17G14066   5.760   6.003   8.393 -0.9006  0.4840  1.2116
  130OSM   C18F14067   5.790   6.130   8.575 -0.3520 -0.4807 -0.5183
  130OSM   H18F14068   5.880   6.172   8.624 -0.7902  0.7417 -0.7253
  130OSM   H18G14069   5.752   6.047   8.637 -3.0701  0.0875 -1.2709
  130OSM   H18H14070   5.705   6.202   8.562  1.7034  2.1499 -0.2681
  131OSM      N14071   3.559   1.956   5.842 -0.3976 -0.8506  0.3480
  131OSM    C1514072   3.598   2.094   5.878 -0.2677  0.1231  0.2462
  131OSM   H15A14073   3.569   2.114   5.981 -0.0103  0.3401  0.2762
  131OSM   H15B14074   3.551   2.166   5.813  3.5697  0.8632 -1.9868
  131OSM   H15C14075   3.704   2.109   5.865 -0.3116  1.2463  1.0061
  131OSM    C1414076   3.407   1.951   5.840  0.5646 -0.1875  0.1288
  131OSM   H14A14077   3.373   2.023   5.766 -0.0967 -1.1872 -0.5722
  131OSM   H14B14078   3.373   1.985   5.936  0.0968  1.3984 -0.5572
  131OSM   H14C14079   3.370   1.856   5.805  2.5984 -0.5417 -1.2335
  131OSM    C1314080   3.613   1.917   5.713 -0.2574 -0.1088 -0.3781
  131OSM   H13A14081   3.591   1.816   5.681  0.8493  0.0234 -1.6251
  131OSM   H13B14082   3.721   1.915   5.715 -0.2476  0.7094  0.3416
  131OSM   H13C14083   3.586   1.992   5.640  0.5695  1.5324  0.9464
  131OSM    C1214084   3.605   1.869   5.956 -0.3356 -0.0751 -0.2730
  131OSM   H12A14085   3.711   1.850   5.958 -0.6538 -2.0196  1.5929
  131OSM   H12B14086   3.555   1.774   5.948 -1.5275  0.0798  3.2930
  131OSM    C1114087   3.569   1.916   6.107  0.0517 -0.4636  0.6083
  131OSM   H11A14088   3.646   1.992   6.130  1.4665 -1.0856 -1.7614
  131OSM   H11B14089   3.587   1.828   6.171  1.6877 -0.6686 -0.0999
  131OSM      P14090   3.399   2.104   6.197 -0.1744  0.3791 -0.0456
  131OSM    O1314091   3.418   2.222   6.108  0.1630 -0.3854  0.6432
  131OSM    O1414092   3.270   2.088   6.254  0.1750 -0.8692  0.0687
  131OSM    O1114093   3.511   2.111   6.300 -0.1208  0.5776 -0.2735
  131OSM    O1214094   3.432   1.969   6.123  0.3620  0.2064  0.0851
  131OSM    C1S14095   3.491   2.138   6.438  0.1449 -0.6147 -0.0303
  131OSM    H1S14096   3.382   2.144   6.462 -0.1533  0.7229 -1.5474
  131OSM    H1T14097   3.549   2.228   6.466  1.9901 -1.2783 -1.4857
  131OSM     NF14098   3.510   2.050   6.663 -0.6916 -0.2618  0.2734
  131OSM    HNF14099   3.561   2.119   6.715 -2.8909  0.1956  1.9366
  131OSM    C2S14100   3.549   2.022   6.526  0.0284 -0.1813  0.0479
  131OSM    H2S14101   3.512   1.920   6.498  0.8792 -0.6989  0.7566
  131OSM    C3S14102   3.704   2.016   6.502 -0.1722  0.2429 -0.2895
  131OSM    H3S14103   3.735   2.122   6.510 -1.1367  0.4416  1.3244
  131OSM     O314104   3.736   1.972   6.374  0.0623  0.4634  0.2798
  131OSM    HO314105   3.661   1.986   6.316  0.4589 -1.9132 -0.9186
  131OSM    C4S14106   3.772   1.925   6.601  0.2375  0.3931 -0.4545
  131OSM    H4S14107   3.726   1.825   6.607  0.5888  0.3353  2.2181
  131OSM    C5S14108   3.882   1.948   6.676  0.3184  0.2999  0.6981
  131OSM    H5S14109   3.948   2.035   6.664  0.4232  0.2951  1.1975
  131OSM    C6S14110   3.937   1.840   6.769  0.6617 -0.7380  0.0329
  131OSM    H6S14111   4.027   1.791   6.725  0.6151  1.4123 -2.6943
  131OSM    H6T14112   3.858   1.762   6.781  0.3930 -0.2776  1.4491
  131OSM    C7S14113   3.975   1.884   6.907  0.2995  0.1570  0.4785
  131OSM    H7S14114   3.883   1.934   6.944  0.6754  2.1052 -1.0030
  131OSM    H7T14115   4.055   1.961   6.908  0.2039  0.2520  1.0253
  131OSM    C8S14116   4.017   1.760   6.996  0.2073 -0.7025  0.2426
  131OSM    H8S14117   4.106   1.711   6.950  1.6225  1.3298  0.6982
  131OSM    H8T14118   3.939   1.682   6.990 -0.9495  0.5229 -1.7331
  131OSM    C9S14119   4.056   1.803   7.134 -0.1305 -0.4434 -0.4135
  131OSM    H9S14120   3.984   1.880   7.169 -1.0707 -1.9352  1.0951
  131OSM    H9T14121   4.162   1.835   7.124 -0.0586 -1.1722 -2.2548
  131OSM   C10S14122   4.043   1.692   7.234  0.2956 -0.6872 -0.1285
  131OSM   H10S14123   4.106   1.604   7.208  1.2923  0.1626 -0.6568
  131OSM   H10T14124   3.938   1.656   7.234  0.3927 -1.0220 -1.8261
  131OSM   C11S14125   4.097   1.727   7.376  0.2093 -0.3172  0.5796
  131OSM   H11S14126   4.062   1.832   7.389 -1.4465 -0.9954  2.2293
  131OSM   H11T14127   4.207   1.722   7.384  0.5090  1.8672 -1.2402
  131OSM   C12S14128   4.032   1.648   7.487  0.1077  0.1697  0.1720
  131OSM   H12S14129   4.064   1.542   7.493 -0.1802  0.1121  0.8145
  131OSM   H12T14130   3.922   1.641   7.473 -0.0475  1.8562  0.3594
  131OSM   C13S14131   4.059   1.709   7.621 -0.0637  0.4850 -0.3801
  131OSM   H13S14132   4.002   1.804   7.630  1.7245  1.6058 -0.2819
  131OSM   H13T14133   4.167   1.737   7.624  0.2428 -0.5035 -1.4172
  131OSM   C14S14134   4.038   1.615   7.744  0.6004 -0.1165  0.5671
  131OSM   H14S14135   4.082   1.517   7.717 -1.0181 -0.6148 -0.4150
  131OSM   H14T14136   3.928   1.605   7.751  0.4246  1.5329  0.6314
  131OSM   C15S14137   4.080   1.679   7.876  0.0735  0.4198 -0.2679
  131OSM   H15S14138   4.033   1.777   7.899 -1.0410 -0.2475  0.3879
  131OSM   H15T14139   4.189   1.703   7.871  0.4840 -1.1069  0.6202
  131OSM   C16S14140   4.063   1.586   7.994 -0.3273  0.3029  0.3051
  131OSM   H16S14141   4.139   1.506   7.990  0.5828  1.2114 -1.0787
  131OSM   H16T14142   3.960   1.547   7.980 -0.2761 -0.2687  1.3904
  131OSM   C17S14143   4.072   1.660   8.132 -0.8861  0.4643  0.3564
  131OSM   H17S14144   4.171   1.712   8.128 -1.3964  1.4616  0.3979
  131OSM   H17T14145   4.100   1.578   8.202  0.8656  2.0563  1.6517
  131OSM   C18S14146   3.953   1.737   8.177 -0.0532  0.1085  0.4475
  131OSM   H18S14147   3.863   1.674   8.194 -1.2019  1.2172 -1.2306
  131OSM   H18T14148   3.930   1.800   8.089  1.1724  2.6629  1.8743
  131OSM   H18U14149   3.977   1.797   8.267  3.8457 -2.2982  1.2247
  131OSM    C1F14150   3.385   2.029   6.711 -0.5842  0.4522 -0.4964
  131OSM     OF14151   3.292   2.006   6.638  0.0852  0.7520 -0.4737
  131OSM    C2F14152   3.368   2.034   6.858  0.3559  0.5332  0.1911
  131OSM    H2F14153   3.394   2.133   6.899  0.2104  0.6437  0.0167
  131OSM    H2G14154   3.434   1.962   6.911  2.7336  1.4971 -1.2937
  131OSM    C3F14155   3.222   2.003   6.911 -0.2964  1.2423 -0.0956
  131OSM    H3F14156   3.180   1.916   6.857 -0.0556 -0.8338  2.8255
  131OSM    H3G14157   3.153   2.086   6.884 -3.4464 -0.9931  0.5646
  131OSM    C4F14158   3.201   1.959   7.053  0.4111 -0.0532 -0.2229
  131OSM    H4F14159   3.224   1.852   7.066  1.8769  0.4669  2.0615
  131OSM    H4G14160   3.098   1.979   7.090  0.8641 -1.5845  2.0727
  131OSM    C5F14161   3.278   2.052   7.144  0.2435 -0.5095  0.2949
  131OSM    H5F14162   3.234   2.154   7.148 -0.7817 -0.9548  0.5392
  131OSM    H5G14163   3.385   2.061   7.115  0.3579 -2.5281 -0.0445
  131OSM    C6F14164   3.279   1.992   7.290 -0.4339  0.9156 -0.3805
  131OSM    H6F14165   3.361   2.037   7.349 -1.4000 -0.1148  1.8770
  131OSM    H6G14166   3.312   1.886   7.285  0.5002  1.2450 -2.2790
  131OSM    C7F14167   3.156   2.027   7.377 -0.5867  0.1365  1.2190
  131OSM    H7F14168   3.062   1.977   7.347  0.4864 -2.7467  2.3300
  131OSM    H7G14169   3.135   2.132   7.348 -1.8019 -0.0707  1.3164
  131OSM    C8F14170   3.168   2.031   7.531  0.2775 -0.2076  0.4566
  131OSM    H8F14171   3.261   2.085   7.561  1.8218 -1.5085 -1.7334
  131OSM    H8G14172   3.181   1.931   7.577 -0.1662 -0.4562  0.0405
  131OSM    C9F14173   3.049   2.085   7.600 -0.2185 -0.5364  0.7399
  131OSM    H9F14174   2.965   2.089   7.528  0.7003  0.0390 -0.3228
  131OSM   C10F14175   3.045   2.128   7.728  0.5189  0.1776 -0.7724
  131OSM   H10F14176   2.946   2.155   7.769  0.4217  0.3417 -1.1098
  131OSM   C11F14177   3.158   2.121   7.826  0.2301  0.6946  0.2432
  131OSM   H11F14178   3.255   2.108   7.773 -0.1079 -2.4271  0.2267
  131OSM   H11G14179   3.140   2.033   7.891  2.0401 -1.2839 -1.7321
  131OSM   C12F14180   3.180   2.243   7.913  0.1390  0.0841 -0.4633
  131OSM   H12F14181   3.084   2.279   7.956  1.0936 -0.4132  2.2845
  131OSM   H12G14182   3.232   2.326   7.860  0.1621  0.7938  0.6313
  131OSM   C13F14183   3.268   2.209   8.034  0.3247 -0.2028  0.0398
  131OSM   H13F14184   3.371   2.182   8.001  0.7801  2.2201 -0.7310
  131OSM   H13G14185   3.223   2.125   8.090 -2.0137  0.4656 -0.7216
  131OSM   C14F14186   3.272   2.315   8.145  0.4463 -0.1171 -0.1306
  131OSM   H14F14187   3.301   2.413   8.101  1.8904 -0.4415  0.0420
  131OSM   H14G14188   3.354   2.275   8.209 -0.7638 -3.8826 -0.6579
  131OSM   C15F14189   3.145   2.315   8.240  0.2490  0.0158  0.3047
  131OSM   H15F14190   3.142   2.215   8.288 -2.3981 -0.1000  0.0345
  131OSM   H15G14191   3.056   2.320   8.175  0.2589  0.1120  0.2990
  131OSM   C16F14192   3.140   2.427   8.347  0.6715 -0.2158 -0.3500
  131OSM   H16F14193   3.055   2.411   8.417  1.0532 -1.7805 -0.1988
  131OSM   H16G14194   3.131   2.527   8.300 -0.6428 -0.0390  0.2327
  131OSM   C17F14195   3.267   2.432   8.422 -0.7640 -1.1054  0.2912
  131OSM   H17F14196   3.262   2.511   8.499  0.2024 -0.0393 -0.7091
  131OSM   H17G14197   3.346   2.466   8.351 -1.8205 -1.5687 -1.1716
  131OSM   C18F14198   3.312   2.307   8.498  0.2476 -0.1526 -0.5446
  131OSM   H18F14199   3.308   2.211   8.441 -2.0762  0.3769 -1.3897
  131OSM   H18G14200   3.238   2.301   8.580 -0.1555  1.9626 -0.7027
  131OSM   H18H14201   3.417   2.325   8.528  0.3945  1.0429 -1.6872
  132OSM      N14202   6.010   3.447   6.231  0.4165 -0.5869 -0.2725
  132OSM    C1514203   5.936   3.544   6.141 -0.2415  0.2689  0.7500
  132OSM   H15A14204   5.885   3.483   6.068  0.2090 -0.4756  1.0494
  132OSM   H15B14205   6.007   3.614   6.101  1.8477 -1.3669  1.3946
  132OSM   H15C14206   5.863   3.600   6.198  0.8799  0.4585  2.0484
  132OSM    C1414207   6.066   3.329   6.152  0.7793 -0.6677  1.0565
  132OSM   H14A14208   5.991   3.282   6.091  1.2040  0.4970 -0.4310
  132OSM   H14B14209   6.120   3.255   6.209  2.4061 -0.8780 -0.6751
  132OSM   H14C14210   6.140   3.365   6.082 -1.9605  0.6102 -1.3844
  132OSM    C1314211   6.123   3.518   6.296 -0.6326 -0.0170  0.3070
  132OSM   H13A14212   6.085   3.595   6.362 -2.1684  0.1880 -0.7582
  132OSM   H13B14213   6.191   3.554   6.221 -0.7338 -0.7737 -0.1515
  132OSM   H13C14214   6.172   3.449   6.363 -0.0204 -0.0101 -0.1280
  132OSM    C1214215   5.921   3.388   6.344 -0.1361 -0.5533  0.2609
  132OSM   H12A14216   5.972   3.305   6.391  0.9938 -1.2943 -2.1246
  132OSM   H12B14217   5.834   3.339   6.303 -0.2088 -0.0809 -0.1709
  132OSM    C1114218   5.865   3.493   6.443  0.5659  0.3795  0.0873
  132OSM   H11A14219   5.941   3.564   6.483  1.3874 -1.3538  1.7533
  132OSM   H11B14220   5.834   3.433   6.531  1.2684  0.6645  0.5405
  132OSM      P14221   5.611   3.539   6.401 -0.2385 -0.2985 -0.4560
  132OSM    O1314222   5.545   3.652   6.332  0.3065 -0.2449 -0.1542
  132OSM    O1414223   5.582   3.406   6.342 -0.2935  0.3720 -0.1422
  132OSM    O1114224   5.594   3.537   6.557  0.3932  0.5587  0.4464
  132OSM    O1214225   5.763   3.569   6.389  0.0386 -0.5973  0.3915
  132OSM    C1S14226   5.645   3.633   6.649  0.5853  0.6135 -0.6183
  132OSM    H1S14227   5.673   3.728   6.597  3.1067 -0.1115 -0.7233
  132OSM    H1T14228   5.750   3.601   6.667  0.9343  0.9088 -1.9924
  132OSM     NF14229   5.544   3.801   6.820 -0.2943  0.0085 -0.3175
  132OSM    HNF14230   5.595   3.815   6.905  0.1660 -2.6043 -0.0592
  132OSM    C2S14231   5.542   3.660   6.767 -0.2225  0.0758 -0.1277
  132OSM    H2S14232   5.443   3.645   6.717  0.4255 -0.7777 -1.2040
  132OSM    C3S14233   5.570   3.545   6.871  0.2145  0.3909 -0.6037
  132OSM    H3S14234   5.672   3.563   6.911 -0.1770  1.3067  0.0411
  132OSM     O314235   5.560   3.416   6.817 -0.0210 -0.2752 -0.0529
  132OSM    HO314236   5.564   3.436   6.723  0.6790 -2.8914 -0.6720
  132OSM    C4S14237   5.477   3.560   6.988  0.3822 -0.0031  0.2812
  132OSM    H4S14238   5.515   3.620   7.072 -2.0782  1.8624  0.1954
  132OSM    C5S14239   5.345   3.514   6.995  0.0338 -0.3007 -0.1873
  132OSM    H5S14240   5.300   3.468   6.905 -0.8198 -2.7685  1.3906
  132OSM    C6S14241   5.252   3.536   7.116  0.3188  0.0499  0.5134
  132OSM    H6S14242   5.292   3.486   7.206  1.5128 -2.1931 -1.1656
  132OSM    H6T14243   5.148   3.501   7.098  0.3351 -1.4743  3.0133
  132OSM    C7S14244   5.234   3.685   7.146  0.2408  0.8993  0.7685
  132OSM    H7S14245   5.216   3.739   7.050  0.8772  1.3517  0.8975
  132OSM    H7T14246   5.329   3.724   7.189  0.5809  0.1573  0.7035
  132OSM    C8S14247   5.127   3.731   7.240 -0.4332 -0.3349 -0.2847
  132OSM    H8S14248   5.024   3.716   7.200  0.2517 -1.3500 -1.7671
  132OSM    H8T14249   5.146   3.836   7.272  0.4926 -0.4657 -0.3827
  132OSM    C9S14250   5.129   3.658   7.378  0.7701  0.2988  0.3260
  132OSM    H9S14251   5.233   3.663   7.416  0.8384 -0.0263  0.1885
  132OSM    H9T14252   5.101   3.551   7.366 -0.8313  0.6332  0.8468
  132OSM   C10S14253   5.037   3.720   7.484 -0.6731  0.1713 -0.0515
  132OSM   H10S14254   4.932   3.735   7.453 -1.7758 -1.7788  2.3900
  132OSM   H10T14255   5.069   3.826   7.491 -0.5919  0.2568 -1.5472
  132OSM   C11S14256   5.041   3.636   7.610  0.6819  0.1927  0.2384
  132OSM   H11S14257   4.990   3.540   7.585 -1.5294  1.2617  0.3710
  132OSM   H11T14258   4.992   3.685   7.697  0.7893 -0.1601  0.4990
  132OSM   C12S14259   5.168   3.577   7.667 -0.8556  0.3577 -0.3727
  132OSM   H12S14260   5.238   3.658   7.696 -0.2384 -0.5060  0.6294
  132OSM   H12T14261   5.219   3.516   7.589 -1.5950  0.5563 -1.0230
  132OSM   C13S14262   5.154   3.461   7.766  0.2459 -0.4039 -0.5832
  132OSM   H13S14263   5.250   3.406   7.781  0.4019 -0.4411 -1.6521
  132OSM   H13T14264   5.082   3.390   7.720 -0.3649 -0.6325  0.6718
  132OSM   C14S14265   5.115   3.511   7.904 -0.2296 -0.1923  0.2066
  132OSM   H14S14266   5.004   3.507   7.910 -0.3522  1.7467 -0.1338
  132OSM   H14T14267   5.145   3.618   7.913 -0.0307 -0.3706  2.0359
  132OSM   C15S14268   5.176   3.434   8.012  0.3320 -0.2815 -1.2783
  132OSM   H15S14269   5.287   3.437   8.008  0.4592 -0.6317  0.6939
  132OSM   H15T14270   5.145   3.328   8.004 -1.2621  0.2786 -4.5198
  132OSM   C16S14271   5.132   3.485   8.149  0.3075  0.3106  0.3922
  132OSM   H16S14272   5.025   3.465   8.170  0.5727 -1.1786  0.4536
  132OSM   H16T14273   5.146   3.595   8.161 -0.2414  0.3567  0.6153
  132OSM   C17S14274   5.208   3.418   8.264  0.4052  0.3180 -0.7056
  132OSM   H17S14275   5.305   3.380   8.223  0.6791 -3.0843  2.5398
  132OSM   H17T14276   5.143   3.334   8.296  0.1646 -0.5655 -3.3117
  132OSM   C18S14277   5.236   3.508   8.375 -0.4375 -0.3391  0.3954
  132OSM   H18S14278   5.148   3.547   8.431  2.2761  2.2343  3.2463
  132OSM   H18T14279   5.281   3.607   8.352 -0.3908 -0.1988  1.0664
  132OSM   H18U14280   5.299   3.464   8.455  0.5646  0.3075 -0.0089
  132OSM    C1F14281   5.495   3.909   6.752  0.0116 -0.5239  0.4591
  132OSM     OF14282   5.423   3.887   6.651 -0.9713  0.2780 -0.3591
  132OSM    C2F14283   5.534   4.045   6.809 -0.7819 -0.5720 -0.4979
  132OSM    H2F14284   5.565   4.096   6.716 -1.2071 -0.1103 -0.3898
  132OSM    H2G14285   5.621   4.025   6.876 -2.1724  0.1600  1.6132
  132OSM    C3F14286   5.413   4.120   6.876  0.0646 -0.3942 -0.3500
  132OSM    H3F14287   5.338   4.162   6.806 -2.0240 -2.1244  0.7176
  132OSM    H3G14288   5.462   4.204   6.931 -2.5343  0.4369  0.8863
  132OSM    C4F14289   5.340   4.032   6.985  0.4065 -0.2506  0.0042
  132OSM    H4F14290   5.423   3.977   7.033 -0.2313  0.2190  1.7230
  132OSM    H4G14291   5.276   3.965   6.923 -0.3115 -1.5888  2.1001
  132OSM    C5F14292   5.255   4.113   7.087  0.2891 -0.4502  0.3350
  132OSM    H5F14293   5.191   4.038   7.138  0.8657  0.1976  2.0693
  132OSM    H5G14294   5.204   4.182   7.016  1.7554  0.2560 -0.0693
  132OSM    C6F14295   5.347   4.181   7.189  0.0363  0.6768 -0.5156
  132OSM    H6F14296   5.402   4.262   7.136 -1.0756  0.8432 -1.4514
  132OSM    H6G14297   5.433   4.118   7.220 -0.0074 -0.5151 -2.5874
  132OSM    C7F14298   5.280   4.231   7.311 -0.2182 -0.4750 -0.1931
  132OSM    H7F14299   5.192   4.167   7.334 -1.0728  0.6750 -0.1606
  132OSM    H7G14300   5.238   4.331   7.286 -0.3958 -0.3334  0.6498
  132OSM    C8F14301   5.367   4.253   7.442  0.2986 -0.3674  0.6781
  132OSM    H8F14302   5.316   4.325   7.509  1.6760  0.5568  0.7873
  132OSM    H8G14303   5.464   4.301   7.417  0.1777  0.2229  1.3156
  132OSM    C9F14304   5.377   4.129   7.527  0.2469  0.3809  0.0398
  132OSM    H9F14305   5.294   4.057   7.519  1.9589 -1.7388  0.5870
  132OSM   C10F14306   5.475   4.099   7.610 -0.1365 -0.2189 -0.0289
  132OSM   H10F14307   5.457   4.022   7.687 -0.0843 -1.0540 -0.8397
  132OSM   C11F14308   5.594   4.184   7.639  1.1163 -0.4297  0.2007
  132OSM   H11F14309   5.618   4.234   7.543  0.1001 -1.2776 -0.5263
  132OSM   H11G14310   5.687   4.126   7.656  1.6023  0.6053  1.2452
  132OSM   C12F14311   5.572   4.285   7.756  0.1831  0.1464  0.2463
  132OSM   H12F14312   5.482   4.350   7.748 -0.5128 -0.4039  2.6410
  132OSM   H12G14313   5.663   4.347   7.747  1.2630 -1.2539  1.1197
  132OSM   C13F14314   5.598   4.230   7.893 -0.7309  0.5034  0.1254
  132OSM   H13F14315   5.689   4.166   7.895  0.1490  1.6863  3.1449
  132OSM   H13G14316   5.515   4.159   7.914 -0.1739  0.3586  2.0741
  132OSM   C14F14317   5.605   4.337   8.003  0.1935  0.1112 -0.5267
  132OSM   H14F14318   5.512   4.397   8.009  0.4383  0.3589  1.4976
  132OSM   H14G14319   5.684   4.404   7.964 -0.0518 -0.5483 -2.2731
  132OSM   C15F14320   5.658   4.295   8.136 -0.5173 -0.2425 -0.1269
  132OSM   H15F14321   5.644   4.387   8.196  2.0028  0.7702 -0.9400
  132OSM   H15G14322   5.768   4.280   8.127 -0.5609 -0.0317 -1.2249
  132OSM   C16F14323   5.587   4.174   8.200 -0.2607  0.6784 -0.0454
  132OSM   H16F14324   5.601   4.081   8.142  0.4603  1.3755 -1.0292
  132OSM   H16G14325   5.479   4.196   8.207 -0.3625  0.1594  0.0472
  132OSM   C17F14326   5.640   4.173   8.351  0.1915 -0.2898 -0.7738
  132OSM   H17F14327   5.617   4.273   8.393 -1.1766 -0.3764 -1.2572
  132OSM   H17G14328   5.750   4.161   8.343 -0.0245 -3.0247 -0.5582
  132OSM   C18F14329   5.564   4.062   8.422 -0.0170  0.0936 -0.1473
  132OSM   H18F14330   5.456   4.050   8.400 -0.0024 -3.0978  0.9245
  132OSM   H18G14331   5.563   4.069   8.533 -1.6824 -1.9256  0.0143
  132OSM   H18H14332   5.603   3.960   8.400 -0.5868 -0.1945  0.1515
  133OSM      N14333   0.096   3.432   6.545 -0.6571 -0.2690 -0.2614
  133OSM    C1514334   0.203   3.514   6.481  0.3571  0.6648  0.8502
  133OSM   H15A14335   0.246   3.595   6.537 -1.7803  3.2669 -0.9843
  133OSM   H15B14336   0.155   3.563   6.397  1.6096 -0.5462 -0.6295
  133OSM   H15C14337   0.276   3.453   6.430 -1.2188 -1.1551  0.6510
  133OSM    C1414338   0.161   3.326   6.626  0.0339 -0.6185 -0.7898
  133OSM   H14A14339   0.195   3.242   6.569  0.1142 -0.0018 -1.6676
  133OSM   H14B14340   0.086   3.287   6.693 -0.4820 -0.3385 -1.1908
  133OSM   H14C14341   0.246   3.366   6.681 -1.4049  3.1070 -0.9676
  133OSM    C1314342   0.044   3.537   6.639  0.4278  0.0693 -0.2033
  133OSM   H13A14343   0.009   3.623   6.584 -0.3580 -1.3990 -2.1087
  133OSM   H13B14344   0.115   3.586   6.704  0.7774  1.5117 -1.6134
  133OSM   H13C14345  -0.028   3.494   6.706 -0.7006 -0.1180 -1.4815
  133OSM    C1214346  -0.003   3.388   6.447 -0.7974  0.5123 -0.2253
  133OSM   H12A14347   0.046   3.330   6.371 -0.7684 -0.0968  0.2434
  133OSM   H12B14348  -0.049   3.475   6.403 -1.1460  0.1016 -0.6796
  133OSM    C1114349  -0.113   3.294   6.501  1.0531 -0.1247 -0.0730
  133OSM   H11A14350  -0.191   3.288   6.421  1.2426 -2.3535 -0.1678
  133OSM   H11B14351  -0.152   3.348   6.590  0.6125  0.6483 -0.7177
  133OSM      P14352  -0.064   3.046   6.433 -0.5865 -0.0264  0.1879
  133OSM    O1314353  -0.053   3.098   6.297  0.1131  0.6038 -0.0402
  133OSM    O1414354   0.051   2.962   6.470 -0.0586 -0.1865 -0.3002
  133OSM    O1114355  -0.201   2.976   6.449  0.3697  0.3910 -0.0259
  133OSM    O1214356  -0.077   3.160   6.533  0.0610 -0.0962 -0.0818
  133OSM    C1S14357  -0.239   2.916   6.568 -0.1975 -0.2763 -0.0152
  133OSM    H1S14358  -0.150   2.889   6.628 -0.1191 -1.5497 -0.6480
  133OSM    H1T14359  -0.271   2.814   6.537 -1.0032 -0.3600  1.0530
  133OSM     NF14360  -0.410   2.907   6.741  0.3626 -0.5511 -0.3041
  133OSM    HNF14361  -0.476   2.835   6.720  1.0367 -0.9919 -0.9219
  133OSM    C2S14362  -0.362   2.989   6.630 -0.4845  0.3937  0.7373
  133OSM    H2S14363  -0.319   3.081   6.674 -0.0837 -0.3229  1.8786
  133OSM    C3S14364  -0.466   3.024   6.514 -0.1056 -0.5891  0.4238
  133OSM    H3S14365  -0.507   2.930   6.472  1.4747 -0.5057 -1.4504
  133OSM     O314366  -0.418   3.104   6.402  0.7886 -0.2158  0.3773
  133OSM    HO314367  -0.326   3.076   6.407  0.4793 -1.1031  1.5564
  133OSM    C4S14368  -0.571   3.100   6.585 -0.0293  0.4868  0.9385
  133OSM    H4S14369  -0.662   3.038   6.591 -0.2533  0.7722  0.5329
  133OSM    C5S14370  -0.573   3.231   6.620  0.7449  0.2906  0.0401
  133OSM    H5S14371  -0.486   3.297   6.608 -1.8856  3.9317 -0.8669
  133OSM    C6S14372  -0.693   3.289   6.692  0.7287  0.4933 -0.2702
  133OSM    H6S14373  -0.784   3.230   6.668 -0.2040  1.0684  1.6428
  133OSM    H6T14374  -0.713   3.389   6.650 -1.4277  0.6795  1.0911
  133OSM    C7S14375  -0.680   3.275   6.849 -0.3606 -0.1497  0.5221
  133OSM    H7S14376  -0.605   3.353   6.877 -0.6752  0.2443  0.2785
  133OSM    H7T14377  -0.630   3.180   6.878  0.3659 -1.1099 -3.3000
  133OSM    C8S14378  -0.812   3.284   6.925  0.2585  0.4745 -0.3307
  133OSM    H8S14379  -0.874   3.199   6.888 -0.3800  0.7826  0.0177
  133OSM    H8T14380  -0.856   3.379   6.888  1.3035  0.6424 -1.1947
  133OSM    C9S14381  -0.796   3.282   7.078  0.0435 -0.0672 -0.2882
  133OSM    H9S14382  -0.716   3.352   7.108  0.3179  0.1554 -1.4698
  133OSM    H9T14383  -0.764   3.184   7.119 -3.1561 -1.6804 -1.3313
  133OSM   C10S14384  -0.932   3.301   7.146  0.2221 -0.0389  0.0204
  133OSM   H10S14385  -1.022   3.254   7.103 -0.7745  1.1483  0.7463
  133OSM   H10T14386  -0.956   3.409   7.138 -1.5944 -0.2452  1.8542
  133OSM   C11S14387  -0.925   3.263   7.300 -0.2711 -0.3601  0.7793
  133OSM   H11S14388  -0.837   3.321   7.336 -0.5434  0.2007  0.5573
  133OSM   H11T14389  -0.906   3.154   7.308 -1.1093 -0.5545  0.2639
  133OSM   C12S14390  -1.052   3.306   7.373  0.4701 -0.8252 -0.4707
  133OSM   H12S14391  -1.140   3.243   7.348 -2.0735  2.7195 -1.3105
  133OSM   H12T14392  -1.082   3.404   7.330  1.0733  0.6429  2.2012
  133OSM   C13S14393  -1.022   3.322   7.520  0.4917  0.8998 -0.0738
  133OSM   H13S14394  -0.959   3.413   7.525 -1.3319  2.2985 -1.5494
  133OSM   H13T14395  -0.963   3.241   7.569 -0.2643  0.0547 -0.5350
  133OSM   C14S14396  -1.153   3.351   7.599  0.5610 -0.1932  0.6130
  133OSM   H14S14397  -1.213   3.259   7.586 -0.3523  0.3622  0.8467
  133OSM   H14T14398  -1.198   3.433   7.538 -0.6161 -2.8607 -2.4080
  133OSM   C15S14399  -1.133   3.370   7.749  0.5396 -0.5195  0.3407
  133OSM   H15S14400  -1.225   3.402   7.803  1.4684  0.6545  1.3063
  133OSM   H15T14401  -1.077   3.465   7.762  0.0506 -0.1907  0.0754
  133OSM   C16S14402  -1.067   3.249   7.811 -0.5120  0.2143 -0.3831
  133OSM   H16S14403  -0.965   3.234   7.770 -0.5625  1.9023 -1.2357
  133OSM   H16T14404  -1.129   3.161   7.784  1.0270 -0.8321 -0.6376
  133OSM   C17S14405  -1.059   3.268   7.963  0.4394 -0.1643  0.2513
  133OSM   H17S14406  -1.167   3.269   7.988  0.0695 -1.4744 -1.2023
  133OSM   H17T14407  -1.016   3.369   7.984  1.1903 -0.0977 -1.4092
  133OSM   C18S14408  -0.993   3.149   8.041 -0.1877 -0.5716 -0.3587
  133OSM   H18S14409  -1.039   3.050   8.020 -2.3546  0.2855  0.1095
  133OSM   H18T14410  -0.998   3.184   8.146 -0.0870  1.3995 -0.9582
  133OSM   H18U14411  -0.888   3.147   8.005  0.0453 -1.8899  0.3564
  133OSM    C1F14412  -0.348   2.906   6.863 -0.2981  0.8464 -0.0218
  133OSM     OF14413  -0.246   2.970   6.883  0.8966  0.0208 -0.0254
  133OSM    C2F14414  -0.393   2.803   6.960  0.9506 -0.2653 -0.8827
  133OSM    H2F14415  -0.322   2.719   6.968 -0.0802 -1.3159 -2.1679
  133OSM    H2G14416  -0.487   2.754   6.925 -0.1637  0.9197  0.3284
  133OSM    C3F14417  -0.405   2.865   7.103  0.6254  0.7391 -0.2732
  133OSM    H3F14418  -0.305   2.898   7.138  0.5223  1.2172 -0.4285
  133OSM    H3G14419  -0.426   2.775   7.166 -0.8234  2.0636  1.2445
  133OSM    C4F14420  -0.518   2.970   7.117 -0.5515  0.2479  0.0998
  133OSM    H4F14421  -0.506   3.068   7.066  1.8951 -0.7081 -1.3510
  133OSM    H4G14422  -0.523   2.999   7.224 -4.3439 -1.0340  0.4084
  133OSM    C5F14423  -0.656   2.910   7.092 -0.2085 -0.0929  0.6447
  133OSM    H5F14424  -0.673   2.882   6.985 -1.8019 -1.2570  1.1706
  133OSM    H5G14425  -0.740   2.983   7.098 -1.4546 -1.3637 -0.4604
  133OSM    C6F14426  -0.695   2.798   7.193  0.5995 -0.1249  0.3697
  133OSM    H6F14427  -0.800   2.817   7.224  0.2152  0.5398 -1.2791
  133OSM    H6G14428  -0.638   2.798   7.289 -2.5458 -0.2227  2.3968
  133OSM    C7F14429  -0.698   2.660   7.124 -0.1038 -0.2978 -0.2522
  133OSM    H7F14430  -0.602   2.649   7.069  0.5579  0.4807  0.6983
  133OSM    H7G14431  -0.781   2.655   7.051  1.4165 -0.2563 -2.0926
  133OSM    C8F14432  -0.691   2.542   7.213  0.3699 -0.6405 -0.2740
  133OSM    H8F14433  -0.623   2.547   7.300  1.1157 -0.7774 -0.8402
  133OSM    H8G14434  -0.653   2.454   7.156  0.0255 -1.3555  0.5841
  133OSM    C9F14435  -0.833   2.522   7.261  0.2777  0.0872 -0.0293
  133OSM    H9F14436  -0.862   2.605   7.327  2.2017  3.0573 -2.6190
  133OSM   C10F14437  -0.910   2.417   7.242  0.4868 -0.2111 -0.5467
  133OSM   H10F14438  -1.016   2.425   7.269  0.4057  0.2843 -0.9830
  133OSM   C11F14439  -0.876   2.288   7.176  0.1253  0.3302  0.9432
  133OSM   H11F14440  -0.765   2.284   7.182  0.0889 -0.2629  1.2051
  133OSM   H11G14441  -0.890   2.300   7.067 -2.6731 -0.0733  1.1926
  133OSM   C12F14442  -0.927   2.155   7.240  0.9136 -0.3749  0.2482
  133OSM   H12F14443  -0.886   2.067   7.186  0.6872 -0.9648  1.0265
  133OSM   H12G14444  -1.038   2.155   7.233  0.8543 -1.4160  1.0398
  133OSM   C13F14445  -0.884   2.147   7.379 -0.1519 -0.5726  0.3698
  133OSM   H13F14446  -0.936   2.228   7.435  0.3919 -0.1043  0.2036
  133OSM   H13G14447  -0.777   2.172   7.394 -0.4682 -0.0519  1.9860
  133OSM   C14F14448  -0.926   2.010   7.450  0.1938 -0.5600 -0.0020
  133OSM   H14F14449  -0.896   1.929   7.380  0.5805  1.2858 -2.0654
  133OSM   H14G14450  -1.037   2.008   7.458 -0.1535  1.1444 -2.9761
  133OSM   C15F14451  -0.848   1.979   7.578 -0.5675 -0.9756  0.2223
  133OSM   H15F14452  -0.853   2.077   7.632 -0.1422 -0.2572 -0.9964
  133OSM   H15G14453  -0.741   1.956   7.562 -0.1732 -0.1694  1.5038
  133OSM   C16F14454  -0.905   1.877   7.667  1.4078  0.3450 -0.7371
  133OSM   H16F14455  -0.854   1.781   7.647  3.4133  0.6888  2.1022
  133OSM   H16G14456  -1.011   1.857   7.640  1.6773 -0.0067 -1.5482
  133OSM   C17F14457  -0.893   1.907   7.818  0.1793  0.2986  0.0646
  133OSM   H17F14458  -0.792   1.949   7.839  0.0218  0.7094 -0.0111
  133OSM   H17G14459  -0.892   1.808   7.870  2.2958 -0.5892 -1.5238
  133OSM   C18F14460  -1.000   2.010   7.875 -0.3422  0.2092 -0.5144
  133OSM   H18F14461  -0.983   2.105   7.819 -0.6313  0.1373 -0.7276
  133OSM   H18G14462  -0.995   2.014   7.986 -0.5961 -1.0667 -0.4410
  133OSM   H18H14463  -1.098   1.973   7.837  1.1530 -3.2384 -1.4155
  134OSM      N14464   0.298   0.577   6.663  0.5394  0.0660  0.4189
  134OSM    C1514465   0.334   0.635   6.527  0.2028  0.0735  0.2877
  134OSM   H15A14466   0.248   0.682   6.482  0.0450 -0.4907 -0.0096
  134OSM   H15B14467   0.370   0.560   6.457  1.4133 -0.4383  1.4101
  134OSM   H15C14468   0.407   0.715   6.523  0.6549 -0.2157  1.8782
  134OSM    C1414469   0.418   0.506   6.708 -0.2660 -0.3370  0.4518
  134OSM   H14A14470   0.483   0.473   6.629 -1.1158 -0.2779 -0.2851
  134OSM   H14B14471   0.385   0.417   6.759 -0.3345 -1.0198 -0.7470
  134OSM   H14C14472   0.486   0.567   6.767  0.8361  0.1439 -1.2372
  134OSM    C1314473   0.254   0.685   6.758 -0.0756  0.4289  0.1089
  134OSM   H13A14474   0.212   0.630   6.841 -0.4497  2.0825  1.0688
  134OSM   H13B14475   0.192   0.761   6.713  0.0395 -0.0952 -0.9579
  134OSM   H13C14476   0.337   0.742   6.799  0.5573 -0.5280  0.1851
  134OSM    C1214477   0.182   0.474   6.642 -0.0198 -0.0513 -0.2282
  134OSM   H12A14478   0.211   0.426   6.551 -0.0362 -2.1704  0.8342
  134OSM   H12B14479   0.086   0.522   6.630  0.4586  0.9120 -0.3714
  134OSM    C1114480   0.156   0.357   6.742 -0.1171 -0.2042 -0.3307
  134OSM   H11A14481   0.063   0.304   6.712  0.4256 -1.2738 -0.1881
  134OSM   H11B14482   0.132   0.390   6.845 -0.2866  2.2159 -1.0969
  134OSM      P14483   0.281   0.133   6.670  0.3102  0.0790  0.0046
  134OSM    O1314484   0.231   0.163   6.537  0.1725 -0.4638  0.4349
  134OSM    O1414485   0.420   0.086   6.679 -0.7495  0.1141  0.1681
  134OSM    O1114486   0.193   0.020   6.743  0.3291 -0.0660  0.7039
  134OSM    O1214487   0.265   0.266   6.756  0.7770  0.1601  0.7840
  134OSM    C1S14488   0.173   0.031   6.884  0.2910 -0.4223 -0.8021
  134OSM    H1S14489   0.087   0.093   6.918  0.6170 -1.4950  2.2540
  134OSM    H1T14490   0.260   0.071   6.940 -1.6434  1.0535  1.3048
  134OSM     NF14491   0.188  -0.089   7.097  0.0735  0.9490 -0.3592
  134OSM    HNF14492   0.283  -0.079   7.128 -0.3601 -0.2576  1.5755
  134OSM    C2S14493   0.170  -0.106   6.957 -0.4024  0.0730 -0.4542
  134OSM    H2S14494   0.071  -0.151   6.932 -0.2848  1.0047 -2.8700
  134OSM    C3S14495   0.273  -0.207   6.898 -0.0060  0.2369 -0.0741
  134OSM    H3S14496   0.374  -0.160   6.899  0.4178 -0.6155 -1.0723
  134OSM     O314497   0.245  -0.249   6.766  0.3898  0.7294  0.9587
  134OSM    HO314498   0.201  -0.171   6.729 -0.0743  0.6809  1.3961
  134OSM    C4S14499   0.288  -0.327   6.982  0.7012 -0.3321 -0.2419
  134OSM    H4S14500   0.195  -0.374   7.016  1.1377  0.7370  2.7681
  134OSM    C5S14501   0.393  -0.369   7.055 -0.1791  0.6854 -0.4304
  134OSM    H5S14502   0.476  -0.297   7.061 -1.3131  1.9485  0.3547
  134OSM    C6S14503   0.381  -0.470   7.169  0.1342  0.6974 -0.2476
  134OSM    H6S14504   0.451  -0.556   7.155  0.8995  1.3903 -0.7720
  134OSM    H6T14505   0.287  -0.528   7.172  1.3989 -1.4633  0.5800
  134OSM    C7S14506   0.409  -0.401   7.313 -0.6059 -0.4820  0.1096
  134OSM    H7S14507   0.323  -0.335   7.336 -0.1039  0.7875 -1.5035
  134OSM    H7T14508   0.497  -0.334   7.317  0.4453 -1.7466 -0.7170
  134OSM    C8S14509   0.425  -0.502   7.433 -1.0535  0.1729 -0.4826
  134OSM    H8S14510   0.511  -0.567   7.404 -0.4740  0.6562  0.1066
  134OSM    H8T14511   0.341  -0.565   7.468  1.4937 -2.6785  0.9588
  134OSM    C9S14512   0.486  -0.440   7.563  0.2270  0.2197  0.3211
  134OSM    H9S14513   0.426  -0.347   7.567 -1.9916 -1.1588  0.9727
  134OSM    H9T14514   0.595  -0.430   7.540  0.4787 -3.4360 -0.7791
  134OSM   C10S14515   0.481  -0.527   7.687  0.8073 -0.1121  0.5010
  134OSM   H10S14516   0.538  -0.622   7.682  0.9177  0.0073 -0.7766
  134OSM   H10T14517   0.375  -0.549   7.712  0.8122  0.7030  1.2816
  134OSM   C11S14518   0.521  -0.433   7.803 -0.0939  1.1211 -0.5000
  134OSM   H11S14519   0.454  -0.344   7.795 -1.2859  0.0848 -3.9075
  134OSM   H11T14520   0.626  -0.403   7.784  0.5693 -0.8349 -0.1167
  134OSM   C12S14521   0.488  -0.493   7.943  0.3830 -0.0261  0.2553
  134OSM   H12S14522   0.562  -0.575   7.958  0.1742  0.0406  1.8796
  134OSM   H12T14523   0.386  -0.538   7.942  0.3432  0.0608  0.3785
  134OSM   C13S14524   0.501  -0.384   8.057  0.1936 -0.3086  0.6436
  134OSM   H13S14525   0.435  -0.295   8.054 -0.3039 -0.5627  2.6887
  134OSM   H13T14526   0.610  -0.360   8.056  0.5155 -1.5517  2.0206
  134OSM   C14S14527   0.468  -0.453   8.191 -0.1313  0.4514 -0.0070
  134OSM   H14S14528   0.554  -0.512   8.231 -0.1508  0.0655 -0.5121
  134OSM   H14T14529   0.392  -0.531   8.171 -1.8454  2.3726 -1.3787
  134OSM   C15S14530   0.417  -0.349   8.298  0.3465  0.3363 -0.4296
  134OSM   H15S14531   0.350  -0.395   8.373 -1.1150  1.4580 -1.0052
  134OSM   H15T14532   0.359  -0.266   8.252  1.0283 -0.0006 -1.9904
  134OSM   C16S14533   0.529  -0.263   8.358  0.3037  0.6913  0.0898
  134OSM   H16S14534   0.580  -0.204   8.279  0.0607 -1.2771 -1.6261
  134OSM   H16T14535   0.597  -0.335   8.408 -0.4260 -0.0397  0.0600
  134OSM   C17S14536   0.469  -0.169   8.463 -0.5669 -0.1061  0.2552
  134OSM   H17S14537   0.405  -0.221   8.537  1.3121  0.0012  2.0667
  134OSM   H17T14538   0.400  -0.105   8.404 -0.0281  0.1284 -0.1267
  134OSM   C18S14539   0.569  -0.086   8.536 -0.6106 -0.3405 -0.1303
  134OSM   H18S14540   0.645  -0.162   8.566  1.2198  1.4942  0.0987
  134OSM   H18T14541   0.530  -0.028   8.622 -0.6884 -0.5144 -0.0470
  134OSM   H18U14542   0.620  -0.012   8.471  0.1660 -0.6875  0.0663
  134OSM    C1F14543   0.092  -0.045   7.181  0.0117  0.6706  0.2746
  134OSM     OF14544  -0.031  -0.043   7.154  0.7296  0.5782 -0.3502
  134OSM    C2F14545   0.141  -0.003   7.312 -0.7028 -0.1716  0.1175
  134OSM    H2F14546   0.102   0.101   7.322 -0.0288  0.2584 -1.3676
  134OSM    H2G14547   0.251   0.009   7.306 -0.8243  1.3914  0.4102
  134OSM    C3F14548   0.087  -0.085   7.430 -0.7083 -0.8962 -0.0793
  134OSM    H3F14549   0.092  -0.195   7.415 -1.0477 -0.7779 -1.1040
  134OSM    H3G14550  -0.019  -0.053   7.434 -0.0105  1.7965 -1.4122
  134OSM    C4F14551   0.167  -0.041   7.555 -0.7882  0.4267  0.5790
  134OSM    H4F14552   0.174   0.069   7.565 -1.4654  0.7828 -2.0816
  134OSM    H4G14553   0.271  -0.078   7.545 -1.3797 -1.7810  1.8678
  134OSM    C5F14554   0.102  -0.114   7.679 -0.0006  0.3845  0.4773
  134OSM    H5F14555   0.117  -0.222   7.659  3.9413  0.5675  1.6310
  134OSM    H5G14556  -0.003  -0.079   7.688 -0.4511 -0.7664 -0.0356
  134OSM    C6F14557   0.174  -0.082   7.805  0.0995  0.3992  0.4013
  134OSM    H6F14558   0.194   0.027   7.805 -0.0506  0.4267  0.0945
  134OSM    H6G14559   0.277  -0.124   7.807  0.9326  2.2920  3.1400
  134OSM    C7F14560   0.115  -0.149   7.927  0.6783  0.4257  0.4459
  134OSM    H7F14561   0.112  -0.256   7.896 -3.5554 -0.1218  2.1712
  134OSM    H7G14562   0.008  -0.131   7.947 -0.0793 -0.1486 -2.5599
  134OSM    C8F14563   0.205  -0.143   8.050  0.1206 -0.0663  0.3911
  134OSM    H8F14564   0.308  -0.131   8.011 -0.0222 -0.3287 -0.0730
  134OSM    H8G14565   0.192  -0.236   8.110  0.2775  2.0469  3.9969
  134OSM    C9F14566   0.162  -0.021   8.128  0.9503  0.7248 -0.1866
  134OSM    H9F14567   0.171   0.055   8.049  0.9853 -0.8134 -1.7203
  134OSM   C10F14568   0.115   0.005   8.252  0.4053  0.3206 -0.0972
  134OSM   H10F14569   0.084   0.106   8.280  2.2395  0.8415  0.2293
  134OSM   C11F14570   0.095  -0.107   8.348 -0.6389 -0.9482  0.3743
  134OSM   H11F14571   0.158  -0.108   8.440 -0.8482  1.1411  0.5821
  134OSM   H11G14572   0.120  -0.202   8.297 -3.1581 -0.2397 -2.4386
  134OSM   C12F14573  -0.057  -0.112   8.379 -0.2092 -0.2251  0.3426
  134OSM   H12F14574  -0.118  -0.133   8.288 -1.7215  0.7072  1.1070
  134OSM   H12G14575  -0.089  -0.017   8.427  1.8577  0.1473  1.0695
  134OSM   C13F14576  -0.093  -0.218   8.482 -0.2015 -0.3830  0.3701
  134OSM   H13F14577  -0.013  -0.296   8.479 -0.7938 -1.0133  0.7357
  134OSM   H13G14578  -0.195  -0.258   8.464 -0.8381  1.1868  0.3213
  134OSM   C14F14579  -0.084  -0.169   8.629  0.0403  0.3106  0.9085
  134OSM   H14F14580   0.008  -0.107   8.632 -0.1968  0.9243 -1.8378
  134OSM   H14G14581  -0.065  -0.255   8.696  2.3599  0.3947  0.4191
  134OSM   C15F14582  -0.206  -0.089   8.681  0.2014 -0.8223  0.5712
  134OSM   H15F14583  -0.228  -0.020   8.597 -0.6525 -2.0346 -0.2426
  134OSM   H15G14584  -0.181  -0.025   8.768 -2.5650 -0.7034  1.3579
  134OSM   C16F14585  -0.332  -0.171   8.709  0.7018  0.1826  0.4339
  134OSM   H16F14586  -0.325  -0.230   8.803  2.2850 -1.2097 -0.4965
  134OSM   H16G14587  -0.356  -0.242   8.626 -1.3417  2.4791 -1.0775
  134OSM   C17F14588  -0.458  -0.078   8.712  0.3247  0.7384  0.3870
  134OSM   H17F14589  -0.461  -0.022   8.616 -2.1035  0.9240  0.5171
  134OSM   H17G14590  -0.449  -0.004   8.795 -1.3106  2.2560 -0.7035
  134OSM   C18F14591  -0.593  -0.153   8.720 -0.4131 -0.3206  0.2201
  134OSM   H18F14592  -0.617  -0.198   8.621  3.3063 -0.1893 -0.9162
  134OSM   H18G14593  -0.678  -0.087   8.748  0.7147  2.4890 -2.3327
  134OSM   H18H14594  -0.573  -0.234   8.793  1.3269  1.2259  1.5615
  135OSM      N14595   6.651   6.649   6.214  0.9701 -0.0762 -0.5830
  135OSM    C1514596   6.766   6.742   6.203 -0.3218 -0.1346  0.6156
  135OSM   H15A14597   6.761   6.807   6.289  1.0778  2.1560 -0.9214
  135OSM   H15B14598   6.759   6.807   6.118  2.5149 -1.9997 -1.2477
  135OSM   H15C14599   6.861   6.691   6.216 -1.1986 -1.4806  2.2222
  135OSM    C1414600   6.529   6.724   6.165  0.2425 -0.1442  0.0234
  135OSM   H14A14601   6.539   6.760   6.064 -0.6046 -0.2179 -0.0934
  135OSM   H14B14602   6.509   6.811   6.226 -0.0954  1.3095 -2.0775
  135OSM   H14C14603   6.437   6.668   6.165  0.0862 -0.0351 -2.8788
  135OSM    C1314604   6.664   6.545   6.103 -0.2725 -0.2095  0.0449
  135OSM   H13A14605   6.755   6.487   6.107 -1.1341 -1.6716 -0.6536
  135OSM   H13B14606   6.671   6.587   6.004  2.4719  0.6851  0.5321
  135OSM   H13C14607   6.579   6.479   6.099  1.3377 -2.3345 -0.9498
  135OSM    C1214608   6.631   6.588   6.349  0.3163  0.2465  0.8657
  135OSM   H12A14609   6.722   6.534   6.368  1.4089  0.5863 -2.6579
  135OSM   H12B14610   6.556   6.511   6.338 -1.9607  2.5463 -1.1712
  135OSM    C1114611   6.590   6.683   6.460 -0.9516 -0.0094  0.3322
  135OSM   H11A14612   6.662   6.769   6.461 -2.3437  1.1993  0.0692
  135OSM   H11B14613   6.602   6.627   6.555 -0.3460 -0.9693 -0.2918
  135OSM      P14614   6.410   6.857   6.537 -0.0021  0.1445 -0.0819
  135OSM    O1314615   6.504   6.973   6.517 -0.4465  0.5848  0.9138
  135OSM    O1414616   6.268   6.881   6.514  0.6268  0.5177 -0.2978
  135OSM    O1114617   6.414   6.809   6.684  0.0068 -0.4523 -0.2915
  135OSM    O1214618   6.455   6.733   6.449  0.0797  0.3060 -0.3055
  135OSM    C1S14619   6.498   6.873   6.787  0.3894  0.8140 -0.2300
  135OSM    H1S14620   6.489   6.983   6.777  3.4957  1.4356  2.2535
  135OSM    H1T14621   6.606   6.850   6.781  0.2427  0.0141  0.0631
  135OSM     NF14622   6.545   6.879   7.032  0.4003 -0.2005 -0.4040
  135OSM    HNF14623   6.612   6.814   7.068 -0.2391 -0.3547  0.5445
  135OSM    C2S14624   6.451   6.827   6.932 -0.2270 -0.3420  0.5936
  135OSM    H2S14625   6.348   6.864   6.949 -0.8792 -1.2608 -1.1599
  135OSM    C3S14626   6.443   6.669   6.937  0.4665 -0.4108 -0.4272
  135OSM    H3S14627   6.542   6.619   6.929  0.8259  0.0621  0.7247
  135OSM     O314628   6.355   6.613   6.846 -0.3413 -0.0581  0.6369
  135OSM    HO314629   6.349   6.681   6.777 -1.0565 -0.0356  0.7173
  135OSM    C4S14630   6.393   6.637   7.077 -0.5287  0.0225 -0.1145
  135OSM    H4S14631   6.466   6.629   7.159  0.3745  0.4400 -0.8660
  135OSM    C5S14632   6.270   6.602   7.119 -0.2235 -0.5662  0.0300
  135OSM    H5S14633   6.183   6.604   7.052 -1.4811  0.0419  1.6220
  135OSM    C6S14634   6.233   6.580   7.260 -0.6319  0.5105 -0.5785
  135OSM    H6S14635   6.179   6.482   7.264 -0.5481  0.4291 -1.1972
  135OSM    H6T14636   6.156   6.657   7.281 -2.0345 -0.6101 -1.3216
  135OSM    C7S14637   6.344   6.583   7.364  0.3425  0.3471 -0.3494
  135OSM    H7S14638   6.405   6.675   7.379  0.3641 -0.1701  4.1221
  135OSM    H7T14639   6.411   6.498   7.337 -0.2806 -0.0149 -0.7643
  135OSM    C8S14640   6.286   6.558   7.505 -0.4955  0.3004 -0.1858
  135OSM    H8S14641   6.237   6.460   7.523  1.4631 -0.2266  3.1518
  135OSM    H8T14642   6.213   6.635   7.536  0.1481  0.2302  1.6298
  135OSM    C9S14643   6.397   6.574   7.614 -0.2983  0.0268  0.0429
  135OSM    H9S14644   6.434   6.678   7.603 -0.5761  0.2112  0.7942
  135OSM    H9T14645   6.480   6.500   7.605  1.0793  1.0096  3.1550
  135OSM   C10S14646   6.351   6.543   7.753 -0.4362 -0.2590 -0.2217
  135OSM   H10S14647   6.274   6.463   7.743  0.6773 -1.0884 -2.6882
  135OSM   H10T14648   6.305   6.634   7.798 -1.0319 -1.7873  2.4992
  135OSM   C11S14649   6.469   6.517   7.844 -0.1619  0.2648  0.1268
  135OSM   H11S14650   6.519   6.616   7.852  2.4517 -0.8423 -1.0493
  135OSM   H11T14651   6.536   6.434   7.812 -1.2531 -1.3548  1.8299
  135OSM   C12S14652   6.422   6.479   7.986  0.0824 -0.2167 -0.3786
  135OSM   H12S14653   6.513   6.496   8.047  1.8611 -0.4215 -2.8609
  135OSM   H12T14654   6.391   6.372   7.986 -0.0735 -0.1717 -0.4628
  135OSM   C13S14655   6.311   6.557   8.056  0.5818 -0.0067 -0.0322
  135OSM   H13S14656   6.214   6.527   8.012  1.0142 -1.5146 -0.0339
  135OSM   H13T14657   6.320   6.667   8.049 -0.4729  0.2918  2.2747
  135OSM   C14S14658   6.304   6.533   8.208  0.1021  0.1290  0.1347
  135OSM   H14S14659   6.409   6.552   8.239  0.5388 -0.2552 -1.0541
  135OSM   H14T14660   6.267   6.430   8.225  0.4887 -0.0473 -0.0643
  135OSM   C15S14661   6.208   6.637   8.274  0.0818 -0.0244 -0.3549
  135OSM   H15S14662   6.205   6.731   8.216  0.2353  0.4988  0.4810
  135OSM   H15T14663   6.246   6.671   8.372 -1.0382  0.0839  0.0542
  135OSM   C16S14664   6.070   6.576   8.302 -0.2549  0.2093 -0.1728
  135OSM   H16S14665   6.076   6.475   8.350 -1.8993  0.4413  0.5983
  135OSM   H16T14666   6.019   6.558   8.205 -0.9951  1.1406  0.0347
  135OSM   C17S14667   5.979   6.672   8.381 -0.1561  0.1320  0.2289
  135OSM   H17S14668   5.982   6.770   8.330 -1.1711  1.1087  1.9782
  135OSM   H17T14669   6.019   6.689   8.483  1.1543 -0.0114 -0.2341
  135OSM   C18S14670   5.839   6.619   8.382 -0.1618 -0.0486 -0.3433
  135OSM   H18S14671   5.817   6.587   8.278  0.8921  0.6317 -0.7955
  135OSM   H18T14672   5.766   6.686   8.430 -0.7668 -0.5672 -0.5243
  135OSM   H18U14673   5.842   6.528   8.447  1.9027 -1.0258 -1.6858
  135OSM    C1F14674   6.537   6.999   7.081 -0.3821 -0.2571 -0.9631
  135OSM     OF14675   6.456   7.075   7.033 -0.2187  0.5657 -0.0340
  135OSM    C2F14676   6.616   7.040   7.207  0.4116 -0.6968 -0.3316
  135OSM    H2F14677   6.713   7.081   7.173  0.2284  0.9115  0.9525
  135OSM    H2G14678   6.631   6.953   7.274  2.3282  0.8800  1.4652
  135OSM    C3F14679   6.551   7.146   7.304 -0.2807  0.1260 -0.0979
  135OSM    H3F14680   6.451   7.102   7.322 -0.6120  0.8452 -0.1228
  135OSM    H3G14681   6.551   7.244   7.250 -0.3662  0.7339  0.9889
  135OSM    C4F14682   6.625   7.167   7.441 -0.3078  0.0001 -0.0846
  135OSM    H4F14683   6.583   7.260   7.485 -1.2030  0.9549 -2.8018
  135OSM    H4G14684   6.734   7.175   7.423  0.3364 -3.1470  1.6684
  135OSM    C5F14685   6.601   7.048   7.535 -0.2426  0.0559  0.2333
  135OSM    H5F14686   6.659   6.966   7.488  2.6853  3.1575 -2.0963
  135OSM    H5G14687   6.492   7.027   7.537 -0.0060 -1.3848 -0.6946
  135OSM    C6F14688   6.647   7.084   7.682  0.0481  0.0294 -0.0939
  135OSM    H6F14689   6.635   7.193   7.698  0.4360  0.3124 -1.5354
  135OSM    H6G14690   6.757   7.065   7.679 -0.1731 -1.4454  0.4193
  135OSM    C7F14691   6.587   6.990   7.791  0.0796  0.1913  0.1631
  135OSM    H7F14692   6.583   6.881   7.767 -0.4078  0.0329  0.9261
  135OSM    H7G14693   6.485   7.031   7.811 -0.3877 -1.8722  2.5126
  135OSM    C8F14694   6.643   7.019   7.932  0.1914 -0.0049  0.1218
  135OSM    H8F14695   6.588   7.111   7.963  1.4046  0.7137  0.1735
  135OSM    H8G14696   6.751   7.044   7.926  0.0485  2.1967  3.6609
  135OSM    C9F14697   6.612   6.903   8.019  0.1634 -0.5813 -0.0444
  135OSM    H9F14698   6.690   6.826   8.016  0.9925  0.2629 -1.8762
  135OSM   C10F14699   6.512   6.899   8.107 -0.1512 -0.3297  0.8483
  135OSM   H10F14700   6.510   6.817   8.180  3.1850 -1.5317 -0.2348
  135OSM   C11F14701   6.412   7.013   8.144  0.5144 -0.1600  0.1572
  135OSM   H11F14702   6.319   6.997   8.084  1.5443 -1.4259 -1.1762
  135OSM   H11G14703   6.458   7.107   8.108 -0.7154 -0.3433 -2.0838
  135OSM   C12F14704   6.380   7.019   8.294  0.2480  0.1854 -0.6965
  135OSM   H12F14705   6.473   7.033   8.354  0.5999 -1.0996 -0.8946
  135OSM   H12G14706   6.323   6.929   8.325 -0.8464  1.3127  0.6843
  135OSM   C13F14707   6.280   7.140   8.326 -0.3051  0.1910 -0.4160
  135OSM   H13F14708   6.187   7.117   8.269  0.5744 -2.2203 -0.9831
  135OSM   H13G14709   6.327   7.237   8.298  0.5773  0.5263  1.9856
  135OSM   C14F14710   6.247   7.161   8.471 -0.8204  0.4410 -0.8776
  135OSM   H14F14711   6.166   7.089   8.495 -0.8118  0.8476  0.4193
  135OSM   H14G14712   6.203   7.262   8.490  0.7102  1.2704 -1.5192
  135OSM   C15F14713   6.354   7.109   8.574  0.2764  0.5534 -0.1737
  135OSM   H15F14714   6.442   7.177   8.575  0.9951 -0.2853 -1.9185
  135OSM   H15G14715   6.390   7.007   8.548 -1.7314 -0.5591  1.1790
  135OSM   C16F14716   6.302   7.107   8.721 -0.1410  0.5585  0.1050
  135OSM   H16F14717   6.212   7.042   8.721 -0.6787  1.2107 -2.4566
  135OSM   H16G14718   6.296   7.208   8.768  1.7088 -0.0859  1.9076
  135OSM   C17F14719   6.410   7.022   8.808  0.5565 -0.4538  0.0439
  135OSM   H17F14720   6.504   7.081   8.813  0.7839 -0.8129  0.0045
  135OSM   H17G14721   6.424   6.931   8.746 -1.8018 -1.3961  0.7558
  135OSM   C18F14722   6.364   6.995   8.948  0.2756  0.1359  0.8787
  135OSM   H18F14723   6.330   7.090   8.997 -0.3139  0.2770  0.2111
  135OSM   H18G14724   6.444   6.954   9.012  0.1937 -1.3968  0.0283
  135OSM   H18H14725   6.278   6.925   8.954  0.9680 -0.7335  0.7858
  136OSM      N14726   4.530   6.361   6.090 -0.0978  0.3758 -0.0510
  136OSM    C1514727   4.401   6.317   6.031 -0.3142  0.6147  0.5213
  136OSM   H15A14728   4.400   6.285   5.928  0.5056  1.1740  0.3296
  136OSM   H15B14729   4.327   6.395   6.025 -3.0051 -1.8398 -0.7713
  136OSM   H15C14730   4.347   6.248   6.094 -1.9758 -0.7326 -2.2087
  136OSM    C1414731   4.622   6.247   6.086 -0.8375 -0.8028  0.2545
  136OSM   H14A14732   4.577   6.161   6.135  0.4754 -1.3560  0.5239
  136OSM   H14B14733   4.718   6.272   6.128 -1.3608  0.7884  0.5503
  136OSM   H14C14734   4.641   6.234   5.980  0.0438  1.0837  0.1475
  136OSM    C1314735   4.578   6.485   6.026 -0.0165  0.0278 -0.7625
  136OSM   H13A14736   4.668   6.522   6.072 -0.3999 -0.3151  0.2934
  136OSM   H13B14737   4.504   6.564   6.033 -0.3549 -0.2702 -0.9415
  136OSM   H13C14738   4.598   6.477   5.920 -3.8497  2.1337 -1.8233
  136OSM    C1214739   4.510   6.395   6.245 -0.4899  0.0224  1.0300
  136OSM   H12A14740   4.440   6.477   6.246  2.1895  2.6665 -2.3390
  136OSM   H12B14741   4.609   6.426   6.277  0.5549 -0.3999 -1.5452
  136OSM    C1114742   4.441   6.289   6.336  0.0489 -0.5742  0.1380
  136OSM   H11A14743   4.448   6.310   6.445  0.9735  0.9005 -0.1736
  136OSM   H11B14744   4.501   6.198   6.317 -1.1435 -1.6738  1.4404
  136OSM      P14745   4.192   6.358   6.348 -0.3352  0.2399 -0.2559
  136OSM    O1314746   4.241   6.496   6.314 -0.1132  0.3178  0.4928
  136OSM    O1414747   4.053   6.323   6.312 -0.1123  0.3457 -0.2226
  136OSM    O1114748   4.202   6.341   6.507  0.5114  0.1905  0.3739
  136OSM    O1214749   4.306   6.258   6.294  0.8924 -0.2104 -0.5496
  136OSM    C1S14750   4.164   6.225   6.573  0.6285  0.0725  1.0179
  136OSM    H1S14751   4.243   6.150   6.552 -1.7055 -2.2932  0.0623
  136OSM    H1T14752   4.061   6.198   6.539  1.1049 -0.2213 -0.2490
  136OSM     NF14753   4.073   6.101   6.774 -0.1327  0.1438  0.4215
  136OSM    HNF14754   3.975   6.100   6.794 -0.4397  0.0994 -0.9290
  136OSM    C2S14755   4.139   6.224   6.728  0.5848  1.0974 -0.2897
  136OSM    H2S14756   4.235   6.242   6.780  0.6304  0.1026 -0.0081
  136OSM    C3S14757   4.057   6.351   6.771 -0.1490  0.7700 -0.7158
  136OSM    H3S14758   3.953   6.323   6.742 -0.5837  1.3675  0.2142
  136OSM     O314759   4.086   6.477   6.701  0.3476 -0.0027 -0.1500
  136OSM    HO314760   4.142   6.454   6.627 -1.8409 -0.9872 -1.5857
  136OSM    C4S14761   4.047   6.370   6.917 -0.1846  0.0409 -0.4079
  136OSM    H4S14762   3.975   6.303   6.965  1.3426 -2.2177 -1.0903
  136OSM    C5S14763   4.123   6.451   6.993 -0.1592  0.4209  0.0241
  136OSM    H5S14764   4.216   6.499   6.958 -1.1161  2.1614 -0.2219
  136OSM    C6S14765   4.104   6.475   7.146  0.1642  1.0899  0.6910
  136OSM    H6S14766   4.112   6.584   7.163 -1.5930  1.4207 -0.3808
  136OSM    H6T14767   4.188   6.427   7.201 -0.8780  0.2205  1.5487
  136OSM    C7S14768   3.972   6.435   7.211 -0.1093  0.7341  0.4487
  136OSM    H7S14769   3.938   6.337   7.171  0.0924  1.4057 -1.4453
  136OSM    H7T14770   3.890   6.500   7.175 -0.3912  0.5036  0.6664
  136OSM    C8S14771   3.966   6.446   7.355 -0.5840 -0.0347 -0.6199
  136OSM    H8S14772   4.058   6.392   7.387 -0.2170 -0.0515 -1.6580
  136OSM    H8T14773   3.875   6.395   7.391  0.5269 -0.1190  2.3299
  136OSM    C9S14774   3.980   6.590   7.413  0.4869 -0.4676  0.1490
  136OSM    H9S14775   3.881   6.638   7.400 -0.3335 -2.4670 -1.5470
  136OSM    H9T14776   4.061   6.649   7.366  3.1151 -2.1665  2.2651
  136OSM   C10S14777   4.010   6.591   7.561  0.1300 -0.0548  0.0355
  136OSM   H10S14778   4.111   6.547   7.573  0.3754 -0.4373 -2.6407
  136OSM   H10T14779   3.941   6.520   7.613  0.3053  0.2249  0.6551
  136OSM   C11S14780   3.977   6.716   7.634 -0.3290  0.3945 -0.4432
  136OSM   H11S14781   3.872   6.747   7.649  0.0070  1.2886  0.1992
  136OSM   H11T14782   4.023   6.806   7.587 -1.2282  0.8072 -0.5400
  136OSM   C12S14783   4.033   6.716   7.781 -0.2814 -0.3447 -0.4464
  136OSM   H12S14784   4.143   6.730   7.785 -0.2840 -0.5010  1.3786
  136OSM   H12T14785   4.006   6.620   7.831  1.7787 -1.1630 -0.8173
  136OSM   C13S14786   3.959   6.823   7.867  0.5693  0.0087  0.0357
  136OSM   H13S14787   3.862   6.772   7.886 -0.0587  1.1110 -0.1349
  136OSM   H13T14788   3.938   6.914   7.808 -2.3799 -0.7904 -0.3077
  136OSM   C14S14789   4.030   6.846   7.999  0.2892  0.1902 -0.1638
  136OSM   H14S14790   3.985   6.930   8.057 -2.0051 -0.9944 -0.1214
  136OSM   H14T14791   4.133   6.886   7.986  0.3957 -0.4279 -1.3928
  136OSM   C15S14792   4.014   6.727   8.096 -0.1257  0.0116  0.0425
  136OSM   H15S14793   4.051   6.632   8.053 -0.5152 -0.4483  0.6980
  136OSM   H15T14794   3.908   6.714   8.129  0.6409 -1.1579  2.3193
  136OSM   C16S14795   4.075   6.763   8.232 -0.4214  0.3308 -0.1924
  136OSM   H16S14796   4.042   6.866   8.258  1.4224  0.1948  3.2508
  136OSM   H16T14797   4.186   6.762   8.231 -0.4227 -0.7916 -0.6451
  136OSM   C17S14798   4.041   6.663   8.340  0.8086 -0.1006 -0.9157
  136OSM   H17S14799   4.053   6.563   8.293 -0.3013 -0.3908 -0.6240
  136OSM   H17T14800   3.934   6.673   8.370  0.6515 -1.4042 -0.9448
  136OSM   C18S14801   4.126   6.662   8.468 -0.9809 -0.0896  0.1117
  136OSM   H18S14802   4.233   6.659   8.439 -0.9871 -0.7074  0.1335
  136OSM   H18T14803   4.113   6.574   8.534 -0.1084 -0.1069  0.2672
  136OSM   H18U14804   4.112   6.759   8.522  0.9649  0.3550 -0.1122
  136OSM    C1F14805   4.137   5.986   6.763  0.0813 -0.9133  0.9786
  136OSM     OF14806   4.249   5.981   6.712  0.0755  1.1073  0.2470
  136OSM    C2F14807   4.052   5.862   6.798 -0.3541 -0.2718  0.1313
  136OSM    H2F14808   4.030   5.813   6.701  0.1113 -2.6414  1.1488
  136OSM    H2G14809   3.956   5.895   6.843 -0.2994 -0.8412  0.6876
  136OSM    C3F14810   4.116   5.768   6.895 -0.3453  0.4874  0.1877
  136OSM    H3F14811   4.204   5.712   6.855 -0.7380 -2.3529  2.8627
  136OSM    H3G14812   4.045   5.683   6.902  0.6034 -0.2320  1.5166
  136OSM    C4F14813   4.148   5.812   7.038 -0.2360 -0.4610 -0.6276
  136OSM    H4F14814   4.196   5.911   7.022  0.4454 -0.7386 -0.2951
  136OSM    H4G14815   4.218   5.741   7.086 -0.9370 -1.2974 -0.8057
  136OSM    C5F14816   4.024   5.848   7.117  0.3810 -0.0070  1.0181
  136OSM    H5F14817   3.969   5.753   7.131 -1.2064  0.6576 -0.4037
  136OSM    H5G14818   3.956   5.916   7.061  0.6115 -1.2875 -0.9307
  136OSM    C6F14819   4.057   5.909   7.250  0.7334 -0.3677 -0.8932
  136OSM    H6F14820   4.151   5.968   7.243  1.1580 -0.8208  0.5645
  136OSM    H6G14821   4.086   5.817   7.306  0.5712 -0.0277 -0.2402
  136OSM    C7F14822   3.932   5.981   7.302 -0.0749  0.2463 -0.7079
  136OSM    H7F14823   3.840   5.941   7.253 -0.3853  1.8190 -1.4869
  136OSM    H7G14824   3.933   6.086   7.265 -0.5703  0.2940 -0.6018
  136OSM    C8F14825   3.926   5.983   7.457 -0.4694  0.1190  0.1314
  136OSM    H8F14826   4.016   6.033   7.499  0.1630 -1.8542  1.2490
  136OSM    H8G14827   3.930   5.874   7.474 -1.8789  0.2389  1.4644
  136OSM    C9F14828   3.808   6.034   7.532 -0.9854  0.6779  0.1249
  136OSM    H9F14829   3.711   6.007   7.488 -1.7383  0.8793  1.6193
  136OSM   C10F14830   3.793   6.112   7.636  0.9025 -0.7382 -0.3394
  136OSM   H10F14831   3.693   6.115   7.681  0.9070  0.9897 -0.3971
  136OSM   C11F14832   3.893   6.186   7.721 -0.7121 -0.3922  1.4225
  136OSM   H11F14833   3.853   6.284   7.754 -0.9489  0.4107 -1.0321
  136OSM   H11G14834   3.979   6.215   7.657 -1.8955 -1.7897 -0.9512
  136OSM   C12F14835   3.932   6.088   7.836  0.3055 -0.3400  0.5247
  136OSM   H12F14836   3.978   5.999   7.788 -0.1541 -1.4959  2.1439
  136OSM   H12G14837   3.840   6.054   7.888 -0.4198 -1.1801 -1.2045
  136OSM   C13F14838   4.027   6.157   7.938 -0.0547 -0.4657  0.3408
  136OSM   H13F14839   4.102   6.197   7.867 -1.1660  0.0480 -0.5958
  136OSM   H13G14840   4.079   6.082   8.001  0.1898  0.0628  0.7737
  136OSM   C14F14841   3.980   6.277   8.021  0.3900 -0.9554  0.2543
  136OSM   H14F14842   3.870   6.281   8.006 -0.0415 -0.5249  2.9822
  136OSM   H14G14843   4.021   6.378   7.999 -2.0151  0.5450  2.2333
  136OSM   C15F14844   4.003   6.268   8.171 -0.0870 -0.7365  0.3748
  136OSM   H15F14845   3.951   6.361   8.201  0.8596  0.0448 -0.3473
  136OSM   H15G14846   4.108   6.290   8.199 -0.1546 -0.2905  0.2959
  136OSM   C16F14847   3.945   6.141   8.243  0.5887  0.0756  0.0647
  136OSM   H16F14848   3.970   6.141   8.351  1.1566 -2.0942 -0.0351
  136OSM   H16G14849   4.000   6.053   8.203 -0.0364 -0.9096  1.3204
  136OSM   C17F14850   3.794   6.132   8.226 -0.1118  0.0292 -0.2062
  136OSM   H17F14851   3.790   6.091   8.123  1.2752 -1.7414  0.3922
  136OSM   H17G14852   3.749   6.233   8.211  0.6022  0.2332 -1.0676
  136OSM   C18F14853   3.711   6.048   8.335 -0.5288 -0.6845  1.3249
  136OSM   H18F14854   3.723   5.939   8.316  1.3232 -0.1082 -1.3895
  136OSM   H18G14855   3.609   6.092   8.334  0.8420  2.7527  0.3536
  136OSM   H18H14856   3.754   6.065   8.436  0.1438 -0.9082  1.0851
  137OSM      N14857   1.529   5.324   6.568  0.0875 -0.3580  0.1752
  137OSM    C1514858   1.561   5.330   6.416 -0.0266 -0.2292 -0.1419
  137OSM   H15A14859   1.471   5.313   6.359 -0.5364  0.9560  0.2683
  137OSM   H15B14860   1.644   5.269   6.384  0.8278  0.7084  0.2193
  137OSM   H15C14861   1.579   5.432   6.382  1.5160 -1.1633 -2.4054
  137OSM    C1414862   1.474   5.184   6.591 -0.2579 -0.0305  0.4480
  137OSM   H14A14863   1.534   5.116   6.532  0.1430  0.7214 -0.0245
  137OSM   H14B14864   1.375   5.179   6.550 -0.4311  0.1194  0.8409
  137OSM   H14C14865   1.469   5.149   6.693 -0.4483 -0.7586  0.1920
  137OSM    C1314866   1.663   5.313   6.642  0.5112  0.6097  0.0706
  137OSM   H13A14867   1.711   5.220   6.618 -0.8162 -0.1700  0.2904
  137OSM   H13B14868   1.652   5.316   6.750  2.6527  1.5742  0.2978
  137OSM   H13C14869   1.731   5.390   6.610  0.6017  0.6031  0.2442
  137OSM    C1214870   1.432   5.433   6.618  0.2173  0.1611 -0.8278
  137OSM   H12A14871   1.486   5.527   6.614  1.5532 -0.4367  1.2309
  137OSM   H12B14872   1.436   5.408   6.723  0.0090  0.1662 -0.8182
  137OSM    C1114873   1.288   5.445   6.568  0.6806 -0.2892  0.2424
  137OSM   H11A14874   1.253   5.348   6.528  1.1371 -0.2024 -0.3772
  137OSM   H11B14875   1.283   5.520   6.487 -1.4202  0.4135  0.9577
  137OSM      P14876   1.046   5.444   6.675 -0.0807 -0.2243  0.2031
  137OSM    O1314877   0.960   5.531   6.593 -0.2690  0.0613 -0.0912
  137OSM    O1414878   1.036   5.295   6.651  0.0271 -0.6308  0.1680
  137OSM    O1114879   1.020   5.467   6.822 -0.7112  0.7095 -0.1368
  137OSM    O1214880   1.200   5.491   6.671 -0.6902 -0.1894  0.3324
  137OSM    C1S14881   1.109   5.556   6.899 -0.9099 -0.0591  0.3982
  137OSM    H1S14882   1.106   5.659   6.857 -3.7506  0.0981  0.8332
  137OSM    H1T14883   1.213   5.514   6.904 -1.1926 -1.0464 -1.1029
  137OSM     NF14884   1.138   5.659   7.119 -0.3790 -0.2181 -0.4175
  137OSM    HNF14885   1.214   5.630   7.177 -0.4985  3.5971  2.0211
  137OSM    C2S14886   1.062   5.556   7.045 -0.2331 -0.2094  0.0980
  137OSM    H2S14887   0.957   5.591   7.045  0.4327  2.0404 -1.2674
  137OSM    C3S14888   1.060   5.406   7.108  0.4159 -0.4620  0.0243
  137OSM    H3S14889   1.164   5.368   7.097  0.0573 -0.8103 -2.7000
  137OSM     O314890   0.993   5.313   7.025  0.4864  0.2502 -0.0234
  137OSM    HO314891   0.986   5.365   6.945  3.0655  2.2001  0.8799
  137OSM    C4S14892   1.017   5.409   7.251  0.5130  0.0945 -0.8572
  137OSM    H4S14893   1.101   5.377   7.314  0.9858 -3.2976 -2.9366
  137OSM    C5S14894   0.900   5.420   7.312 -0.5946 -0.1469  0.6451
  137OSM    H5S14895   0.812   5.437   7.248  0.6344 -1.1306 -1.4113
  137OSM    C6S14896   0.875   5.411   7.456  0.2481 -0.4216 -0.5671
  137OSM    H6S14897   0.940   5.345   7.516  0.3105 -1.6879 -1.9850
  137OSM    H6T14898   0.772   5.369   7.458  0.3106 -0.5585  1.2413
  137OSM    C7S14899   0.870   5.548   7.528  0.0604  0.1777  0.2018
  137OSM    H7S14900   0.785   5.605   7.485  0.3264  0.6757  0.3319
  137OSM    H7T14901   0.964   5.605   7.513 -1.4505  1.8803 -4.3785
  137OSM    C8S14902   0.845   5.537   7.687 -0.0051 -0.7851  0.1659
  137OSM    H8S14903   0.933   5.490   7.735  0.7623  0.6212  0.1861
  137OSM    H8T14904   0.755   5.477   7.712 -1.4324  2.0936  2.4693
  137OSM    C9S14905   0.820   5.680   7.740  0.0149 -1.4010  0.1049
  137OSM    H9S14906   0.712   5.689   7.717  0.2028  0.9636 -0.0309
  137OSM    H9T14907   0.872   5.760   7.683 -1.3128 -0.0066  0.7828
  137OSM   C10S14908   0.830   5.706   7.892 -0.0428 -0.5181  0.2101
  137OSM   H10S14909   0.771   5.796   7.915  3.1109  2.2941 -1.8048
  137OSM   H10T14910   0.932   5.726   7.932  1.2702 -3.7883 -1.1409
  137OSM   C11S14911   0.785   5.577   7.967 -0.5322  0.4338  0.1877
  137OSM   H11S14912   0.864   5.502   7.945  0.0236  0.6968  1.2361
  137OSM   H11T14913   0.684   5.547   7.932 -0.3181  0.5555 -0.5385
  137OSM   C12S14914   0.789   5.594   8.123  0.3681 -0.3034 -0.4739
  137OSM   H12S14915   0.697   5.546   8.162  0.0722  0.3441 -0.3722
  137OSM   H12T14916   0.788   5.703   8.147 -1.5828 -0.7740  1.9790
  137OSM   C13S14917   0.917   5.528   8.184  0.1746  0.8674  0.0271
  137OSM   H13S14918   1.005   5.572   8.132  1.4266  1.4647  2.5115
  137OSM   H13T14919   0.913   5.422   8.150 -2.1664  1.1091 -0.6285
  137OSM   C14S14920   0.915   5.539   8.335 -0.2812 -0.3104 -1.2177
  137OSM   H14S14921   0.826   5.480   8.366 -0.3525  1.1344  1.5575
  137OSM   H14T14922   0.898   5.645   8.361 -0.0603 -0.3230 -1.0199
  137OSM   C15S14923   1.028   5.468   8.399  0.9360 -0.3357  0.2365
  137OSM   H15S14924   1.122   5.527   8.389  1.4188 -0.8321  1.5434
  137OSM   H15T14925   1.040   5.366   8.355 -0.8688 -0.2688 -0.4747
  137OSM   C16S14926   1.004   5.439   8.546 -0.4897  0.0504  0.0890
  137OSM   H16S14927   0.919   5.369   8.562  0.1226 -0.5112  0.9704
  137OSM   H16T14928   0.991   5.538   8.595 -0.3063  0.3902 -0.5491
  137OSM   C17S14929   1.116   5.368   8.624  0.1531  0.4101  0.3931
  137OSM   H17S14930   1.098   5.367   8.733 -1.2053  0.6500  0.1911
  137OSM   H17T14931   1.206   5.431   8.611  0.1553  0.3015 -0.1615
  137OSM   C18S14932   1.155   5.228   8.563 -0.2645 -0.6500  0.0433
  137OSM   H18S14933   1.205   5.238   8.464  1.6758  1.9055  1.1594
  137OSM   H18T14934   1.061   5.171   8.546 -0.6849 -0.2017  0.8079
  137OSM   H18U14935   1.220   5.170   8.632  1.3307 -0.3268 -1.1349
  137OSM    C1F14936   1.128   5.795   7.116 -0.4736  0.8175  0.1520
  137OSM     OF14937   1.031   5.851   7.069  0.4454 -0.1806  0.3549
  137OSM    C2F14938   1.234   5.876   7.173  0.0884 -0.1791  0.1192
  137OSM    H2F14939   1.280   5.936   7.091  0.1004  0.5622  0.6486
  137OSM    H2G14940   1.312   5.813   7.221  0.7194 -0.2873 -1.0223
  137OSM    C3F14941   1.181   5.965   7.288 -0.6228 -0.0218  0.9006
  137OSM    H3F14942   1.141   5.900   7.369 -1.3369  0.4200  0.9124
  137OSM    H3G14943   1.099   6.024   7.242  0.1200  0.6043  0.3672
  137OSM    C4F14944   1.280   6.065   7.340  0.0303 -0.2911  0.2622
  137OSM    H4F14945   1.241   6.148   7.402  2.1623  1.0093 -0.0256
  137OSM    H4G14946   1.334   6.117   7.257  0.0217 -1.7615 -0.7045
  137OSM    C5F14947   1.376   5.998   7.442  0.1193 -0.2639  0.2825
  137OSM    H5F14948   1.441   5.931   7.383  0.8250 -0.0755  0.8253
  137OSM    H5G14949   1.323   5.933   7.514 -0.5922  0.6977  0.6533
  137OSM    C6F14950   1.459   6.100   7.529 -0.0698 -0.2530 -0.5329
  137OSM    H6F14951   1.506   6.170   7.457  0.7448  0.5502  0.7330
  137OSM    H6G14952   1.533   6.039   7.586  1.6130  1.4123 -0.8091
  137OSM    C7F14953   1.384   6.182   7.638 -0.0384 -0.3702  0.7181
  137OSM    H7F14954   1.293   6.220   7.586  0.5055 -1.3590 -1.0696
  137OSM    H7G14955   1.447   6.264   7.677  1.0612 -1.3879  1.1716
  137OSM    C8F14956   1.328   6.114   7.754  0.1414  0.5834  0.3855
  137OSM    H8F14957   1.240   6.062   7.710  0.5172 -1.0386  1.4236
  137OSM    H8G14958   1.290   6.196   7.818 -1.6513  0.3615 -0.3363
  137OSM    C9F14959   1.412   6.017   7.833  0.1209 -0.1789  0.0676
  137OSM    H9F14960   1.420   5.923   7.777  0.1745 -0.0612 -0.1252
  137OSM   C10F14961   1.478   6.040   7.943  0.6678 -0.2587 -0.6043
  137OSM   H10F14962   1.533   5.957   7.990 -0.6417 -0.2708  1.0115
  137OSM   C11F14963   1.476   6.159   8.027 -0.3685 -0.0424 -0.0962
  137OSM   H11F14964   1.398   6.232   7.996 -0.8966  0.2208  1.7469
  137OSM   H11G14965   1.576   6.207   8.013 -0.3345 -0.5706 -1.9729
  137OSM   C12F14966   1.452   6.141   8.174 -0.9182  0.0288  0.1350
  137OSM   H12F14967   1.364   6.073   8.178 -0.7773 -0.2480 -1.0504
  137OSM   H12G14968   1.419   6.239   8.214 -2.8773 -0.2174 -0.7794
  137OSM   C13F14969   1.578   6.091   8.244 -0.4620 -1.1013  0.1695
  137OSM   H13F14970   1.641   6.182   8.254 -1.8694 -0.3423  3.6814
  137OSM   H13G14971   1.619   6.009   8.181 -0.0777  0.4392 -1.6394
  137OSM   C14F14972   1.552   6.045   8.393  0.0213  0.3862 -0.3658
  137OSM   H14F14973   1.475   5.965   8.385  2.1061 -1.5982 -1.6826
  137OSM   H14G14974   1.527   6.121   8.470 -0.2853 -0.5783  0.5096
  137OSM   C15F14975   1.699   6.001   8.437  0.4345 -0.5076 -0.2588
  137OSM   H15F14976   1.761   6.093   8.431  1.1544 -0.8953  0.9864
  137OSM   H15G14977   1.740   5.929   8.363 -0.3828  1.9737 -3.4093
  137OSM   C16F14978   1.705   5.939   8.574  1.0174  0.5984 -0.3744
  137OSM   H16F14979   1.634   5.852   8.577 -0.3262  1.5586 -2.2631
  137OSM   H16G14980   1.673   6.015   8.649 -0.8166  1.8627 -2.3434
  137OSM   C17F14981   1.839   5.872   8.606 -0.0137  0.0623 -0.0327
  137OSM   H17F14982   1.918   5.943   8.576 -2.4245  2.3379 -1.4066
  137OSM   H17G14983   1.844   5.779   8.545 -0.1922  0.2068 -0.2695
  137OSM   C18F14984   1.869   5.822   8.752 -0.0290 -0.7238  0.0854
  137OSM   H18F14985   1.975   5.788   8.757  0.2394 -0.1490 -1.0983
  137OSM   H18G14986   1.810   5.733   8.781  1.6469 -1.2314  2.1735
  137OSM   H18H14987   1.865   5.907   8.822 -1.0715 -0.8131  0.1407
  138OSM      N14988   2.065   1.913   6.176  0.7619  0.5070  0.4975
  138OSM    C1514989   2.204   1.844   6.202  0.0435  0.0689 -0.1442
  138OSM   H15A14990   2.271   1.904   6.263 -1.2329  0.1156  1.2532
  138OSM   H15B14991   2.254   1.815   6.110 -0.1937  1.0384 -0.5921
  138OSM   H15C14992   2.192   1.752   6.256 -1.3665 -0.3924 -1.1863
  138OSM    C1414993   2.078   2.046   6.110  0.1237 -0.4339 -0.5637
  138OSM   H14A14994   1.986   2.089   6.073  0.5433 -0.1754 -1.3270
  138OSM   H14B14995   2.144   2.048   6.025 -0.9332  1.3376 -1.3933
  138OSM   H14C14996   2.113   2.106   6.193 -1.8416 -3.5031  2.7877
  138OSM    C1314997   1.986   1.822   6.089  0.2420  0.3197  0.5549
  138OSM   H13A14998   1.904   1.880   6.050 -0.4568 -0.7803  0.3637
  138OSM   H13B14999   1.944   1.745   6.152 -1.2350  2.4721  2.3925
  138OSM   H13C15000   2.041   1.776   6.009 -0.6381  0.4607 -0.1444
  138OSM    C1215001   1.997   1.917   6.309 -0.2837 -0.5036 -0.3712
  138OSM   H12A15002   2.070   1.968   6.370 -0.4983 -0.0795 -0.4654
  138OSM   H12B15003   2.000   1.818   6.351 -1.4589 -0.0520  0.8340
  138OSM    C1115004   1.858   1.985   6.326 -0.3111  0.2043 -0.7775
  138OSM   H11A15005   1.885   2.090   6.306 -0.5405  0.1432 -1.4365
  138OSM   H11B15006   1.804   1.974   6.423 -1.2653  1.8579 -1.0871
  138OSM      P15007   1.666   2.020   6.161 -0.0823 -0.0763  0.0969
  138OSM    O1315008   1.744   2.125   6.092 -0.4005  0.3235  0.1060
  138OSM    O1415009   1.572   1.948   6.071 -0.1688 -0.6811 -0.4162
  138OSM    O1115010   1.584   2.075   6.281  0.0761  0.5897  0.2037
  138OSM    O1215011   1.766   1.934   6.228 -0.3896 -0.5985  0.6607
  138OSM    C1S15012   1.528   2.002   6.392 -0.7671 -0.3151  0.6249
  138OSM    H1S15013   1.580   1.905   6.411  0.0200 -0.7735 -3.1088
  138OSM    H1T15014   1.423   1.976   6.369 -1.0114  1.7450 -0.7905
  138OSM     NF15015   1.473   1.985   6.635 -0.2141 -0.4040  0.1378
  138OSM    HNF15016   1.378   1.999   6.662  0.1613 -0.7693  1.7055
  138OSM    C2S15017   1.514   2.076   6.534  0.5845  0.3558 -0.6291
  138OSM    H2S15018   1.616   2.108   6.565  0.1497  1.4445 -0.3190
  138OSM    C3S15019   1.431   2.214   6.521 -0.2012 -0.1120 -0.2792
  138OSM    H3S15020   1.323   2.199   6.500 -1.1032 -0.2701  3.5997
  138OSM     O315021   1.486   2.296   6.420  0.4565  0.3339 -0.3921
  138OSM    HO315022   1.541   2.242   6.363  1.6464 -2.0374  2.7412
  138OSM    C4S15023   1.424   2.289   6.653 -1.1727 -0.1217 -0.5259
  138OSM    H4S15024   1.517   2.344   6.672 -0.6379 -1.3366  0.5067
  138OSM    C5S15025   1.330   2.297   6.741  0.3441 -0.0447 -0.8835
  138OSM    H5S15026   1.240   2.239   6.718 -0.3708  0.5925  0.2179
  138OSM    C6S15027   1.349   2.376   6.874 -0.1869 -0.2400  0.7130
  138OSM    H6S15028   1.292   2.471   6.871  0.2082 -0.0295 -0.7719
  138OSM    H6T15029   1.454   2.408   6.889 -0.2017 -0.2571  0.8576
  138OSM    C7S15030   1.302   2.314   7.007 -0.1153 -0.6121  0.7789
  138OSM    H7S15031   1.384   2.242   7.026 -0.6805 -1.0758  1.5036
  138OSM    H7T15032   1.199   2.274   6.994 -1.0828  2.4175 -2.5237
  138OSM    C8S15033   1.306   2.423   7.126  1.3255  0.7761  0.1830
  138OSM    H8S15034   1.226   2.499   7.111  0.8802  0.1703 -0.6393
  138OSM    H8T15035   1.398   2.485   7.132  1.1016  1.0146  1.2850
  138OSM    C9S15036   1.286   2.357   7.264  0.3036 -0.4832 -0.1354
  138OSM    H9S15037   1.363   2.276   7.267 -0.9022 -1.7538 -1.6454
  138OSM    H9T15038   1.188   2.304   7.271 -1.0115  1.9707  1.4946
  138OSM   C10S15039   1.313   2.459   7.376 -0.2655 -0.1025  0.4217
  138OSM   H10S15040   1.255   2.551   7.354 -0.6435 -0.6584 -1.0402
  138OSM   H10T15041   1.423   2.474   7.369  0.0063 -2.1249 -0.5130
  138OSM   C11S15042   1.272   2.421   7.511  0.4359  0.2228 -0.4569
  138OSM   H11S15043   1.333   2.334   7.544 -0.1249  0.2726  0.7638
  138OSM   H11T15044   1.165   2.394   7.519  0.8435 -1.5664 -0.7489
  138OSM   C12S15045   1.313   2.532   7.603 -0.1502  0.3658 -0.5898
  138OSM   H12S15046   1.260   2.623   7.566  1.5331  0.3037 -3.4438
  138OSM   H12T15047   1.422   2.551   7.592  0.3403 -2.4634 -1.2818
  138OSM   C13S15048   1.272   2.505   7.748 -0.2860 -0.2817  0.3679
  138OSM   H13S15049   1.321   2.409   7.776 -1.3046 -1.1975 -0.9142
  138OSM   H13T15050   1.163   2.491   7.766  0.1004 -2.0552  1.5766
  138OSM   C14S15051   1.321   2.608   7.847  0.1799 -0.2892  0.4485
  138OSM   H14S15052   1.269   2.702   7.817 -0.1032 -0.5048  0.2566
  138OSM   H14T15053   1.429   2.631   7.835  0.2731  0.0804  1.8601
  138OSM   C15S15054   1.274   2.559   7.980 -0.6120  0.4201 -0.7211
  138OSM   H15S15055   1.318   2.458   7.996 -1.4315 -0.1833 -2.1124
  138OSM   H15T15056   1.163   2.552   7.982 -0.5831 -0.2631 -1.3221
  138OSM   C16S15057   1.303   2.652   8.094  0.0240 -0.3378  0.1883
  138OSM   H16S15058   1.412   2.671   8.089  0.5888 -3.3870 -3.4168
  138OSM   H16T15059   1.272   2.604   8.190 -1.4202  0.2426  0.0307
  138OSM   C17S15060   1.233   2.792   8.076  0.2024 -0.0784  0.6718
  138OSM   H17S15061   1.127   2.765   8.057  0.6224 -2.0831  0.8603
  138OSM   H17T15062   1.281   2.841   7.989  0.5179 -0.4391  0.6371
  138OSM   C18S15063   1.243   2.869   8.209  0.5455  0.5271 -0.4673
  138OSM   H18S15064   1.345   2.877   8.254  0.1241  0.5839  0.5032
  138OSM   H18T15065   1.189   2.810   8.286  3.0134 -3.2315 -1.3527
  138OSM   H18U15066   1.191   2.967   8.196  2.1412  1.3676 -0.8504
  138OSM    C1F15067   1.536   1.875   6.681  0.5823  0.6770  0.1228
  138OSM     OF15068   1.650   1.848   6.643  0.2448 -0.3836 -0.2706
  138OSM    C2F15069   1.448   1.783   6.756  0.0134 -0.3868  0.1887
  138OSM    H2F15070   1.450   1.680   6.716  1.6356 -0.0731 -0.6444
  138OSM    H2G15071   1.345   1.826   6.757  0.4280  0.6545  0.1922
  138OSM    C3F15072   1.501   1.773   6.905  0.0359 -1.0356 -0.8073
  138OSM    H3F15073   1.610   1.757   6.891 -0.0261 -2.0585 -0.2692
  138OSM    H3G15074   1.443   1.689   6.951 -1.2586 -0.4962 -1.3961
  138OSM    C4F15075   1.475   1.892   6.994 -0.0576  0.2015 -0.5410
  138OSM    H4F15076   1.372   1.929   6.977  0.4218  2.0015  0.2592
  138OSM    H4G15077   1.541   1.968   6.947 -0.0529  0.8563  0.5114
  138OSM    C5F15078   1.500   1.864   7.144  0.1760  0.2119  0.1814
  138OSM    H5F15079   1.608   1.838   7.155  0.3440  1.1907  0.9532
  138OSM    H5G15080   1.445   1.771   7.171 -0.4651  0.3567 -0.5944
  138OSM    C6F15081   1.459   1.978   7.231 -0.4693  0.1347 -0.4138
  138OSM    H6F15082   1.349   1.991   7.241 -0.2396  0.8390  1.5336
  138OSM    H6G15083   1.488   2.080   7.197 -0.5820  0.5512  0.7007
  138OSM    C7F15084   1.493   1.963   7.386  0.4071 -0.2614  0.0498
  138OSM    H7F15085   1.604   1.958   7.389  0.5223  0.6912 -1.4305
  138OSM    H7G15086   1.448   1.867   7.417  2.0915 -1.0127  0.2450
  138OSM    C8F15087   1.427   2.088   7.455 -0.6588  0.5381  0.0089
  138OSM    H8F15088   1.321   2.091   7.421  0.2874 -0.5125 -3.4583
  138OSM    H8G15089   1.485   2.179   7.428  1.1405 -0.1219  1.5050
  138OSM    C9F15090   1.446   2.061   7.606 -0.0029  0.6213 -0.4588
  138OSM    H9F15091   1.374   1.988   7.644  0.8396  0.7133  1.4291
  138OSM   C10F15092   1.526   2.125   7.691 -0.1372 -0.5250 -0.0280
  138OSM   H10F15093   1.520   2.092   7.795  2.0915 -1.4933 -0.1477
  138OSM   C11F15094   1.623   2.237   7.670  0.0164  0.5097 -0.1770
  138OSM   H11F15095   1.602   2.313   7.748  0.6403 -0.0238  0.5143
  138OSM   H11G15096   1.611   2.292   7.574 -2.2828  0.7379  0.1854
  138OSM   C12F15097   1.771   2.190   7.673  0.1831 -0.3515 -0.3029
  138OSM   H12F15098   1.802   2.121   7.755  0.6793  0.6042  0.3254
  138OSM   H12G15099   1.820   2.288   7.688 -1.1054  0.3294 -0.4662
  138OSM   C13F15100   1.815   2.126   7.538  0.8950 -0.0687  0.3593
  138OSM   H13F15101   1.774   2.184   7.452 -0.4480 -1.9728 -0.3535
  138OSM   H13G15102   1.777   2.022   7.539 -1.6129  0.7454 -0.9022
  138OSM   C14F15103   1.960   2.125   7.513 -0.3399  0.9652  0.4236
  138OSM   H14F15104   2.008   2.099   7.610  0.3584 -2.3075 -0.6618
  138OSM   H14G15105   2.006   2.219   7.476  1.3119  0.3318  0.7633
  138OSM   C15F15106   2.008   2.007   7.424 -0.6815  0.1246  0.0922
  138OSM   H15F15107   1.954   2.030   7.329 -2.0314  3.7491  1.5856
  138OSM   H15G15108   1.989   1.903   7.458 -0.7237  0.0596 -0.1281
  138OSM   C16F15109   2.158   2.016   7.376 -0.2617 -0.4772 -0.3772
  138OSM   H16F15110   2.239   2.009   7.451  1.5038  0.0115 -2.1427
  138OSM   H16G15111   2.168   2.114   7.324 -0.2414  0.2348  0.9350
  138OSM   C17F15112   2.179   1.915   7.260 -0.1827 -0.0858  0.2759
  138OSM   H17F15113   2.152   1.811   7.285 -1.3977  0.0781 -0.2571
  138OSM   H17G15114   2.287   1.914   7.233  0.1678 -0.7139  1.6508
  138OSM   C18F15115   2.112   1.968   7.133 -0.1690  0.4712 -0.1368
  138OSM   H18F15116   2.155   2.066   7.102 -2.9147  2.6225  2.3506
  138OSM   H18G15117   2.004   1.986   7.150 -0.0848  2.2164 -1.1660
  138OSM   H18H15118   2.121   1.889   7.055 -0.3504  0.9897 -0.6986
  139OSM      N15119   1.225   2.453   6.218 -0.2646  0.2418 -0.3927
  139OSM    C1515120   1.108   2.500   6.140 -0.1769  0.0488  0.6391
  139OSM   H15A15121   1.136   2.511   6.037  1.1099  1.2442  1.0768
  139OSM   H15B15122   1.083   2.599   6.176 -0.3048  0.9849 -1.8703
  139OSM   H15C15123   1.021   2.442   6.165 -1.1413  1.3541  0.3920
  139OSM    C1415124   1.263   2.318   6.166 -0.0457  0.5000 -0.4230
  139OSM   H14A15125   1.309   2.318   6.068 -2.0399 -2.5610 -1.4960
  139OSM   H14B15126   1.176   2.258   6.145 -1.8354  3.3439 -1.6153
  139OSM   H14C15127   1.340   2.275   6.229 -0.7830  1.5098  1.2210
  139OSM    C1315128   1.338   2.552   6.194  0.8755  0.4495 -0.0668
  139OSM   H13A15129   1.433   2.507   6.220  1.3777  1.6183  0.1839
  139OSM   H13B15130   1.322   2.646   6.245 -0.2351  0.4102 -0.3235
  139OSM   H13C15131   1.354   2.584   6.093  0.2000  1.3106  0.0930
  139OSM    C1215132   1.192   2.440   6.366  0.1336 -0.6159 -0.4635
  139OSM   H12A15133   1.162   2.536   6.407 -0.4571 -0.8059 -0.4490
  139OSM   H12B15134   1.276   2.408   6.425 -1.6092 -1.2623  1.8276
  139OSM    C1115135   1.078   2.337   6.396  0.1908  0.8009  0.0780
  139OSM   H11A15136   1.072   2.343   6.507  0.6368 -0.7929  0.2214
  139OSM   H11B15137   1.130   2.244   6.363 -1.0371 -0.2599  1.0115
  139OSM      P15138   0.850   2.235   6.336 -0.4130  0.1748 -0.1837
  139OSM    O1315139   0.726   2.276   6.271 -0.0347 -0.2700  0.3696
  139OSM    O1415140   0.921   2.112   6.286 -0.2857 -0.3114  0.4209
  139OSM    O1115141   0.818   2.220   6.491  0.5933 -0.8559  0.1737
  139OSM    O1215142   0.954   2.357   6.333 -0.2802  0.6429 -0.2451
  139OSM    C1S15143   0.758   2.325   6.570  0.1679  0.2381  0.0779
  139OSM    H1S15144   0.655   2.353   6.538  0.0572  0.6053  0.7459
  139OSM    H1T15145   0.817   2.419   6.572  2.0298 -0.8768  0.1408
  139OSM     NF15146   0.675   2.382   6.794 -0.6329  0.2612 -0.0822
  139OSM    HNF15147   0.729   2.456   6.834  0.4903  1.1473 -2.9879
  139OSM    C2S15148   0.751   2.279   6.721 -0.4141  0.1490 -0.3623
  139OSM    H2S15149   0.690   2.187   6.727 -2.0796  1.3098  2.1476
  139OSM    C3S15150   0.906   2.248   6.769 -0.0209 -0.4485 -0.4326
  139OSM    H3S15151   0.965   2.341   6.756 -1.3430  0.2187 -2.0375
  139OSM     O315152   0.979   2.152   6.691 -0.1248 -0.1204  1.3724
  139OSM    HO315153   0.924   2.158   6.613 -1.4491 -0.3300  2.2536
  139OSM    C4S15154   0.898   2.206   6.920 -0.6067 -0.6372 -0.0712
  139OSM    H4S15155   0.911   2.284   6.996 -0.7535 -0.0247 -0.6744
  139OSM    C5S15156   0.908   2.082   6.968 -0.5030  0.1948  0.1839
  139OSM    H5S15157   0.906   1.998   6.897 -0.4066 -0.0919  0.5173
  139OSM    C6S15158   0.907   2.041   7.111 -0.6139  0.2838 -0.5826
  139OSM    H6S15159   0.842   1.951   7.119  1.5204 -1.2537  0.3858
  139OSM    H6T15160   0.866   2.119   7.179  0.3595 -0.8385  1.3952
  139OSM    C7S15161   1.044   1.992   7.158 -0.4392  0.0315 -1.0551
  139OSM    H7S15162   1.107   2.076   7.193  0.7231 -0.8458 -0.9818
  139OSM    H7T15163   1.102   1.937   7.081  2.5644 -1.1555  1.8051
  139OSM    C8S15164   1.028   1.911   7.288 -0.7085 -0.2370 -0.0920
  139OSM    H8S15165   1.126   1.873   7.324 -0.3685 -2.7719 -3.1922
  139OSM    H8T15166   0.967   1.822   7.263 -2.9134  0.0017  3.7310
  139OSM    C9S15167   0.943   1.981   7.388 -0.6896 -0.4046 -0.7470
  139OSM    H9S15168   0.839   2.000   7.352 -0.8715 -0.2773 -0.1594
  139OSM    H9T15169   0.983   2.084   7.393 -3.1109  0.5942 -0.2728
  139OSM   C10S15170   0.931   1.919   7.534 -0.0815 -0.0710  0.0029
  139OSM   H10S15171   0.942   1.809   7.524  1.3506  0.0773 -0.2850
  139OSM   H10T15172   0.832   1.951   7.573 -0.2832 -2.2173  1.3713
  139OSM   C11S15173   1.040   1.972   7.623  0.1522  0.1051  0.2017
  139OSM   H11S15174   1.042   2.083   7.617 -1.4647  0.0964 -1.8675
  139OSM   H11T15175   1.139   1.934   7.591  0.1347  1.2674 -1.3613
  139OSM   C12S15176   1.007   1.942   7.770  0.5150 -0.0105  0.0113
  139OSM   H12S15177   1.006   1.835   7.798 -4.1808 -0.0229  0.5875
  139OSM   H12T15178   0.906   1.987   7.784  1.0485  1.4230 -0.5377
  139OSM   C13S15179   1.097   2.017   7.867  0.1808  0.2275  0.3664
  139OSM   H13S15180   1.118   2.119   7.829  1.8963 -0.4990 -0.7228
  139OSM   H13T15181   1.194   1.964   7.869 -1.9327 -4.0788  0.0425
  139OSM   C14S15182   1.025   2.026   8.001 -0.4877  0.2642  0.0604
  139OSM   H14S15183   0.975   1.936   8.041  0.3901 -0.3025 -0.0864
  139OSM   H14T15184   0.945   2.101   7.984 -1.4290 -0.9702 -1.0915
  139OSM   C15S15185   1.127   2.082   8.111  1.4829  0.4979 -0.3538
  139OSM   H15S15186   1.167   2.182   8.087  0.4629  0.6244 -1.6721
  139OSM   H15T15187   1.217   2.017   8.110  0.4989 -0.9125 -1.0041
  139OSM   C16S15188   1.075   2.085   8.261  0.4832 -0.2019  0.6522
  139OSM   H16S15189   1.067   1.983   8.303 -0.8727 -1.2337 -1.9520
  139OSM   H16T15190   0.969   2.117   8.261  0.2216 -0.8951 -1.9401
  139OSM   C17S15191   1.159   2.178   8.346  0.2870 -1.0681 -0.6729
  139OSM   H17S15192   1.267   2.176   8.323  0.3528 -0.9402 -0.3794
  139OSM   H17T15193   1.142   2.129   8.444  1.7677 -0.7910 -0.2628
  139OSM   C18S15194   1.122   2.327   8.329  0.6820  0.0901 -0.7969
  139OSM   H18S15195   1.191   2.402   8.372  1.2463 -0.6392 -0.3950
  139OSM   H18T15196   1.027   2.341   8.387  1.9657 -2.1092  2.1027
  139OSM   H18U15197   1.097   2.350   8.224 -0.7158  2.4701 -0.0124
  139OSM    C1F15198   0.541   2.377   6.804  0.0383 -0.4291 -0.3718
  139OSM     OF15199   0.480   2.285   6.751  0.5491 -0.4547 -0.2034
  139OSM    C2F15200   0.462   2.483   6.865  0.4604 -0.0303 -0.9296
  139OSM    H2F15201   0.429   2.564   6.797 -0.2066 -0.6549 -1.3625
  139OSM    H2G15202   0.515   2.538   6.946 -0.6607  0.8598 -0.7916
  139OSM    C3F15203   0.328   2.437   6.941  0.0016  0.6584  0.1687
  139OSM    H3F15204   0.359   2.350   7.002  0.5394 -2.2661 -3.9071
  139OSM    H3G15205   0.265   2.400   6.857 -0.0201 -2.0418  1.2746
  139OSM    C4F15206   0.270   2.554   7.022 -0.0112 -0.1743 -0.0584
  139OSM    H4F15207   0.208   2.622   6.960  2.2559  2.0050 -0.0855
  139OSM    H4G15208   0.351   2.618   7.064  0.5315 -0.1531 -1.1012
  139OSM    C5F15209   0.188   2.507   7.148 -0.1867 -0.0960  0.8025
  139OSM    H5F15210   0.252   2.447   7.217 -1.4816 -2.1680  0.2698
  139OSM    H5G15211   0.105   2.443   7.111 -0.6475  1.2452 -0.6151
  139OSM    C6F15212   0.108   2.622   7.204 -0.1136 -0.4008  0.7475
  139OSM    H6F15213   0.030   2.651   7.130 -0.7356 -2.4765  0.5243
  139OSM    H6G15214   0.177   2.708   7.208 -0.4129 -0.1911  1.9679
  139OSM    C7F15215   0.056   2.602   7.344 -0.1671 -0.3465 -0.5112
  139OSM    H7F15216   0.135   2.615   7.421 -1.8923  1.7424  1.0778
  139OSM    H7G15217   0.018   2.499   7.360 -0.6491  0.1434  1.9623
  139OSM    C8F15218  -0.059   2.701   7.374 -0.1182  0.1344 -0.1383
  139OSM    H8F15219  -0.099   2.678   7.475  0.0809  1.0262  0.1504
  139OSM    H8G15220  -0.134   2.680   7.295  0.4656 -0.6729 -0.4904
  139OSM    C9F15221  -0.036   2.843   7.366 -0.2156 -0.0182 -0.5062
  139OSM    H9F15222   0.028   2.881   7.284  0.2926 -0.2998 -0.2432
  139OSM   C10F15223  -0.093   2.939   7.436 -0.1581 -0.3053 -0.8103
  139OSM   H10F15224  -0.059   3.043   7.426  2.7121 -0.7394  2.4954
  139OSM   C11F15225  -0.196   2.931   7.545 -0.2995 -0.1590 -0.7934
  139OSM   H11F15226  -0.158   2.970   7.642  0.4602  0.2364 -1.2386
  139OSM   H11G15227  -0.226   2.825   7.560 -0.4636 -0.1709 -1.1955
  139OSM   C12F15228  -0.319   3.014   7.496 -0.8664 -0.0185  0.8218
  139OSM   H12F15229  -0.351   2.971   7.398 -0.3643 -1.9547  1.4583
  139OSM   H12G15230  -0.303   3.123   7.494  1.0212 -0.2626  0.6458
  139OSM   C13F15231  -0.442   2.984   7.582  1.0515 -0.4382 -0.5342
  139OSM   H13F15232  -0.428   3.024   7.685 -0.3422 -0.6249 -0.2429
  139OSM   H13G15233  -0.456   2.877   7.607 -0.7025  0.0006  0.5823
  139OSM   C14F15234  -0.567   3.037   7.513 -0.7528 -0.0928  0.1373
  139OSM   H14F15235  -0.587   2.986   7.417 -1.9290 -3.2178  1.8999
  139OSM   H14G15236  -0.555   3.143   7.480 -0.6368 -0.1492 -0.0009
  139OSM   C15F15237  -0.692   3.048   7.606 -0.6089  0.2649 -0.1127
  139OSM   H15F15238  -0.777   3.101   7.558 -2.1174 -1.3241  0.6731
  139OSM   H15G15239  -0.672   3.105   7.699 -0.9998  0.7789 -0.3375
  139OSM   C16F15240  -0.760   2.907   7.621  0.1352  0.4921  0.8072
  139OSM   H16F15241  -0.708   2.836   7.690 -1.0986 -0.7300  0.5186
  139OSM   H16G15242  -0.748   2.860   7.521  0.2092 -1.0191  1.4933
  139OSM   C17F15243  -0.908   2.922   7.659  0.2127  0.4876 -0.9795
  139OSM   H17F15244  -0.967   2.995   7.599  0.4100  0.1196 -1.6255
  139OSM   H17G15245  -0.909   2.975   7.757 -0.0422  2.1280 -1.8225
  139OSM   C18F15246  -0.989   2.790   7.665 -0.5832  0.1976  0.1385
  139OSM   H18F15247  -0.950   2.709   7.731 -0.7242  0.0729  0.0684
  139OSM   H18G15248  -0.981   2.745   7.564 -1.1783 -0.4453  0.3637
  139OSM   H18H15249  -1.093   2.806   7.698 -0.3751 -0.5883  1.2367
  140OSM      N15250   1.084   3.990   6.190 -0.4458 -0.2281  0.6870
  140OSM    C1515251   1.105   3.966   6.044  0.0036  0.6926  0.3127
  140OSM   H15A15252   1.021   4.003   5.987 -0.9725 -0.2165  1.1279
  140OSM   H15B15253   1.111   3.862   6.016  0.5496  0.8000  0.0100
  140OSM   H15C15254   1.187   4.018   5.996  0.3015 -1.0206 -1.1298
  140OSM    C1415255   1.054   4.133   6.210 -0.1916 -0.3181 -0.4751
  140OSM   H14A15256   1.118   4.200   6.154 -1.8099  1.5218 -0.2170
  140OSM   H14B15257   1.067   4.154   6.316  1.2802 -0.6514 -0.5621
  140OSM   H14C15258   0.949   4.146   6.190 -0.1052 -1.2244 -1.6427
  140OSM    C1315259   0.968   3.911   6.243 -0.3367  0.2257  1.1805
  140OSM   H13A15260   0.973   3.809   6.207 -0.3166  1.0145 -1.1717
  140OSM   H13B15261   0.870   3.941   6.207 -1.7765 -3.9527  0.9654
  140OSM   H13C15262   0.958   3.919   6.350 -0.2436  0.6285  1.1599
  140OSM    C1215263   1.210   3.950   6.266 -0.3651  0.1398 -0.0440
  140OSM   H12A15264   1.298   3.995   6.220  2.0979 -2.4784  1.7518
  140OSM   H12B15265   1.210   3.842   6.266  0.0797  0.1351 -0.0728
  140OSM    C1115266   1.215   3.982   6.415  0.7420 -0.1666 -0.4511
  140OSM   H11A15267   1.183   4.086   6.437 -0.5253 -0.9171  1.4529
  140OSM   H11B15268   1.322   3.967   6.444  0.4363 -4.4182 -0.8759
  140OSM      P15269   1.180   3.746   6.511  0.6078 -0.2151 -0.3952
  140OSM    O1315270   1.079   3.673   6.592 -0.5795  0.0622 -0.2105
  140OSM    O1415271   1.208   3.686   6.382  0.3182  0.4335 -0.2116
  140OSM    O1115272   1.307   3.760   6.596  0.1765 -0.0328 -0.7085
  140OSM    O1215273   1.128   3.895   6.485 -0.5526  0.1108 -0.0926
  140OSM    C1S15274   1.311   3.765   6.743  0.4195  0.2145 -0.1349
  140OSM    H1S15275   1.231   3.698   6.781  0.3284  0.9768  1.0448
  140OSM    H1T15276   1.310   3.869   6.781  2.5517  0.2344 -0.0288
  140OSM     NF15277   1.422   3.703   6.951  0.1386  0.0069 -0.3171
  140OSM    HNF15278   1.467   3.770   7.010  0.8457 -1.8282  1.3602
  140OSM    C2S15279   1.447   3.720   6.806  0.2761  0.9324  0.0055
  140OSM    H2S15280   1.469   3.618   6.766 -1.0774 -0.1226  1.8002
  140OSM    C3S15281   1.553   3.826   6.765  0.3061  0.8048  0.3102
  140OSM    H3S15282   1.538   3.925   6.814 -0.2712  0.5849  0.5791
  140OSM     O315283   1.553   3.844   6.620  0.0847 -0.0511  0.4273
  140OSM    HO315284   1.465   3.816   6.593  1.1240 -1.9266 -1.3351
  140OSM    C4S15285   1.686   3.759   6.796  0.4494 -0.3667  0.2498
  140OSM    H4S15286   1.727   3.686   6.725 -0.8971 -0.9019 -0.0152
  140OSM    C5S15287   1.768   3.803   6.896 -0.0888  0.1995  0.6485
  140OSM    H5S15288   1.733   3.891   6.952 -0.0154  0.3958  0.3870
  140OSM    C6S15289   1.905   3.740   6.919  0.5399 -0.1619  0.2922
  140OSM    H6S15290   1.977   3.798   6.857 -1.7827  3.1514  0.4119
  140OSM    H6T15291   1.912   3.642   6.867  1.0217 -0.2946  0.5945
  140OSM    C7S15292   1.935   3.732   7.065 -0.5723  0.1957  0.2351
  140OSM    H7S15293   1.909   3.827   7.117  1.0900  0.5487  0.4829
  140OSM    H7T15294   2.042   3.725   7.092 -0.8149  1.3856  1.6460
  140OSM    C8S15295   1.853   3.617   7.138  0.0651 -0.3645 -0.4987
  140OSM    H8S15296   1.836   3.538   7.061  1.0445 -2.1846  1.0643
  140OSM    H8T15297   1.751   3.659   7.153  0.2034  1.0074 -2.8961
  140OSM    C9S15298   1.918   3.558   7.264 -0.0473  0.5477  0.0816
  140OSM    H9S15299   2.027   3.551   7.247 -0.3432 -1.7248 -1.3424
  140OSM    H9T15300   1.900   3.450   7.285 -0.7851  0.6508  0.0150
  140OSM   C10S15301   1.892   3.650   7.384  0.3327 -0.2407 -0.1899
  140OSM   H10S15302   1.782   3.661   7.399  0.1439 -1.2746 -0.7328
  140OSM   H10T15303   1.935   3.746   7.348  0.3168 -1.0664 -2.5603
  140OSM   C11S15304   1.956   3.608   7.519  0.1053 -1.2133 -0.3166
  140OSM   H11S15305   2.058   3.564   7.510  1.1321  1.1737 -1.0142
  140OSM   H11T15306   1.901   3.515   7.547 -0.3433 -1.1364 -0.9243
  140OSM   C12S15307   1.945   3.713   7.641  0.7893  0.3089  0.3644
  140OSM   H12S15308   1.838   3.720   7.667  0.0885  1.3443 -2.3763
  140OSM   H12T15309   1.976   3.810   7.596 -0.5030  0.3473 -0.4876
  140OSM   C13S15310   2.040   3.681   7.757  0.5412  0.8526  0.0425
  140OSM   H13S15311   2.129   3.632   7.711  0.2966  1.5809 -1.2481
  140OSM   H13T15312   1.983   3.607   7.817 -1.4095  2.3058  0.0880
  140OSM   C14S15313   2.084   3.798   7.831  0.3700  0.4488 -0.4220
  140OSM   H14S15314   1.999   3.861   7.865  1.4563  1.0509  1.2887
  140OSM   H14T15315   2.143   3.855   7.757 -0.6218  1.2489 -0.6218
  140OSM   C15S15316   2.169   3.753   7.945 -0.0216 -0.5123  0.5298
  140OSM   H15S15317   2.254   3.690   7.910 -1.7356 -1.8842 -1.3933
  140OSM   H15T15318   2.113   3.684   8.011 -0.2947  1.2381  2.2147
  140OSM   C16S15319   2.206   3.868   8.047 -0.0442  0.7286 -0.3501
  140OSM   H16S15320   2.115   3.920   8.084  0.6424  1.5630  0.2017
  140OSM   H16T15321   2.280   3.933   7.996  1.6539 -0.7195  0.1557
  140OSM   C17S15322   2.295   3.809   8.166 -0.0262 -0.0480  0.4885
  140OSM   H17S15323   2.336   3.893   8.226  0.9591 -0.1780  0.0016
  140OSM   H17T15324   2.381   3.762   8.115  1.3458  1.7153  1.0786
  140OSM   C18S15325   2.227   3.708   8.253 -0.5832 -0.2612 -0.3150
  140OSM   H18S15326   2.193   3.623   8.190 -1.1853  0.7004 -1.3238
  140OSM   H18T15327   2.140   3.765   8.292 -0.6949 -0.0469 -0.8750
  140OSM   H18U15328   2.290   3.680   8.340 -2.2010  0.0951  1.0229
  140OSM    C1F15329   1.338   3.615   7.003 -0.6910  0.1371 -0.5672
  140OSM     OF15330   1.310   3.519   6.934  0.1965 -1.2374 -0.2363
  140OSM    C2F15331   1.284   3.640   7.141  0.0633  0.2372  0.5928
  140OSM    H2F15332   1.299   3.748   7.163  1.0474  0.3215 -0.3965
  140OSM    H2G15333   1.342   3.577   7.211 -1.1500 -3.1443 -1.2484
  140OSM    C3F15334   1.131   3.606   7.154  0.6760  0.7826 -0.3290
  140OSM    H3F15335   1.103   3.514   7.099 -0.3958  1.7015 -1.3852
  140OSM    H3G15336   1.091   3.691   7.095  0.5282 -0.2555 -1.7767
  140OSM    C4F15337   1.074   3.622   7.292  0.3315 -0.0825 -0.1016
  140OSM    H4F15338   0.963   3.618   7.283  0.3531 -0.9067 -0.0407
  140OSM    H4G15339   1.090   3.725   7.332 -0.1106  0.4791 -1.3012
  140OSM    C5F15340   1.132   3.525   7.396  0.7674  1.1049 -0.4631
  140OSM    H5F15341   1.243   3.534   7.390  1.2927 -1.5008  2.5135
  140OSM    H5G15342   1.109   3.417   7.379  1.1468  0.8959  0.3142
  140OSM    C6F15343   1.079   3.561   7.536 -0.1205  0.0692 -0.7595
  140OSM    H6F15344   0.973   3.527   7.535 -0.7459  1.9011 -2.2581
  140OSM    H6G15345   1.081   3.671   7.548 -0.0275 -0.2549  3.9793
  140OSM    C7F15346   1.146   3.479   7.649  0.6875  0.1848  0.0211
  140OSM    H7F15347   1.255   3.465   7.632  0.4504 -1.2320 -0.4387
  140OSM    H7G15348   1.103   3.377   7.648  1.4515 -0.1870  1.5201
  140OSM    C8F15349   1.096   3.540   7.781  0.3424  0.0051  0.3636
  140OSM    H8F15350   0.989   3.518   7.804  0.5385  0.3621  1.6839
  140OSM    H8G15351   1.121   3.648   7.774  1.6240 -0.1963  1.4019
  140OSM    C9F15352   1.182   3.479   7.890 -0.2293 -0.1668 -0.0408
  140OSM    H9F15353   1.266   3.422   7.848  0.9836  0.5640  1.3157
  140OSM   C10F15354   1.184   3.499   8.023 -0.2207  0.0598  0.0427
  140OSM   H10F15355   1.269   3.465   8.084 -1.1490  0.3299  1.5275
  140OSM   C11F15356   1.087   3.575   8.106 -0.0583  0.0310 -0.5056
  140OSM   H11F15357   1.046   3.646   8.031 -0.1434  1.7413  1.0987
  140OSM   H11G15358   1.146   3.633   8.180 -0.3209  0.5065 -0.6693
  140OSM   C12F15359   0.984   3.485   8.174 -0.7149 -0.0599  0.5950
  140OSM   H12F15360   0.940   3.427   8.090 -1.8689 -0.4019  1.3990
  140OSM   H12G15361   0.901   3.549   8.212 -0.5966  0.3176  0.2190
  140OSM   C13F15362   1.038   3.390   8.277 -0.0850  0.6370 -0.4713
  140OSM   H13F15363   1.098   3.444   8.353 -0.6087  2.8170 -1.5300
  140OSM   H13G15364   1.117   3.328   8.229  1.0097  2.3155 -0.9288
  140OSM   C14F15365   0.946   3.295   8.357 -0.1880  0.0447  0.2810
  140OSM   H14F15366   0.870   3.247   8.292  0.5182 -0.7089  0.0081
  140OSM   H14G15367   0.890   3.353   8.434 -0.4492 -2.9937  2.5717
  140OSM   C15F15368   1.017   3.175   8.427  0.0048 -0.0435  0.4255
  140OSM   H15F15369   1.110   3.205   8.481 -0.8188  1.4956  1.0566
  140OSM   H15G15370   1.050   3.101   8.351 -0.8629  0.9749 -0.9940
  140OSM   C16F15371   0.950   3.101   8.537  0.9177 -0.2121 -0.5061
  140OSM   H16F15372   0.986   3.145   8.633  2.0346  2.4613 -2.0440
  140OSM   H16G15373   0.998   3.001   8.536 -1.5409 -1.4589 -1.4817
  140OSM   C17F15374   0.798   3.092   8.537 -0.1342  0.2634 -0.5515
  140OSM   H17F15375   0.774   3.034   8.445 -0.2067  0.6086 -0.7521
  140OSM   H17G15376   0.751   3.193   8.537  1.5565  1.1003 -0.9798
  140OSM   C18F15377   0.741   3.018   8.662  0.1374 -0.0790 -0.4994
  140OSM   H18F15378   0.790   2.920   8.675  0.2278 -0.0708 -0.7663
  140OSM   H18G15379   0.635   3.003   8.631 -0.2690 -0.2554  0.9014
  140OSM   H18H15380   0.752   3.085   8.750 -2.2516  1.0611 -0.9829
  141OSM      N15381   0.586   6.464   6.544 -0.1970  0.0604  0.0936
  141OSM    C1515382   0.439   6.479   6.519 -0.0023  0.0777 -0.3937
  141OSM   H15A15383   0.417   6.584   6.506  0.1163 -0.0019 -1.3525
  141OSM   H15B15384   0.386   6.443   6.606  2.0072  1.2792  1.4347
  141OSM   H15C15385   0.400   6.427   6.432 -0.7716 -2.5834  1.4297
  141OSM    C1415386   0.656   6.544   6.446  0.1048  0.0374 -0.1613
  141OSM   H14A15387   0.621   6.516   6.348 -0.4005  0.6653 -0.1726
  141OSM   H14B15388   0.763   6.537   6.447  0.0875 -0.1938  0.4978
  141OSM   H14C15389   0.640   6.651   6.456 -1.1202 -0.2262  1.0317
  141OSM    C1315390   0.621   6.510   6.689  0.1809  0.6796 -0.3812
  141OSM   H13A15391   0.563   6.457   6.763  1.6411 -0.6504 -0.1420
  141OSM   H13B15392   0.610   6.618   6.694  0.2090  0.7376 -1.3992
  141OSM   H13C15393   0.723   6.488   6.719  0.1972  1.9437  0.5899
  141OSM    C1215394   0.634   6.315   6.534  0.4317  0.2814 -0.2179
  141OSM   H12A15395   0.581   6.269   6.616  0.0452  2.4818  0.8348
  141OSM   H12B15396   0.741   6.320   6.546  0.4587  0.5997 -0.5761
  141OSM    C1115397   0.599   6.233   6.407  0.4106  0.4352 -0.0057
  141OSM   H11A15398   0.654   6.137   6.403 -1.3065 -0.7403  2.2659
  141OSM   H11B15399   0.635   6.292   6.320 -0.3269 -0.1253 -0.7107
  141OSM      P15400   0.386   6.104   6.455  0.0612 -0.1245 -0.2323
  141OSM    O1315401   0.240   6.108   6.434 -0.4072  0.4849  0.4332
  141OSM    O1415402   0.442   5.974   6.404 -0.1144  0.4605 -0.1479
  141OSM    O1115403   0.406   6.123   6.614 -0.0307 -0.3885  0.5127
  141OSM    O1215404   0.461   6.228   6.384 -0.3411  0.0723 -0.3009
  141OSM    C1S15405   0.507   6.060   6.691  0.4776 -0.4238  1.1050
  141OSM    H1S15406   0.601   6.119   6.686 -0.2873  0.7048 -0.5758
  141OSM    H1T15407   0.528   5.956   6.657  1.5111  0.1648 -0.1575
  141OSM     NF15408   0.570   6.019   6.932 -0.3507  0.4223  0.3236
  141OSM    HNF15409   0.558   5.942   6.994  2.5143 -0.4917 -0.1258
  141OSM    C2S15410   0.462   6.056   6.837  0.7644  0.4050 -1.0247
  141OSM    H2S15411   0.433   6.162   6.855  0.8009  0.0144  1.8767
  141OSM    C3S15412   0.333   5.963   6.862 -0.0305 -0.0787 -0.0008
  141OSM    H3S15413   0.373   5.860   6.852 -0.6666 -0.1762 -2.2671
  141OSM     O315414   0.228   5.991   6.767 -0.1618  0.7298  0.1660
  141OSM    HO315415   0.263   6.049   6.699  0.8144  0.2708  0.2719
  141OSM    C4S15416   0.270   5.964   7.001  0.0633 -0.3966 -0.3158
  141OSM    H4S15417   0.237   6.064   7.033  0.7691 -0.0011 -0.7909
  141OSM    C5S15418   0.288   5.864   7.093 -1.1105 -0.4016  0.0639
  141OSM    H5S15419   0.325   5.763   7.069  1.8283  0.7968 -0.8645
  141OSM    C6S15420   0.239   5.880   7.236 -0.2860  0.3743 -0.0184
  141OSM    H6S15421   0.172   5.795   7.260  0.8802 -0.1626  1.4128
  141OSM    H6T15422   0.188   5.978   7.252 -1.1748  0.0636 -0.8524
  141OSM    C7S15423   0.352   5.859   7.332  0.1482  0.2298 -0.3789
  141OSM    H7S15424   0.425   5.938   7.304  1.4542 -0.9224 -0.3386
  141OSM    H7T15425   0.411   5.766   7.319  0.4857  0.4522 -0.4484
  141OSM    C8S15426   0.292   5.857   7.469  0.2869  0.1921 -1.1295
  141OSM    H8S15427   0.219   5.773   7.472 -0.6324  0.9636  1.4899
  141OSM    H8T15428   0.229   5.947   7.487  0.7995  0.6727 -1.6798
  141OSM    C9S15429   0.410   5.851   7.571 -0.0468 -0.1153  0.7696
  141OSM    H9S15430   0.475   5.942   7.567 -1.0864  0.6897  1.6990
  141OSM    H9T15431   0.461   5.756   7.545 -0.8346  0.1557 -2.0820
  141OSM   C10S15432   0.350   5.843   7.712 -0.1968  0.9923 -0.0854
  141OSM   H10S15433   0.275   5.761   7.713 -0.2945  1.0840  0.8522
  141OSM   H10T15434   0.291   5.933   7.736 -1.5932 -0.2353  1.3062
  141OSM   C11S15435   0.459   5.817   7.814 -0.6315 -1.0189  0.1163
  141OSM   H11S15436   0.536   5.897   7.808 -0.1910 -1.5181 -1.7169
  141OSM   H11T15437   0.507   5.718   7.803 -0.2994 -1.3108  3.3171
  141OSM   C12S15438   0.395   5.822   7.956  0.7028 -0.0242 -0.6049
  141OSM   H12S15439   0.325   5.736   7.962  2.2395 -1.3796 -1.5788
  141OSM   H12T15440   0.343   5.920   7.970 -2.0415 -1.2253 -1.5757
  141OSM   C13S15441   0.504   5.820   8.067  0.3526 -0.0149  0.6558
  141OSM   H13S15442   0.565   5.913   8.064 -0.4990  0.5518  0.5056
  141OSM   H13T15443   0.559   5.730   8.031  0.5670  0.4488 -0.2113
  141OSM   C14S15444   0.463   5.805   8.214 -0.4011 -0.3269 -0.2917
  141OSM   H14S15445   0.399   5.717   8.236  0.3666 -0.3945  1.9416
  141OSM   H14T15446   0.406   5.897   8.240  2.1625  0.8984  1.5153
  141OSM   C15S15447   0.577   5.798   8.320 -0.2061  0.2672  0.4840
  141OSM   H15S15448   0.640   5.888   8.306 -1.5185  1.4762  1.8892
  141OSM   H15T15449   0.631   5.702   8.311 -0.1894  0.2971  0.2792
  141OSM   C16S15450   0.531   5.802   8.467  0.6293  0.1225  0.1790
  141OSM   H16S15451   0.433   5.750   8.478  1.7240 -1.9072  0.9474
  141OSM   H16T15452   0.517   5.908   8.495 -1.0713  0.0091 -0.1025
  141OSM   C17S15453   0.639   5.752   8.557  0.0594 -0.2894 -0.6026
  141OSM   H17S15454   0.738   5.797   8.537 -0.2297 -0.2912 -2.1381
  141OSM   H17T15455   0.638   5.643   8.535  0.3341 -0.3088 -0.5151
  141OSM   C18S15456   0.614   5.775   8.711  0.4518 -0.4454  0.2440
  141OSM   H18S15457   0.553   5.687   8.742  0.1022 -0.2557  0.0993
  141OSM   H18T15458   0.571   5.875   8.731  1.2263 -0.0628  0.0477
  141OSM   H18U15459   0.720   5.771   8.745  1.4001  0.5978 -2.3005
  141OSM    C1F15460   0.682   6.085   6.965  0.7386  0.1596 -0.5902
  141OSM     OF15461   0.711   6.183   6.899 -0.7173 -0.2001  0.7282
  141OSM    C2F15462   0.770   6.043   7.084  0.2775 -0.3700 -0.0814
  141OSM    H2F15463   0.870   6.069   7.045  0.3916 -1.8886 -0.8418
  141OSM    H2G15464   0.769   5.933   7.096  2.3722 -0.6830 -2.0257
  141OSM    C3F15465   0.735   6.121   7.210 -0.1077  0.5342 -0.0746
  141OSM    H3F15466   0.633   6.088   7.240 -1.6428  4.4910 -0.3348
  141OSM    H3G15467   0.724   6.231   7.196 -0.8503  0.5825  0.7927
  141OSM    C4F15468   0.841   6.102   7.324 -0.6432 -0.1074  0.3629
  141OSM    H4F15469   0.939   6.150   7.304 -1.9666  2.9860  0.6392
  141OSM    H4G15470   0.853   5.992   7.334 -0.2411  0.0910  2.6362
  141OSM    C5F15471   0.798   6.155   7.465  0.0677 -0.0153 -0.0284
  141OSM    H5F15472   0.707   6.101   7.501 -0.3708  0.4652 -0.3959
  141OSM    H5G15473   0.782   6.265   7.457  0.1762  0.0926  1.0636
  141OSM    C6F15474   0.914   6.147   7.563  0.2534  0.2648 -0.1262
  141OSM    H6F15475   0.994   6.212   7.523  0.8045 -0.1878  0.2229
  141OSM    H6G15476   0.944   6.040   7.571 -1.2075 -0.1385  0.3038
  141OSM    C7F15477   0.862   6.205   7.697 -0.2658  0.0686  0.5734
  141OSM    H7F15478   0.774   6.142   7.722  0.0440 -1.2687 -1.4853
  141OSM    H7G15479   0.829   6.310   7.682 -1.6675 -0.4757 -0.3658
  141OSM    C8F15480   0.965   6.193   7.815  0.2263  0.1417 -0.4636
  141OSM    H8F15481   0.946   6.270   7.894 -2.0322 -0.4448 -0.3644
  141OSM    H8G15482   1.057   6.235   7.768  1.2873 -0.1213  1.2886
  141OSM    C9F15483   0.988   6.060   7.882 -0.6305 -0.0737 -0.3273
  141OSM    H9F15484   1.041   5.979   7.829  0.1914  0.5727 -0.5231
  141OSM   C10F15485   0.952   6.024   8.008 -0.0267 -0.6142  0.2079
  141OSM   H10F15486   0.975   5.921   8.038  2.5104  0.4622  2.3791
  141OSM   C11F15487   0.874   6.110   8.107  0.3446  0.3496 -0.1858
  141OSM   H11F15488   0.767   6.081   8.098  0.0710  1.1428  0.4030
  141OSM   H11G15489   0.890   6.219   8.092  1.1285  0.6557  2.4134
  141OSM   C12F15490   0.911   6.072   8.252  0.1097 -0.5169 -1.1356
  141OSM   H12F15491   1.013   6.105   8.279 -0.0682 -2.5661  2.7272
  141OSM   H12G15492   0.908   5.961   8.262  1.4386 -0.3584  2.7651
  141OSM   C13F15493   0.822   6.134   8.359 -0.3833 -0.5389  0.5614
  141OSM   H13F15494   0.725   6.080   8.369 -0.3735 -0.3727  1.7124
  141OSM   H13G15495   0.791   6.234   8.322 -2.5849 -1.5070 -0.3908
  141OSM   C14F15496   0.895   6.158   8.493  0.3253  0.7671  0.0956
  141OSM   H14F15497   0.981   6.220   8.459 -0.6926  1.0103 -2.2050
  141OSM   H14G15498   0.926   6.060   8.535  2.3391  1.5543  0.5682
  141OSM   C15F15499   0.817   6.241   8.596 -0.0369 -0.2487  0.3989
  141OSM   H15F15500   0.769   6.328   8.545  1.5427  1.1790  1.2586
  141OSM   H15G15501   0.899   6.289   8.652 -1.6317  3.5788 -0.2376
  141OSM   C16F15502   0.723   6.153   8.680  0.5976  0.5125  0.0173
  141OSM   H16F15503   0.792   6.120   8.760 -0.0791  1.0745  0.8515
  141OSM   H16G15504   0.674   6.072   8.621 -0.8339  0.9652  0.5293
  141OSM   C17F15505   0.611   6.234   8.755  0.0709  0.4354  0.5019
  141OSM   H17F15506   0.536   6.165   8.798 -0.7475 -0.4624 -2.1748
  141OSM   H17G15507   0.550   6.286   8.678  0.5749 -2.0102 -1.6747
  141OSM   C18F15508   0.671   6.337   8.856 -0.2641 -0.3309 -0.2367
  141OSM   H18F15509   0.601   6.380   8.930  0.3156  2.6135 -1.2941
  141OSM   H18G15510   0.712   6.423   8.799  0.1683 -2.1377 -2.8416
  141OSM   H18H15511   0.760   6.289   8.904 -0.6565 -2.0487 -1.1442
  142OSM      N15512   0.143   1.418   6.000  0.2459 -0.2548  0.4131
  142OSM    C1515513   0.136   1.328   5.875  0.6025 -0.3518 -0.1116
  142OSM   H15A15514   0.171   1.227   5.895 -1.1095 -1.0030 -0.2582
  142OSM   H15B15515   0.191   1.367   5.791  2.0030  0.8280  1.2849
  142OSM   H15C15516   0.032   1.313   5.853  0.1545  0.9971  0.9312
  142OSM    C1415517   0.288   1.425   6.046 -0.1631 -0.5193  0.6672
  142OSM   H14A15518   0.302   1.478   6.139  2.5328 -0.8804  0.5364
  142OSM   H14B15519   0.356   1.481   5.983 -0.0848 -0.8424  0.4597
  142OSM   H14C15520   0.330   1.327   6.066  2.9841  0.6484  0.2543
  142OSM    C1315521   0.094   1.556   5.964 -0.1439  0.5381 -0.8314
  142OSM   H13A15522  -0.007   1.554   5.926 -1.3959  0.3836  2.2332
  142OSM   H13B15523   0.166   1.597   5.894  0.7538  1.3005  0.4993
  142OSM   H13C15524   0.087   1.613   6.055 -1.5761 -2.1344  0.8436
  142OSM    C1215525   0.060   1.349   6.106  0.4387  0.2520  0.0031
  142OSM   H12A15526   0.105   1.254   6.129  0.4043  0.5645  1.4481
  142OSM   H12B15527  -0.037   1.328   6.064  0.8397 -1.8779  0.0671
  142OSM    C1115528   0.050   1.404   6.253 -0.0538 -0.2024  0.2120
  142OSM   H11A15529  -0.018   1.345   6.319  0.9905  0.2732  1.7738
  142OSM   H11B15530  -0.017   1.493   6.247  1.2934  0.8150 -0.0553
  142OSM      P15531   0.248   1.314   6.400 -0.4314  0.1346  0.0130
  142OSM    O1315532   0.291   1.193   6.323  0.2623  0.5012  0.1802
  142OSM    O1415533   0.357   1.367   6.487  0.4887  0.2133 -0.4251
  142OSM    O1115534   0.128   1.280   6.491  0.0334  0.3532 -0.0459
  142OSM    O1215535   0.179   1.427   6.315 -0.0951  0.2253 -0.3496
  142OSM    C1S15536   0.126   1.178   6.589  0.0578  0.2659 -0.0682
  142OSM    H1S15537   0.209   1.106   6.585 -1.3283 -1.5324  1.5246
  142OSM    H1T15538   0.045   1.106   6.565  0.8709 -0.1892 -1.5509
  142OSM     NF15539   0.128   1.118   6.838  0.1151 -0.0493  0.2385
  142OSM    HNF15540   0.051   1.086   6.892 -1.7482  1.3750 -1.4405
  142OSM    C2S15541   0.103   1.221   6.736  1.2069 -0.5240 -0.5546
  142OSM    H2S15542   0.176   1.303   6.750  1.3535 -0.7163 -0.1860
  142OSM    C3S15543  -0.050   1.276   6.747 -0.0665  0.2737 -0.3153
  142OSM    H3S15544  -0.105   1.180   6.735  1.3612 -0.4683 -1.1864
  142OSM     O315545  -0.093   1.355   6.636  0.1946 -0.1343 -0.0672
  142OSM    HO315546  -0.010   1.375   6.593  0.3275 -0.8763 -0.1745
  142OSM    C4S15547  -0.084   1.344   6.877 -0.1053 -1.0144 -0.4597
  142OSM    H4S15548  -0.131   1.281   6.954 -0.4373 -0.9589 -0.6172
  142OSM    C5S15549  -0.043   1.469   6.908  0.4345  0.0891  0.7402
  142OSM    H5S15550   0.022   1.532   6.846  1.3315 -0.6487  0.9117
  142OSM    C6S15551  -0.072   1.534   7.042  0.2392  0.1597  0.0823
  142OSM    H6S15552  -0.167   1.591   7.032  0.5468  0.4100 -1.7885
  142OSM    H6T15553   0.003   1.613   7.064 -1.5510  1.4031  2.0077
  142OSM    C7S15554  -0.072   1.446   7.165  0.3782 -0.6437 -0.1145
  142OSM    H7S15555   0.028   1.398   7.165  0.6265 -0.1718 -1.3598
  142OSM    H7T15556  -0.158   1.376   7.158 -0.6424  0.6482 -1.2088
  142OSM    C8S15557  -0.082   1.520   7.301  0.2126 -0.1785 -0.4926
  142OSM    H8S15558  -0.178   1.572   7.320  0.7320 -0.4134  3.6503
  142OSM    H8T15559  -0.006   1.599   7.283 -0.9822  0.8158 -1.3704
  142OSM    C9S15560  -0.052   1.431   7.429 -0.1136 -0.0457  0.3849
  142OSM    H9S15561   0.037   1.372   7.400  0.4850  1.7947 -1.8058
  142OSM    H9T15562  -0.143   1.368   7.441 -1.5515  1.6933 -0.7549
  142OSM   C10S15563  -0.035   1.521   7.555  0.5359 -0.3645  0.4505
  142OSM   H10S15564  -0.133   1.560   7.587  0.8270  0.3000  0.5416
  142OSM   H10T15565   0.026   1.612   7.538 -1.5966  1.4832  2.1172
  142OSM   C11S15566   0.022   1.434   7.662  0.8102 -0.2843  0.7478
  142OSM   H11S15567   0.121   1.399   7.624  1.0262  1.1800 -0.0908
  142OSM   H11T15568  -0.034   1.340   7.684  0.8922  0.3657  4.2339
  142OSM   C12S15569   0.039   1.508   7.791 -1.4904  0.1532 -0.1909
  142OSM   H12S15570   0.054   1.617   7.781  0.6210 -0.3048 -3.5760
  142OSM   H12T15571   0.134   1.470   7.837 -1.3091  0.5379 -0.2465
  142OSM   C13S15572  -0.072   1.477   7.888  0.0913 -0.7821 -0.4634
  142OSM   H13S15573  -0.083   1.368   7.906  1.8551 -1.4209 -2.8201
  142OSM   H13T15574  -0.169   1.501   7.842  1.5609  0.0230 -3.3449
  142OSM   C14S15575  -0.047   1.527   8.030  0.5594 -0.4484 -0.3816
  142OSM   H14S15576   0.062   1.535   8.050  0.7698 -2.5865 -0.4180
  142OSM   H14T15577  -0.084   1.450   8.101 -1.5620  1.0779  0.2696
  142OSM   C15S15578  -0.112   1.664   8.051 -0.3640 -0.7487 -0.0091
  142OSM   H15S15579  -0.222   1.648   8.056 -0.8413  1.9256 -0.6359
  142OSM   H15T15580  -0.085   1.732   7.968 -0.3128 -1.3931 -0.5270
  142OSM   C16S15581  -0.070   1.734   8.183  0.4414  0.1437 -0.2379
  142OSM   H16S15582   0.040   1.742   8.171  0.6323 -1.4155  0.2467
  142OSM   H16T15583  -0.095   1.667   8.268  1.2917 -0.7808 -0.6894
  142OSM   C17S15584  -0.136   1.878   8.186 -0.3649  1.3412  0.1348
  142OSM   H17S15585  -0.246   1.870   8.176 -0.1924  0.4034 -1.2417
  142OSM   H17T15586  -0.097   1.932   8.098  1.4778 -0.2499 -0.0839
  142OSM   C18S15587  -0.096   1.955   8.308  0.2452  0.0480 -0.3979
  142OSM   H18S15588  -0.129   2.061   8.297 -3.2241 -0.8746  0.0267
  142OSM   H18T15589   0.014   1.967   8.298  0.4139  0.8897  1.8360
  142OSM   H18U15590  -0.124   1.910   8.405  1.6140 -2.9189 -1.2727
  142OSM    C1F15591   0.251   1.069   6.853  0.3279  0.3277  0.0293
  142OSM     OF15592   0.338   1.099   6.778 -0.5588  0.0011  0.2593
  142OSM    C2F15593   0.272   0.963   6.960 -0.0666  0.9276 -0.3428
  142OSM    H2F15594   0.341   0.887   6.917 -0.6109 -1.0097  1.9794
  142OSM    H2G15595   0.172   0.916   6.971 -0.8177  2.4197 -0.6219
  142OSM    C3F15596   0.322   1.018   7.095  0.7848  0.0324 -0.7159
  142OSM    H3F15597   0.241   1.088   7.126 -1.6472 -1.8958 -2.3658
  142OSM    H3G15598   0.421   1.068   7.089  1.3853 -0.3123  3.3659
  142OSM    C4F15599   0.342   0.907   7.202  0.3160  0.5122  0.3635
  142OSM    H4F15600   0.423   0.835   7.179 -0.8401  0.2214 -3.4352
  142OSM    H4G15601   0.245   0.852   7.205 -0.2916  1.4642 -0.8445
  142OSM    C5F15602   0.362   0.966   7.343  0.2625  0.0695  0.9467
  142OSM    H5F15603   0.448   1.035   7.350  0.5386  0.0904 -1.6331
  142OSM    H5G15604   0.386   0.878   7.407  0.5200 -0.4590  0.1534
  142OSM    C6F15605   0.243   1.045   7.400  0.1114 -0.5352  0.3742
  142OSM    H6F15606   0.167   0.972   7.436 -0.1346  0.8905  2.9822
  142OSM    H6G15607   0.206   1.118   7.325  2.2243 -0.7066 -0.9215
  142OSM    C7F15608   0.287   1.120   7.524  0.2285  0.0267  0.1953
  142OSM    H7F15609   0.216   1.201   7.553  0.6662  1.0772 -1.5455
  142OSM    H7G15610   0.373   1.184   7.492 -0.0282  0.8555  1.0999
  142OSM    C8F15611   0.344   1.039   7.641  0.2541  0.5497  0.1761
  142OSM    H8F15612   0.406   1.117   7.691  0.7317  0.6957 -0.6303
  142OSM    H8G15613   0.407   0.953   7.612 -0.0723  0.6997 -1.0079
  142OSM    C9F15614   0.230   0.978   7.721 -0.5932  0.8257  0.3279
  142OSM    H9F15615   0.163   0.913   7.662 -0.1116  2.3342 -1.9946
  142OSM   C10F15616   0.214   0.994   7.850 -0.0165  0.7663  0.2736
  142OSM   H10F15617   0.128   0.945   7.898 -0.0961 -0.5171 -1.1018
  142OSM   C11F15618   0.308   1.060   7.943  0.0819 -0.4779 -0.4003
  142OSM   H11F15619   0.403   1.090   7.894 -0.5572  3.4011  0.4309
  142OSM   H11G15620   0.340   0.998   8.030 -1.5782 -1.9378 -0.7906
  142OSM   C12F15621   0.236   1.186   8.009 -0.1362  1.2685 -0.6112
  142OSM   H12F15622   0.129   1.164   8.028  0.1782  0.1109 -0.0971
  142OSM   H12G15623   0.242   1.259   7.925 -0.6863  0.3266 -1.4899
  142OSM   C13F15624   0.305   1.235   8.140  0.4129  0.2440  0.1274
  142OSM   H13F15625   0.415   1.244   8.130  0.2854  0.7669 -0.9786
  142OSM   H13G15626   0.293   1.153   8.214 -1.8226  0.2331 -0.1712
  142OSM   C14F15627   0.226   1.355   8.200 -0.4909  0.3031 -0.0498
  142OSM   H14F15628   0.117   1.331   8.200 -0.3972 -0.2281 -1.4414
  142OSM   H14G15629   0.237   1.429   8.118 -0.1110 -0.6122 -0.8401
  142OSM   C15F15630   0.282   1.404   8.331 -1.1236  0.7800 -0.4263
  142OSM   H15F15631   0.391   1.418   8.314 -0.7187  0.4756  1.6971
  142OSM   H15G15632   0.281   1.323   8.407  0.4877  1.6638  0.5905
  142OSM   C16F15633   0.226   1.530   8.397  0.0153  0.7691  0.2309
  142OSM   H16F15634   0.156   1.498   8.477 -0.5067  2.1932  0.3604
  142OSM   H16G15635   0.177   1.590   8.318  0.1878 -0.7728 -1.1057
  142OSM   C17F15636   0.339   1.603   8.467 -0.7046 -0.2999  0.0893
  142OSM   H17F15637   0.404   1.665   8.402  0.0989  1.6264  2.5246
  142OSM   H17G15638   0.407   1.529   8.515  1.8446 -0.7372 -3.7749
  142OSM   C18F15639   0.296   1.712   8.570  0.3507 -0.0167 -0.0664
  142OSM   H18F15640   0.371   1.787   8.600  0.2136 -0.3792  1.2333
  142OSM   H18G15641   0.257   1.656   8.657  1.0888 -2.7155 -1.3668
  142OSM   H18H15642   0.211   1.775   8.533 -2.3679 -2.4899  1.5200
  143OSM      N15643   2.116   1.078   6.382 -0.3190  0.0458 -0.4258
  143OSM    C1515644   2.103   0.930   6.375 -0.0426 -0.0899 -0.3280
  143OSM   H15A15645   2.108   0.887   6.474 -1.4130 -0.1119 -0.2456
  143OSM   H15B15646   2.188   0.889   6.322 -0.2459  0.5509 -1.1672
  143OSM   H15C15647   2.013   0.886   6.335  1.0617 -0.7602 -2.2198
  143OSM    C1415648   2.263   1.103   6.398 -0.7293 -0.0039  0.0878
  143OSM   H14A15649   2.325   1.068   6.316  0.4384  2.5376 -0.2137
  143OSM   H14B15650   2.291   1.049   6.486  1.2893  1.1056  0.1954
  143OSM   H14C15651   2.293   1.207   6.410 -0.3788  0.2952 -2.6866
  143OSM    C1315652   2.077   1.140   6.250  0.8720  0.0375  0.4493
  143OSM   H13A15653   2.153   1.119   6.176  0.8946 -1.2013  0.8033
  143OSM   H13B15654   2.073   1.246   6.269  1.0453  0.0040  0.6794
  143OSM   H13C15655   1.984   1.096   6.217  0.2742 -1.1826  3.3836
  143OSM    C1215656   2.042   1.139   6.499  0.1138  0.6200 -1.0408
  143OSM   H12A15657   2.095   1.104   6.587 -0.2497  0.5519 -0.8485
  143OSM   H12B15658   1.941   1.102   6.506 -0.2400  1.5523 -1.2058
  143OSM    C1115659   2.026   1.293   6.528 -0.4112 -0.0260 -0.3939
  143OSM   H11A15660   2.127   1.339   6.535 -1.5108  2.3776  0.5110
  143OSM   H11B15661   1.972   1.304   6.624 -0.9644 -0.2694 -0.6707
  143OSM      P15662   1.984   1.506   6.371  0.3238  0.0975  0.3289
  143OSM    O1315663   2.089   1.489   6.272 -0.0117  0.0921 -0.3293
  143OSM    O1415664   1.861   1.582   6.325 -0.1586  0.2624 -0.1874
  143OSM    O1115665   2.048   1.575   6.496 -0.2313  0.4002 -0.3233
  143OSM    O1215666   1.948   1.359   6.425 -0.0252  0.0857 -0.6424
  143OSM    C1S15667   1.966   1.621   6.606  0.4425 -0.1684 -0.2901
  143OSM    H1S15668   1.934   1.534   6.667 -1.8508  0.2234 -0.8245
  143OSM    H1T15669   1.883   1.688   6.576 -0.9195 -2.4613 -2.0184
  143OSM     NF15670   1.968   1.734   6.827 -0.2324  0.0358 -0.2307
  143OSM    HNF15671   1.922   1.822   6.827 -2.1995 -0.8950 -1.6352
  143OSM    C2S15672   2.053   1.705   6.712  0.5666  0.6961 -0.0013
  143OSM    H2S15673   2.144   1.645   6.735 -1.3854 -1.2911  3.2574
  143OSM    C3S15674   2.106   1.839   6.638  1.3419 -0.1993  0.6543
  143OSM    H3S15675   2.018   1.891   6.593  2.5663  1.3215 -0.0832
  143OSM     O315676   2.179   1.801   6.525  0.3248  0.2093 -0.7451
  143OSM    HO315677   2.151   1.710   6.511 -0.1768  0.4826 -1.6274
  143OSM    C4S15678   2.179   1.943   6.720 -0.2155 -0.0698  0.1836
  143OSM    H4S15679   2.112   2.016   6.767 -0.0594  0.5551 -0.5390
  143OSM    C5S15680   2.313   1.949   6.745 -0.1676  0.0951 -0.3209
  143OSM    H5S15681   2.382   1.870   6.711  1.0299  0.9844 -0.0047
  143OSM    C6S15682   2.359   2.049   6.842  0.5985 -0.6277 -0.7307
  143OSM    H6S15683   2.274   2.086   6.902  1.8406 -0.5750  1.0543
  143OSM    H6T15684   2.400   2.141   6.794  0.1386 -0.3944 -0.6762
  143OSM    C7S15685   2.450   2.003   6.952 -0.4648  0.3855  0.0131
  143OSM    H7S15686   2.547   1.974   6.907 -0.0779 -1.3384  1.8150
  143OSM    H7T15687   2.415   1.908   6.997  1.8273  0.1789  1.5172
  143OSM    C8S15688   2.475   2.102   7.069  0.7539 -0.2140 -0.0675
  143OSM    H8S15689   2.380   2.133   7.119  1.0322  1.1272 -0.3325
  143OSM    H8T15690   2.519   2.195   7.029 -0.5337  0.0847 -0.8353
  143OSM    C9S15691   2.562   2.042   7.181 -0.2078  0.0607 -0.3811
  143OSM    H9S15692   2.661   2.009   7.144 -0.4495 -1.3143  0.1264
  143OSM    H9T15693   2.511   1.954   7.225  2.3237 -1.5052 -0.4039
  143OSM   C10S15694   2.582   2.149   7.287  0.7305  0.0681 -0.1465
  143OSM   H10S15695   2.484   2.194   7.316  1.1347  1.0865 -0.3164
  143OSM   H10T15696   2.665   2.218   7.260  0.9959 -1.0612 -2.5225
  143OSM   C11S15697   2.635   2.078   7.409 -0.1663  0.0413  0.7503
  143OSM   H11S15698   2.739   2.056   7.377 -0.9117 -1.6832 -0.6494
  143OSM   H11T15699   2.590   1.980   7.433 -1.9138  1.1472  2.2652
  143OSM   C12S15700   2.635   2.168   7.539  0.0929  0.1545  0.6801
  143OSM   H12S15701   2.650   2.275   7.511  0.3828 -0.5055 -1.8277
  143OSM   H12T15702   2.716   2.134   7.607 -0.3965 -1.4627  0.4860
  143OSM   C13S15703   2.500   2.144   7.613  0.1038 -0.0199  0.2329
  143OSM   H13S15704   2.499   2.042   7.658 -1.4629  0.1228  0.5930
  143OSM   H13T15705   2.422   2.143   7.534  1.6796 -0.3642 -1.3768
  143OSM   C14S15706   2.458   2.244   7.724 -0.0971  0.2383  0.4593
  143OSM   H14S15707   2.441   2.347   7.686 -0.5586 -0.5669 -1.6131
  143OSM   H14T15708   2.539   2.243   7.800  2.0909 -3.4875 -1.6334
  143OSM   C15S15709   2.327   2.194   7.792 -0.4146  0.1501  0.7432
  143OSM   H15S15710   2.354   2.094   7.834 -1.1763 -1.5798 -2.5168
  143OSM   H15T15711   2.250   2.187   7.712  1.3704  0.3820 -1.0661
  143OSM   C16S15712   2.285   2.279   7.916 -0.3546  0.4581  0.5507
  143OSM   H16S15713   2.281   2.379   7.869 -1.2477  0.6235  0.9512
  143OSM   H16T15714   2.364   2.282   7.994  0.8105 -0.6215 -0.5407
  143OSM   C17S15715   2.155   2.251   7.980  0.8888  0.1627 -0.5307
  143OSM   H17S15716   2.118   2.341   8.034 -0.6999  0.9117 -2.7341
  143OSM   H17T15717   2.168   2.172   8.056 -0.5363  0.8016  0.4322
  143OSM   C18S15718   2.047   2.213   7.876 -0.2947  0.2747  0.0075
  143OSM   H18S15719   2.080   2.116   7.833 -0.3747 -0.1731  0.9224
  143OSM   H18T15720   2.034   2.290   7.797  1.2911  1.5478  0.9066
  143OSM   H18U15721   1.953   2.208   7.934  0.1435  3.1255  1.1393
  143OSM    C1F15722   1.947   1.656   6.926 -0.1137  0.1196  0.1752
  143OSM     OF15723   1.984   1.539   6.915 -0.4062  0.0131  0.6578
  143OSM    C2F15724   1.867   1.700   7.038 -0.5312 -0.5200  0.1557
  143OSM    H2F15725   1.764   1.670   7.009  0.2690 -1.3241 -1.9965
  143OSM    H2G15726   1.877   1.810   7.045  0.3634 -0.6761  1.9712
  143OSM    C3F15727   1.910   1.645   7.172 -0.4265 -0.0128  0.0918
  143OSM    H3F15728   2.010   1.687   7.194 -0.7178  1.9066 -1.8519
  143OSM    H3G15729   1.912   1.535   7.186 -1.4280  0.1016  1.3141
  143OSM    C4F15730   1.807   1.680   7.281  0.6858 -0.4672  0.0824
  143OSM    H4F15731   1.710   1.630   7.261  1.1996 -1.8076  0.8121
  143OSM    H4G15732   1.781   1.788   7.275 -1.3360 -0.9286 -0.3753
  143OSM    C5F15733   1.846   1.655   7.421 -0.2381 -0.1897 -0.5899
  143OSM    H5F15734   1.939   1.704   7.457 -1.8207  2.1231  0.6443
  143OSM    H5G15735   1.858   1.545   7.433 -2.4958 -0.5990 -1.5223
  143OSM    C6F15736   1.734   1.690   7.523  0.0315 -0.4533 -0.0366
  143OSM    H6F15737   1.640   1.634   7.504  0.1844 -0.9511  0.6484
  143OSM    H6G15738   1.705   1.794   7.499  1.6812 -0.0735 -0.4861
  143OSM    C7F15739   1.767   1.686   7.673  0.3972  0.3925 -0.4612
  143OSM    H7F15740   1.867   1.735   7.671 -0.1670  1.6485 -3.5917
  143OSM    H7G15741   1.768   1.578   7.699  0.4301 -0.0793 -2.3370
  143OSM    C8F15742   1.671   1.776   7.748 -0.0845  0.2821 -0.1077
  143OSM    H8F15743   1.570   1.738   7.719 -0.2207  1.4373 -1.2082
  143OSM    H8G15744   1.677   1.884   7.722 -2.0257  0.4718  0.0897
  143OSM    C9F15745   1.662   1.750   7.893 -0.9399 -0.3047 -0.8594
  143OSM    H9F15746   1.604   1.658   7.909 -1.0543 -0.1562 -0.4009
  143OSM   C10F15747   1.716   1.807   8.003  0.1617 -0.7509 -0.7356
  143OSM   H10F15748   1.694   1.764   8.101  1.0480  1.1947  0.3647
  143OSM   C11F15749   1.800   1.936   8.023  0.5369 -0.1956 -0.1906
  143OSM   H11F15750   1.781   2.000   7.934 -1.0156 -0.3398  0.0145
  143OSM   H11G15751   1.909   1.917   8.012  0.6347  0.2520  0.0075
  143OSM   C12F15752   1.774   2.012   8.159 -0.7190  0.1774 -0.2830
  143OSM   H12F15753   1.839   2.102   8.158  0.3601 -0.5695  0.5677
  143OSM   H12G15754   1.800   1.941   8.240 -0.6226 -1.4305 -1.6799
  143OSM   C13F15755   1.620   2.058   8.178 -0.1879 -0.2074 -0.0038
  143OSM   H13F15756   1.552   1.971   8.183  1.8642 -1.9699 -0.8829
  143OSM   H13G15757   1.596   2.110   8.083  2.4353 -0.2683 -0.8031
  143OSM   C14F15758   1.587   2.155   8.292 -0.3720 -0.2806 -0.2214
  143OSM   H14F15759   1.477   2.174   8.290 -0.7482 -1.8867  1.8390
  143OSM   H14G15760   1.632   2.254   8.266  0.3082 -0.2678  0.9512
  143OSM   C15F15761   1.623   2.106   8.434  0.6792  0.3483 -0.4335
  143OSM   H15F15762   1.608   2.184   8.512 -0.3913 -0.4328  0.1677
  143OSM   H15G15763   1.731   2.086   8.453  0.7153  2.2346  1.7728
  143OSM   C16F15764   1.555   1.977   8.482 -0.3452 -0.1897 -0.1383
  143OSM   H16F15765   1.557   1.898   8.404 -0.5970  1.3873 -1.8008
  143OSM   H16G15766   1.447   1.986   8.509 -0.1325 -0.6054  0.9173
  143OSM   C17F15767   1.626   1.933   8.610 -0.4077  0.5307  0.4864
  143OSM   H17F15768   1.625   1.992   8.704 -2.5714  1.6859 -0.1848
  143OSM   H17G15769   1.734   1.928   8.583  0.1752  2.3752  2.2417
  143OSM   C18F15770   1.586   1.793   8.650 -0.0003  0.3081  0.6124
  143OSM   H18F15771   1.599   1.722   8.566 -0.2989 -0.0894  0.8975
  143OSM   H18G15772   1.479   1.781   8.676  0.1743  0.1428  1.2812
  143OSM   H18H15773   1.642   1.760   8.741 -1.3329 -0.0475  1.3302
  144OSM      N15774   1.747   3.424   6.172  0.4855 -0.4257  0.2059
  144OSM    C1515775   1.676   3.540   6.098  0.7621 -0.0085 -0.3879
  144OSM   H15A15776   1.690   3.634   6.150 -0.9205  0.7709 -1.2348
  144OSM   H15B15777   1.569   3.526   6.092  0.4378  1.4277  1.2451
  144OSM   H15C15778   1.720   3.549   6.000 -0.4643  1.7668 -0.8278
  144OSM    C1415779   1.696   3.292   6.122  1.4355 -0.4809 -0.2965
  144OSM   H14A15780   1.595   3.270   6.152  1.0074  0.7056 -0.8353
  144OSM   H14B15781   1.763   3.212   6.152  2.0307 -0.5020 -1.6215
  144OSM   H14C15782   1.689   3.287   6.015 -1.1836 -1.2368 -0.1459
  144OSM    C1315783   1.890   3.438   6.130 -0.5375 -0.0081  0.0746
  144OSM   H13A15784   1.904   3.414   6.026 -3.2467 -2.2701  0.1349
  144OSM   H13B15785   1.936   3.372   6.201  0.8323  3.2724  2.5134
  144OSM   H13C15786   1.926   3.537   6.156 -0.9320  0.1278  0.1148
  144OSM    C1215787   1.744   3.444   6.319 -0.3882 -0.3489 -0.5741
  144OSM   H12A15788   1.806   3.530   6.341 -1.1286  0.3569 -1.2013
  144OSM   H12B15789   1.796   3.363   6.368  1.8947  2.7806  2.7082
  144OSM    C1115790   1.608   3.465   6.398  0.6466 -0.2727  0.0445
  144OSM   H11A15791   1.571   3.561   6.357 -0.4337 -0.0279  1.5230
  144OSM   H11B15792   1.631   3.486   6.505  0.7606 -0.7340  0.1102
  144OSM      P15793   1.550   3.217   6.439  0.5604  0.1314 -0.6511
  144OSM    O1315794   1.436   3.129   6.402 -0.4523 -0.3164 -0.0630
  144OSM    O1415795   1.685   3.171   6.402 -0.0672  0.2974  0.1845
  144OSM    O1115796   1.551   3.229   6.596 -0.2121 -0.9611  0.3811
  144OSM    O1215797   1.508   3.359   6.390 -0.5033 -0.3309  0.4954
  144OSM    C1S15798   1.434   3.259   6.669  0.3103 -0.1233  0.0239
  144OSM    H1S15799   1.346   3.197   6.642 -1.1581  1.6196  0.5954
  144OSM    H1T15800   1.397   3.362   6.648 -0.0277 -0.3561 -0.5553
  144OSM     NF15801   1.334   3.258   6.899  0.4454  0.1474  0.6878
  144OSM    HNF15802   1.313   3.352   6.924 -3.3453 -0.1932 -0.6260
  144OSM    C2S15803   1.457   3.236   6.819 -0.4078  0.5059 -0.2045
  144OSM    H2S15804   1.496   3.134   6.840  0.2214  0.5517 -1.1078
  144OSM    C3S15805   1.573   3.333   6.860 -0.5376 -0.9536 -0.5233
  144OSM    H3S15806   1.531   3.431   6.827 -0.4722 -1.3250 -1.7296
  144OSM     O315807   1.700   3.317   6.796  0.5038  0.6644  0.5235
  144OSM    HO315808   1.677   3.261   6.721 -0.9471 -1.0706  2.1696
  144OSM    C4S15809   1.588   3.331   7.012 -0.5375 -0.2320  0.1564
  144OSM    H4S15810   1.525   3.403   7.066  1.0419  1.8563 -0.6571
  144OSM    C5S15811   1.672   3.247   7.068  0.0650  0.0853 -0.4637
  144OSM    H5S15812   1.728   3.179   7.002  0.8136  1.0979 -0.8888
  144OSM    C6S15813   1.701   3.236   7.214 -0.5643  0.2589  0.1215
  144OSM    H6S15814   1.812   3.248   7.218 -0.3724 -1.0329 -0.7224
  144OSM    H6T15815   1.664   3.136   7.244 -1.4656  0.7018  0.5147
  144OSM    C7S15816   1.636   3.348   7.307 -1.3578 -0.6246 -0.4819
  144OSM    H7S15817   1.529   3.363   7.281 -1.4495 -1.4559 -0.6239
  144OSM    H7T15818   1.676   3.448   7.282 -4.7627  0.9099 -0.4476
  144OSM    C8S15819   1.656   3.317   7.462 -0.1842 -0.3223  0.0188
  144OSM    H8S15820   1.764   3.313   7.489 -0.5405  0.4684  1.6587
  144OSM    H8T15821   1.610   3.218   7.481  0.4813 -0.2907  1.9859
  144OSM    C9S15822   1.595   3.424   7.557 -0.1889  0.0401 -0.0337
  144OSM    H9S15823   1.487   3.438   7.534 -0.6703 -0.8581  1.5397
  144OSM    H9T15824   1.633   3.528   7.546 -0.7049  0.2971  0.5646
  144OSM   C10S15825   1.615   3.388   7.700 -0.0513  0.5025 -0.7563
  144OSM   H10S15826   1.722   3.360   7.705  0.0832  1.0976 -0.1309
  144OSM   H10T15827   1.558   3.296   7.726 -0.0630  1.3388  2.7373
  144OSM   C11S15828   1.585   3.504   7.800 -0.9431 -0.2885 -0.4838
  144OSM   H11S15829   1.485   3.548   7.780 -0.6851  0.9093  0.7298
  144OSM   H11T15830   1.662   3.584   7.792 -0.2360 -0.8180  0.7302
  144OSM   C12S15831   1.575   3.451   7.948  0.0165 -0.8108  0.0280
  144OSM   H12S15832   1.506   3.364   7.943 -0.5305 -0.3373 -0.8974
  144OSM   H12T15833   1.536   3.542   7.998 -0.4853 -0.4247 -1.0153
  144OSM   C13S15834   1.715   3.414   8.000 -0.1705 -0.3328  0.8209
  144OSM   H13S15835   1.779   3.501   7.974 -1.1200 -0.2399 -1.4802
  144OSM   H13T15836   1.758   3.329   7.944 -1.8470 -0.6360 -0.0518
  144OSM   C14S15837   1.715   3.368   8.149 -0.2790 -0.1812 -0.2212
  144OSM   H14S15838   1.652   3.276   8.152 -0.9303  0.2756  0.2283
  144OSM   H14T15839   1.667   3.444   8.214  0.7813  0.5813 -0.3057
  144OSM   C15S15840   1.863   3.344   8.190  0.0834  0.0577 -0.1700
  144OSM   H15S15841   1.916   3.441   8.175 -0.6317  0.7610  1.5056
  144OSM   H15T15842   1.911   3.274   8.119  1.9678  0.5351  0.5811
  144OSM   C16S15843   1.885   3.283   8.322 -0.9657  0.3488 -0.3346
  144OSM   H16S15844   1.976   3.219   8.331 -0.9049  0.6161  1.3475
  144OSM   H16T15845   1.796   3.217   8.319 -2.7656  2.6768 -1.2765
  144OSM   C17S15846   1.890   3.375   8.444  0.2081  0.3261  0.8051
  144OSM   H17S15847   1.853   3.335   8.540 -1.4032  1.2644  0.6024
  144OSM   H17T15848   1.817   3.455   8.421  0.7363  0.4232 -0.6711
  144OSM   C18S15849   2.027   3.448   8.450  0.6564 -0.8528  0.0798
  144OSM   H18S15850   2.010   3.538   8.512 -1.8140 -0.2622 -1.2971
  144OSM   H18T15851   2.072   3.483   8.354  0.3018 -1.4246 -0.3010
  144OSM   H18U15852   2.098   3.377   8.497 -1.1487 -2.1711  0.9443
  144OSM    C1F15853   1.227   3.175   6.901  0.2066  0.5340  0.1855
  144OSM     OF15854   1.216   3.068   6.839  0.0365 -0.1027  0.0975
  144OSM    C2F15855   1.123   3.212   7.003  0.3445  0.5592  0.0289
  144OSM    H2F15856   1.092   3.318   6.987 -0.1628  0.1946 -1.5565
  144OSM    H2G15857   1.165   3.213   7.106  0.4958  0.5506 -0.0321
  144OSM    C3F15858   0.998   3.122   6.989 -0.2664 -0.5055 -0.3643
  144OSM    H3F15859   1.022   3.017   7.017 -1.1341 -0.4910  0.4714
  144OSM    H3G15860   0.967   3.105   6.884  0.3152 -1.8321 -0.3423
  144OSM    C4F15861   0.874   3.158   7.069  0.3495  0.4549 -0.3244
  144OSM    H4F15862   0.794   3.086   7.040 -0.1780  0.8612  0.0778
  144OSM    H4G15863   0.842   3.261   7.040 -1.9872 -0.6208 -1.9059
  144OSM    C5F15864   0.896   3.168   7.221 -0.1248  0.6837  0.7192
  144OSM    H5F15865   0.981   3.237   7.239 -0.8215  1.9415 -0.5746
  144OSM    H5G15866   0.919   3.070   7.269  2.0354  0.7589 -0.0458
  144OSM    C6F15867   0.769   3.214   7.297 -0.8181 -0.3532  0.0995
  144OSM    H6F15868   0.705   3.126   7.321  0.2409 -0.3811  3.2717
  144OSM    H6G15869   0.717   3.299   7.249 -2.8683 -1.9286 -0.6232
  144OSM    C7F15870   0.804   3.258   7.439 -0.1108  0.1306 -0.2170
  144OSM    H7F15871   0.889   3.329   7.430 -0.7563  0.7953 -1.3651
  144OSM    H7G15872   0.835   3.169   7.498 -1.9690 -0.3380  0.0950
  144OSM    C8F15873   0.689   3.333   7.513 -0.4853  0.0956  0.6695
  144OSM    H8F15874   0.611   3.253   7.517 -0.0097 -0.4265 -0.2645
  144OSM    H8G15875   0.654   3.412   7.444  0.3226  1.9101  2.2457
  144OSM    C9F15876   0.725   3.381   7.650  0.4657  0.5091  0.1209
  144OSM    H9F15877   0.824   3.429   7.659  0.8455  0.2947 -2.2533
  144OSM   C10F15878   0.649   3.383   7.762 -0.0205 -0.0972 -0.0148
  144OSM   H10F15879   0.693   3.433   7.849 -0.2926 -1.2749  0.8280
  144OSM   C11F15880   0.505   3.336   7.778 -0.1663  0.1717  0.5265
  144OSM   H11F15881   0.496   3.227   7.799 -0.8587  0.1500  0.1704
  144OSM   H11G15882   0.459   3.347   7.677  0.3554  2.8494  0.5207
  144OSM   C12F15883   0.429   3.413   7.885 -0.1290 -0.2588 -0.7153
  144OSM   H12F15884   0.320   3.392   7.874 -0.0494 -1.5757  0.7424
  144OSM   H12G15885   0.453   3.520   7.866  1.5908 -0.6050 -0.6217
  144OSM   C13F15886   0.472   3.363   8.027 -0.1837 -0.1116 -0.2784
  144OSM   H13F15887   0.582   3.352   8.028 -0.3550 -2.3238  1.5553
  144OSM   H13G15888   0.431   3.260   8.038 -0.6949  0.3231  2.6640
  144OSM   C14F15889   0.426   3.445   8.141  0.1635 -0.9314 -0.4346
  144OSM   H14F15890   0.318   3.468   8.137  0.1436 -0.6872  0.9926
  144OSM   H14G15891   0.479   3.543   8.143  0.3450 -1.0295 -0.3749
  144OSM   C15F15892   0.442   3.380   8.282 -0.2525 -0.6920 -0.1929
  144OSM   H15F15893   0.549   3.353   8.284 -0.0707 -0.0123 -0.5060
  144OSM   H15G15894   0.377   3.291   8.294  0.0029 -0.9002 -0.3508
  144OSM   C16F15895   0.413   3.465   8.405 -0.0188  1.1680  0.1897
  144OSM   H16F15896   0.413   3.390   8.488  1.3226  0.1921 -0.6617
  144OSM   H16G15897   0.310   3.508   8.412 -0.6809  0.1982 -2.4167
  144OSM   C17F15898   0.513   3.561   8.449 -1.0025 -0.1855  0.7462
  144OSM   H17F15899   0.531   3.628   8.361 -1.9222 -0.0646  0.6331
  144OSM   H17G15900   0.608   3.509   8.468 -1.0027  0.1217  1.6259
  144OSM   C18F15901   0.468   3.646   8.567 -0.0359  0.2767  0.2089
  144OSM   H18F15902   0.566   3.680   8.608 -0.1270 -0.4098  1.0260
  144OSM   H18G15903   0.419   3.583   8.644  0.5794  1.0196  1.2361
  144OSM   H18H15904   0.401   3.729   8.537 -2.2032 -1.1227  0.9399
  145SAPE     N15905   0.480   2.450  10.915 -0.1415  1.0125  0.0398
  145SAPE   HN115906   0.422   2.523  10.962  3.6125  3.3361  1.5412
  145SAPE   HN215907   0.582   2.463  10.900 -0.2722 -0.1505 -2.3648
  145SAPE   HN315908   0.446   2.449  10.817 -1.0841 -0.2363  0.3620
  145SAPE   C1215909   0.459   2.315  10.967  0.3974  0.4832 -0.3947
  145SAPE  H12A15910   0.359   2.279  10.936 -1.6204  3.2230  2.3187
  145SAPE  H12B15911   0.464   2.316  11.078 -0.3382  1.3939 -0.3582
  145SAPE   C1115912   0.574   2.219  10.915  0.1111  0.3576  0.0630
  145SAPE  H11A15913   0.672   2.254  10.953 -0.3550  0.5623  1.1272
  145SAPE  H11B15914   0.583   2.214  10.805  1.5316  2.4593  0.0106
  145SAPE     P15915   0.467   1.979  10.908 -0.2341  0.3312  0.0575
  145SAPE   O1315916   0.470   1.866  11.005  0.1131  0.0356  0.0366
  145SAPE   O1415917   0.329   2.022  10.869  0.2426  0.1748  0.4807
  145SAPE   O1215918   0.548   2.092  10.972  0.5728  1.1350  0.3255
  145SAPE   O1115919   0.557   1.945  10.779  0.4591  0.5461  0.4857
  145SAPE    C115920   0.483   1.955  10.651  0.3573  1.0569  0.0345
  145SAPE    HA15921   0.390   1.894  10.650  1.0296 -0.0545  1.3235
  145SAPE    HB15922   0.443   2.053  10.619 -1.6626 -0.0059 -0.9324
  145SAPE    C215923   0.567   1.891  10.548  0.1691  0.6024  0.2213
  145SAPE    HS15924   0.677   1.901  10.560  0.4131 -2.1941  0.8616
  145SAPE   O2115925   0.517   1.931  10.418 -0.1107  0.6833  0.0667
  145SAPE   C2115926   0.571   2.037  10.363 -0.3116 -0.1283 -0.5644
  145SAPE   O2215927   0.663   2.100  10.410 -0.1395 -0.5464 -0.2250
  145SAPE   C2215928   0.496   2.069  10.236 -0.2473  0.0219 -0.2946
  145SAPE   H2R15929   0.393   2.098  10.266  0.1870  0.9083  0.3861
  145SAPE   H2S15930   0.547   2.158  10.195 -3.1703  1.4172 -1.1251
  145SAPE    C315931   0.551   1.735  10.550  0.0966 -0.3750  0.2738
  145SAPE    HX15932   0.447   1.696  10.538 -0.2648  1.3606 -3.9659
  145SAPE    HY15933   0.578   1.695  10.650 -0.9827 -1.3399  0.2055
  145SAPE   O3115934   0.615   1.676  10.442 -0.0311 -0.2029  0.1192
  145SAPE   C3115935   0.743   1.632  10.463  0.0178  0.2246 -0.3101
  145SAPE   O3215936   0.817   1.671  10.555  0.3476 -0.3331  0.0462
  145SAPE   C3215937   0.782   1.529  10.353  0.0962  0.3052  0.1474
  145SAPE   H2X15938   0.709   1.550  10.272 -1.2323 -0.4694  1.1178
  145SAPE   H2Y15939   0.758   1.428  10.392 -0.4934 -0.9486 -3.1086
  145SAPE   C2315940   0.508   1.948  10.143 -0.0598 -0.3075  0.4202
  145SAPE   H3R15941   0.425   1.963  10.070 -0.4326  0.0281  0.9074
  145SAPE   H3S15942   0.483   1.857  10.201  0.3804 -0.3034  0.6219
  145SAPE   C2415943   0.648   1.934  10.068 -0.0701  0.4276 -0.2417
  145SAPE   H4R15944   0.727   1.902  10.139 -0.9990 -2.7161 -0.4456
  145SAPE   H4S15945   0.670   2.038  10.037 -2.2037  1.0318  0.1057
  145SAPE   C2515946   0.649   1.846   9.941  0.5152 -0.3303 -0.7500
  145SAPE   H5R15947   0.634   1.738   9.950  3.6132 -0.9226 -1.5275
  145SAPE   C2615948   0.666   1.893   9.814 -0.3444  0.5103  0.4420
  145SAPE   H6R15949   0.669   1.819   9.733  0.5954 -0.1855  1.0887
  145SAPE   C2715950   0.691   2.032   9.766 -0.7444 -0.2440  0.5421
  145SAPE   H7R15951   0.769   2.031   9.686  1.3817  1.8641  2.4343
  145SAPE   H7S15952   0.734   2.079   9.856  1.6397  1.3496 -1.2869
  145SAPE   C2815953   0.566   2.092   9.719 -0.9783 -0.1677 -0.7199
  145SAPE   H8R15954   0.480   2.063   9.782  0.4134  0.4594  1.5756
  145SAPE   C2915955   0.555   2.192   9.628  0.1213  0.7086 -0.4701
  145SAPE   H9R15956   0.453   2.234   9.625  0.1202  1.0304  1.8966
  145SAPE  C21015957   0.666   2.260   9.547  0.2481 -0.0279 -0.3244
  145SAPE  H10R15958   0.762   2.247   9.602  0.9186 -3.2275 -2.0026
  145SAPE  H10S15959   0.638   2.367   9.561  0.1452 -0.2778  1.6475
  145SAPE  C21115960   0.678   2.205   9.409 -0.8505 -0.7135 -0.4881
  145SAPE  H11R15961   0.688   2.095   9.411  1.8227 -0.5369  0.8013
  145SAPE  C21215962   0.684   2.267   9.294  0.2803  0.2266 -0.5428
  145SAPE  H12R15963   0.705   2.210   9.203  1.1433  0.9951 -0.8347
  145SAPE  C21315964   0.673   2.412   9.264 -0.5178 -0.0179  0.0400
  145SAPE  H13R15965   0.715   2.418   9.161 -2.0558  0.6561 -0.5784
  145SAPE  H13S15966   0.740   2.473   9.329 -0.9568  1.2679 -0.6619
  145SAPE  C21415967   0.541   2.483   9.272  0.2125 -0.0891  0.2073
  145SAPE  H14R15968   0.459   2.434   9.327  0.0804 -0.6189 -0.4379
  145SAPE  C21515969   0.510   2.604   9.212 -0.3723  0.6010 -0.2889
  145SAPE  H15R15970   0.403   2.631   9.214 -1.5859 -3.5340 -0.1369
  145SAPE  C21615971   0.591   2.684   9.117 -0.0246  1.2713  0.3227
  145SAPE  H16R15972   0.671   2.616   9.079 -1.5214 -0.0047 -0.6831
  145SAPE  H16S15973   0.644   2.753   9.186 -0.1309  0.8118  0.8732
  145SAPE  C21715974   0.509   2.736   9.002  0.1850  0.6752 -0.3182
  145SAPE  H17R15975   0.447   2.652   8.966 -0.9353  0.1910  2.5379
  145SAPE  H17S15976   0.571   2.763   8.913  0.6254  0.4251 -0.0891
  145SAPE  C21815977   0.415   2.846   9.035  0.2305  0.1747  0.3324
  145SAPE  H18R15978   0.470   2.922   9.095 -2.6590  1.1400  1.9418
  145SAPE  H18S15979   0.348   2.809   9.116  1.8653 -0.3139  1.5232
  145SAPE  C21915980   0.355   2.914   8.912 -0.3166  0.0366 -0.2101
  145SAPE  H19R15981   0.290   2.845   8.854  0.0703  0.1435 -0.7776
  145SAPE  H19S15982   0.437   2.939   8.842 -0.7818  1.0457 -0.4142
  145SAPE  C22015983   0.282   3.040   8.949 -0.8001  0.2841 -0.2735
  145SAPE  H20R15984   0.199   3.019   9.020  0.3498 -3.8597  0.0640
  145SAPE  H20S15985   0.228   3.078   8.859  1.3197  2.0568 -0.8905
  145SAPE  H20T15986   0.343   3.130   8.971  0.5240 -0.9171  1.1415
  145SAPE   C3315987   0.922   1.538  10.287  0.5602  0.6457 -0.0341
  145SAPE   H3X15988   0.986   1.489  10.363  0.0611  1.2803  0.8166
  145SAPE   H3Y15989   0.950   1.645  10.273 -4.1090  2.0947  0.1981
  145SAPE   C3415990   0.928   1.464  10.149  1.1244 -0.3085 -0.1506
  145SAPE   H4X15991   0.867   1.372  10.153  0.7534 -0.0908 -0.6600
  145SAPE   H4Y15992   1.034   1.438  10.127  1.9406  1.4330  1.4380
  145SAPE   C3515993   0.869   1.550  10.032 -0.2087 -0.3803 -0.0082
  145SAPE   H5X15994   0.924   1.646  10.032  0.9390 -0.9562 -2.4763
  145SAPE   H5Y15995   0.759   1.562  10.040 -0.2305  0.8561 -1.6990
  145SAPE   C3615996   0.892   1.491   9.892 -0.0382  0.4196 -0.1326
  145SAPE   H6X15997   0.832   1.398   9.879 -0.2644  0.6850 -1.0067
  145SAPE   H6Y15998   0.999   1.464   9.880 -0.3206 -1.3530  0.9582
  145SAPE   C3715999   0.845   1.582   9.783  0.7184 -0.0345  0.0281
  145SAPE   H7X16000   0.901   1.678   9.777 -0.1463  0.4115 -1.5028
  145SAPE   H7Y16001   0.742   1.609   9.815  0.6987  0.2290 -0.2508
  145SAPE   C3816002   0.822   1.504   9.652  0.3805 -0.2265 -0.1856
  145SAPE   H8X16003   0.768   1.409   9.672 -0.7538  0.4205 -0.1006
  145SAPE   H8Y16004   0.923   1.475   9.616  0.2022  1.1458 -1.9123
  145SAPE   C3916005   0.763   1.596   9.543  0.4991 -0.3271  0.1013
  145SAPE   H9X16006   0.821   1.691   9.534 -0.1794 -0.0383 -1.5840
  145SAPE   H9Y16007   0.659   1.632   9.552  0.4939 -0.1777 -0.5020
  145SAPE  C31016008   0.778   1.520   9.412 -0.4999  0.1309 -0.0320
  145SAPE  H10X16009   0.715   1.429   9.401 -1.4466  0.8988 -1.3137
  145SAPE  H10Y16010   0.883   1.489   9.397 -1.6319 -3.6378 -1.3289
  145SAPE  C31116011   0.739   1.598   9.280  0.1256 -0.2438  0.7843
  145SAPE  H11X16012   0.637   1.640   9.294 -0.5273 -1.8371  1.0860
  145SAPE  H11Y16013   0.738   1.531   9.191  1.3056  0.5314  0.1537
  145SAPE  C31216014   0.838   1.717   9.265 -0.4209 -0.6331 -0.1772
  145SAPE  H12X16015   0.942   1.688   9.290 -0.0155  0.4293 -0.5730
  145SAPE  H12Y16016   0.815   1.791   9.344 -0.1629  0.8433 -1.4263
  145SAPE  C31316017   0.828   1.786   9.127 -0.0604 -0.1387  0.1955
  145SAPE  H13X16018   0.724   1.818   9.107 -0.1129 -0.4403 -0.0351
  145SAPE  H13Y16019   0.851   1.711   9.048 -0.2633  0.8338 -0.8007
  145SAPE  C31416020   0.921   1.911   9.116  0.9285 -0.3360  0.1609
  145SAPE  H14X16021   1.018   1.869   9.082 -0.2939 -1.7095 -1.8386
  145SAPE  H14Y16022   0.931   1.966   9.212  1.7041  1.3123 -0.8140
  145SAPE  C31516023   0.876   2.010   9.012  0.1768  0.4134  0.5216
  145SAPE  H15X16024   0.776   2.050   9.039  0.1345  0.6297  0.0584
  145SAPE  H15Y16025   0.861   1.963   8.912  1.4874 -0.9878  0.9398
  145SAPE  C31616026   0.975   2.117   8.984 -0.0694  0.3564 -0.1800
  145SAPE  H16X16027   1.062   2.062   8.942 -0.5759 -0.5646 -0.0328
  145SAPE  H16Y16028   1.002   2.170   9.078 -1.0032  2.8218 -1.2155
  145SAPE  C31716029   0.922   2.225   8.887 -0.6431 -0.0393  0.7815
  145SAPE  H17X16030   0.990   2.311   8.867  2.2586 -2.9564 -3.6918
  145SAPE  H17Y16031   0.832   2.269   8.936  0.0333 -0.3091  2.3016
  145SAPE  C31816032   0.892   2.165   8.745  0.0881  0.2714  0.1005
  145SAPE  H18X16033   0.979   2.103   8.714  1.0575  1.5872  0.1288
  145SAPE  H18Y16034   0.873   2.241   8.666  0.6139 -0.7248 -1.0107
  145SAPE  H18Z16035   0.795   2.111   8.759  0.6067 -1.0754 -1.2518
  146SAPE     N16036   0.136   3.966  10.930 -0.7821 -0.1766 -0.1418
  146SAPE   HN116037   0.061   3.958  11.002  1.9639  2.5538  3.4393
  146SAPE   HN216038   0.113   4.057  10.886  0.1046 -0.0156 -0.2959
  146SAPE   HN316039   0.113   3.896  10.857 -1.4279  0.5418 -0.6302
  146SAPE   C1216040   0.273   3.969  10.987  0.5475 -0.6148 -0.8130
  146SAPE  H12A16041   0.280   4.039  11.072 -0.3409  0.5281 -1.6440
  146SAPE  H12B16042   0.340   4.013  10.910  0.2237  2.9807  0.7492
  146SAPE   C1116043   0.312   3.828  11.015 -0.0548  0.0472  0.2770
  146SAPE  H11A16044   0.227   3.793  11.077 -0.5440  0.0474 -0.3877
  146SAPE  H11B16045   0.414   3.828  11.060 -0.0090  0.7319  0.1823
  146SAPE     P16046   0.369   3.600  10.906  0.4761  0.0041  0.3264
  146SAPE   O1316047   0.510   3.624  10.929  0.1869 -0.7990 -0.2535
  146SAPE   O1416048   0.296   3.516  11.002  0.4517 -0.2147 -0.0612
  146SAPE   O1216049   0.302   3.747  10.897  0.0795 -0.0526 -0.1047
  146SAPE   O1116050   0.349   3.550  10.760  0.0385  0.2111 -0.2544
  146SAPE    C116051   0.380   3.623  10.644 -0.9592 -0.2106  0.4198
  146SAPE    HA16052   0.294   3.671  10.592 -0.1250 -1.1684 -1.9850
  146SAPE    HB16053   0.455   3.703  10.659  1.2421 -2.3376  1.2884
  146SAPE    C216054   0.444   3.518  10.543 -0.5855  0.5899  0.0355
  146SAPE    HS16055   0.467   3.576  10.451 -1.1292  0.4582 -0.1900
  146SAPE   O2116056   0.366   3.402  10.519 -0.6364  0.2929 -0.2680
  146SAPE   C2116057   0.257   3.425  10.453 -0.4573 -0.7501 -0.1798
  146SAPE   O2216058   0.213   3.539  10.423  0.1738 -0.3122 -0.4163
  146SAPE   C2216059   0.193   3.293  10.427  0.0338 -0.2167 -0.0717
  146SAPE   H2R16060   0.260   3.237  10.358 -0.2837 -1.3387  0.5185
  146SAPE   H2S16061   0.197   3.242  10.525 -0.8178 -1.7551 -0.8058
  146SAPE    C316062   0.575   3.476  10.601  0.0423 -0.7037  0.0777
  146SAPE    HX16063   0.619   3.419  10.516  2.0958  0.3559  0.3682
  146SAPE    HY16064   0.564   3.412  10.692 -0.0569 -0.4217  0.2629
  146SAPE   O3116065   0.651   3.589  10.617 -0.4825 -0.1490  0.7266
  146SAPE   C3116066   0.778   3.579  10.621  0.2654  0.4583 -0.1489
  146SAPE   O3216067   0.842   3.478  10.599 -0.3485 -0.1414  0.4189
  146SAPE   C3216068   0.831   3.716  10.641 -0.2176 -0.0350 -0.5984
  146SAPE   H2X16069   0.783   3.761  10.730 -1.9775  0.9180 -1.9693
  146SAPE   H2Y16070   0.799   3.771  10.550  0.8921 -0.6266 -1.3766
  146SAPE   C2316071   0.044   3.323  10.390 -0.0184 -0.0043 -0.2198
  146SAPE   H3R16072   0.056   3.378  10.294  2.5742 -0.8287 -0.4470
  146SAPE   H3S16073  -0.005   3.395  10.459  2.4180  0.7457  0.8087
  146SAPE   C2416074  -0.039   3.200  10.373 -0.6264 -0.7038 -1.0565
  146SAPE   H4R16075  -0.043   3.153  10.473  0.8682  2.5798  0.7009
  146SAPE   H4S16076   0.023   3.135  10.308  2.2137  1.0250 -0.2742
  146SAPE   C2516077  -0.175   3.232  10.311 -0.4035  0.2739  0.1648
  146SAPE   H5R16078  -0.260   3.231  10.381 -0.1166 -4.2269  0.7528
  146SAPE   C2616079  -0.200   3.238  10.180 -0.9544 -0.5812 -0.1295
  146SAPE   H6R16080  -0.300   3.268  10.143 -0.4494 -1.2102 -2.0992
  146SAPE   C2716081  -0.101   3.218  10.066  0.1348  0.8783  0.0354
  146SAPE   H7R16082   0.004   3.215  10.101  0.9115  1.1874 -2.1376
  146SAPE   H7S16083  -0.109   3.307  10.001  1.8073  3.3476  2.9350
  146SAPE   C2816084  -0.131   3.097   9.988  0.2293 -0.5926  0.4836
  146SAPE   H8R16085  -0.111   2.994  10.023 -1.5694 -0.7804  1.0637
  146SAPE   C2916086  -0.192   3.103   9.867 -0.8981  0.2884  0.5915
  146SAPE   H9R16087  -0.207   3.005   9.820  2.4284 -1.4253  2.6775
  146SAPE  C21016088  -0.229   3.223   9.794  0.6006 -0.2010  0.3659
  146SAPE  H10R16089  -0.153   3.304   9.797  1.5334 -0.9883 -0.8509
  146SAPE  H10S16090  -0.319   3.270   9.837  1.5083  2.4188 -0.3987
  146SAPE  C21116091  -0.257   3.191   9.643 -0.4540  0.2540  0.3143
  146SAPE  H11R16092  -0.176   3.218   9.574 -0.0675 -0.9536  0.2701
  146SAPE  C21216093  -0.368   3.134   9.593 -0.4358  0.3943  0.6772
  146SAPE  H12R16094  -0.376   3.105   9.487  1.2706 -1.3318  0.9734
  146SAPE  C21316095  -0.496   3.097   9.671  0.1281 -0.5932 -0.1979
  146SAPE  H13R16096  -0.463   3.098   9.777  0.4616  1.3924 -0.2764
  146SAPE  H13S16097  -0.521   2.993   9.643  0.4047 -1.2782  1.9002
  146SAPE  C21416098  -0.617   3.190   9.647  0.2260 -0.5424 -0.1689
  146SAPE  H14R16099  -0.633   3.209   9.540 -1.3354 -2.2060 -0.2848
  146SAPE  C21516100  -0.702   3.236   9.740  0.1457  0.0007 -1.1719
  146SAPE  H15R16101  -0.791   3.295   9.712 -1.2399 -1.1196  0.6796
  146SAPE  C21616102  -0.705   3.200   9.889 -0.2491  0.2706 -0.0674
  146SAPE  H16R16103  -0.642   3.109   9.898  2.4763  1.5600 -3.5743
  146SAPE  H16S16104  -0.811   3.180   9.917 -0.0114 -3.5712 -1.3619
  146SAPE  C21716105  -0.639   3.308   9.978 -0.6171 -0.0861  0.9498
  146SAPE  H17R16106  -0.654   3.410   9.938 -0.5278 -0.2844  0.4013
  146SAPE  H17S16107  -0.531   3.287   9.962 -0.6992  0.5927 -0.7039
  146SAPE  C21816108  -0.684   3.292  10.125 -1.1257  0.0609  0.1773
  146SAPE  H18R16109  -0.681   3.181  10.139  0.4908  0.0577 -0.0867
  146SAPE  H18S16110  -0.788   3.331  10.127 -1.4169 -0.6913  0.2857
  146SAPE  C21916111  -0.585   3.359  10.222  0.0955 -0.9192 -0.1026
  146SAPE  H19R16112  -0.577   3.467  10.199 -1.1584 -1.0523 -1.3118
  146SAPE  H19S16113  -0.481   3.326  10.202  0.1723 -1.7114  1.4325
  146SAPE  C22016114  -0.610   3.332  10.364 -0.5870  0.0321  0.0601
  146SAPE  H20R16115  -0.629   3.225  10.386  1.0956 -0.1769  0.6146
  146SAPE  H20S16116  -0.697   3.397  10.387 -0.0050  0.6846  0.4790
  146SAPE  H20T16117  -0.528   3.364  10.432  0.0454 -1.0194 -0.1828
  146SAPE   C3316118   0.992   3.726  10.650 -0.2536  0.3082 -0.5507
  146SAPE   H3X16119   1.010   3.660  10.737 -1.1840  2.6092  1.5060
  146SAPE   H3Y16120   1.034   3.825  10.677  0.5061 -0.0750 -0.2761
  146SAPE   C3416121   1.061   3.686  10.518 -0.4417  0.0858 -0.1469
  146SAPE   H4X16122   1.023   3.759  10.444 -2.0055 -1.3224 -0.7961
  146SAPE   H4Y16123   1.034   3.583  10.488  1.6165 -0.4269 -0.3928
  146SAPE   C3516124   1.218   3.695  10.535  0.9364  0.4684  0.4780
  146SAPE   H5X16125   1.235   3.653  10.636  1.2681 -1.5796 -0.3838
  146SAPE   H5Y16126   1.234   3.805  10.546  1.1118  0.4497  0.4070
  146SAPE   C3616127   1.305   3.630  10.433 -0.0653 -0.4692 -0.3029
  146SAPE   H6X16128   1.296   3.520  10.441  0.0804 -0.6010 -1.6333
  146SAPE   H6Y16129   1.409   3.656  10.460 -0.2415 -1.6330  1.6428
  146SAPE   C3716130   1.277   3.677  10.288 -0.1629  0.8207 -0.1518
  146SAPE   H7X16131   1.280   3.788  10.294 -0.2594  0.7718  0.8477
  146SAPE   H7Y16132   1.174   3.646  10.260 -0.2402  1.0682 -0.1430
  146SAPE   C3816133   1.393   3.632  10.192  0.1579  0.5558 -0.5967
  146SAPE   H8X16134   1.415   3.524  10.209  1.6944  0.7057 -1.4410
  146SAPE   H8Y16135   1.482   3.692  10.220  0.6200  0.1297 -1.1272
  146SAPE   C3916136   1.361   3.658  10.045 -0.8816  0.1611 -0.2305
  146SAPE   H9X16137   1.342   3.764  10.016  1.0824  1.1092  1.6478
  146SAPE   H9Y16138   1.266   3.606  10.021 -0.7929  0.4121 -1.1849
  146SAPE  C31016139   1.477   3.611   9.958 -0.3258  0.1657  0.2295
  146SAPE  H10X16140   1.524   3.516   9.992 -0.7202  0.2028  0.9046
  146SAPE  H10Y16141   1.562   3.681   9.977 -0.9641  0.9274  0.3464
  146SAPE  C31116142   1.456   3.589   9.813 -0.1273  0.4732 -0.4467
  146SAPE  H11X16143   1.359   3.537   9.793  0.5735 -0.2784 -2.0981
  146SAPE  H11Y16144   1.543   3.536   9.769 -1.1465 -0.7312 -1.0688
  146SAPE  C31216145   1.449   3.718   9.720 -0.3764 -0.8363  0.1838
  146SAPE  H12X16146   1.546   3.767   9.741  0.6116 -4.0118  4.3457
  146SAPE  H12Y16147   1.355   3.772   9.742  0.0586  0.2751 -0.6246
  146SAPE  C31316148   1.439   3.678   9.575 -0.4991  0.1178 -0.2523
  146SAPE  H13X16149   1.400   3.760   9.511 -1.8650 -0.5801 -0.3380
  146SAPE  H13Y16150   1.364   3.596   9.573 -1.4642  0.9813 -2.1197
  146SAPE  C31416151   1.565   3.615   9.504 -0.2502  0.1556  0.1383
  146SAPE  H14X16152   1.622   3.542   9.566 -1.2247 -1.2147 -0.5265
  146SAPE  H14Y16153   1.640   3.692   9.476 -0.8885  0.9162  0.4689
  146SAPE  C31516154   1.525   3.549   9.369 -0.1302  0.4737 -0.6948
  146SAPE  H15X16155   1.433   3.496   9.401  0.5844 -0.0284  0.6509
  146SAPE  H15Y16156   1.604   3.474   9.348 -0.3209 -0.4794  1.6580
  146SAPE  C31616157   1.514   3.631   9.237 -0.5627  0.0355 -0.1325
  146SAPE  H16X16158   1.617   3.667   9.214 -0.6229  0.0265 -0.4218
  146SAPE  H16Y16159   1.457   3.724   9.255 -2.0467 -0.6550 -1.0295
  146SAPE  C31716160   1.454   3.554   9.116  0.3873 -0.3538 -0.0385
  146SAPE  H17X16161   1.446   3.624   9.030  1.5759 -0.8609 -0.5758
  146SAPE  H17Y16162   1.354   3.519   9.151 -1.4394  3.1233 -1.2943
  146SAPE  C31816163   1.543   3.444   9.058  0.1384  0.2366 -0.3376
  146SAPE  H18X16164   1.535   3.351   9.119  0.9185  1.4703  1.7497
  146SAPE  H18Y16165   1.646   3.487   9.059 -0.3161  1.3624 -1.0272
  146SAPE  H18Z16166   1.520   3.405   8.957 -0.0855 -1.0053  0.1783
  147SAPE     N16167   6.666   6.685  10.995  0.0915 -0.1108 -0.2037
  147SAPE   HN116168   6.714   6.765  11.042  2.2068 -1.4115 -0.0352
  147SAPE   HN216169   6.567   6.708  11.018  0.7603  3.8254 -0.5642
  147SAPE   HN316170   6.712   6.604  11.041  0.5680  0.1725 -0.1707
  147SAPE   C1216171   6.692   6.698  10.845  0.6852  0.3597  0.2556
  147SAPE  H12A16172   6.657   6.795  10.804 -0.4975  0.2852  1.0403
  147SAPE  H12B16173   6.642   6.618  10.786  2.6392 -0.6916 -0.0812
  147SAPE   C1116174   6.847   6.703  10.822  0.4091  0.5222  0.3963
  147SAPE  H11A16175   6.895   6.759  10.905 -0.1207  1.3460  0.1626
  147SAPE  H11B16176   6.866   6.768  10.733  0.9342 -0.5741 -0.3249
  147SAPE     P16177   6.958   6.494  10.919 -0.1870 -0.2333  0.3514
  147SAPE   O1316178   6.884   6.540  11.033 -0.1668 -0.2283 -0.1904
  147SAPE   O1416179   6.954   6.349  10.892  0.0716 -0.4753 -0.0734
  147SAPE   O1216180   6.898   6.572  10.794  0.4512 -0.6345 -0.6525
  147SAPE   O1116181   7.099   6.549  10.919 -0.6198 -0.2275  0.1868
  147SAPE    C116182   7.167   6.611  10.811 -0.3045  0.0783 -0.2398
  147SAPE    HA16183   7.121   6.710  10.793 -0.0790  0.5252  1.4273
  147SAPE    HB16184   7.264   6.649  10.851  1.0293 -0.9571 -2.3224
  147SAPE    C216185   7.214   6.513  10.701 -0.0509  0.2468  0.6895
  147SAPE    HS16186   7.302   6.550  10.644  1.0521  2.3461  3.5362
  147SAPE   O2116187   7.105   6.486  10.614 -0.1140  0.2055 -0.2579
  147SAPE   C2116188   7.062   6.586  10.543  0.2396 -0.0442 -0.3884
  147SAPE   O2216189   7.113   6.697  10.533  0.2184 -0.2068  0.4267
  147SAPE   C2216190   6.940   6.554  10.467  0.5426  0.3893  0.2987
  147SAPE   H2R16191   6.958   6.446  10.448  1.0474  0.7154 -1.2920
  147SAPE   H2S16192   6.848   6.570  10.528  0.7060 -0.5909  0.8253
  147SAPE    C316193   7.268   6.379  10.764  0.5232  0.1669 -0.8749
  147SAPE    HX16194   7.192   6.316  10.813  1.7761 -0.2977  0.5496
  147SAPE    HY16195   7.347   6.412  10.835  2.7791 -2.0479 -2.1767
  147SAPE   O3116196   7.332   6.295  10.663 -0.9955  0.4374  0.7069
  147SAPE   C3116197   7.461   6.259  10.687  0.1033  0.0669 -1.1673
  147SAPE   O3216198   7.535   6.314  10.766  0.3112 -0.0670 -0.6816
  147SAPE   C3216199   7.500   6.159  10.585 -0.5333  0.3893 -0.1955
  147SAPE   H2X16200   7.462   6.196  10.488  0.5386  0.2829 -0.6734
  147SAPE   H2Y16201   7.435   6.070  10.602 -1.7426  1.3425  0.2810
  147SAPE   C2316202   6.919   6.624  10.320  0.3082  0.4534 -0.4839
  147SAPE   H3R16203   6.931   6.733  10.338  1.6405  0.2404  0.0921
  147SAPE   H3S16204   6.817   6.607  10.280  0.6346 -1.3254 -0.6457
  147SAPE   C2416205   7.017   6.595  10.207 -0.4479  1.0552  0.2324
  147SAPE   H4R16206   7.022   6.487  10.183 -1.2778  1.1893 -0.6146
  147SAPE   H4S16207   7.123   6.612  10.237 -0.5790  1.2188  0.6099
  147SAPE   C2516208   6.982   6.671  10.078 -0.9009 -0.6090  0.1153
  147SAPE   H5R16209   6.882   6.718  10.081 -2.3005 -3.1126 -2.6358
  147SAPE   C2616210   7.042   6.646   9.957  0.4346  0.0057 -0.1729
  147SAPE   H6R16211   7.004   6.696   9.867 -1.5720 -1.3433 -0.1283
  147SAPE   C2716212   7.149   6.543   9.927  0.3390 -0.0683 -0.0097
  147SAPE   H7R16213   7.209   6.503  10.012 -0.6098 -1.8916 -0.1519
  147SAPE   H7S16214   7.233   6.583   9.866  0.1474  1.3694  0.6366
  147SAPE   C2816215   7.085   6.433   9.848  0.6633  0.4469 -0.1635
  147SAPE   H8R16216   7.070   6.341   9.906 -1.4971  0.9284  0.1129
  147SAPE   C2916217   7.074   6.427   9.713 -0.3042 -0.3547  1.0246
  147SAPE   H9R16218   7.013   6.352   9.661 -0.0677  1.1899 -1.6309
  147SAPE  C21016219   7.111   6.540   9.622  0.0142  0.5529  1.0649
  147SAPE  H10R16220   7.208   6.525   9.571 -2.0731 -0.0665 -3.1420
  147SAPE  H10S16221   7.111   6.635   9.680  1.2296  0.1493  1.7570
  147SAPE  C21116222   7.023   6.564   9.503  0.1117  0.8019 -0.0801
  147SAPE  H11R16223   6.932   6.502   9.507  1.4770 -1.3281 -0.7642
  147SAPE  C21216224   7.053   6.647   9.399  0.3680 -0.3772 -0.1185
  147SAPE  H12R16225   6.979   6.652   9.318  0.5896 -1.9248 -0.4548
  147SAPE  C21316226   7.184   6.723   9.386 -0.6926  0.2534  1.0929
  147SAPE  H13R16227   7.221   6.696   9.284  0.2156  1.6157  1.0441
  147SAPE  H13S16228   7.262   6.690   9.457  0.8410 -0.0226 -0.6374
  147SAPE  C21416229   7.164   6.869   9.388  0.1715  0.3720 -0.1224
  147SAPE  H14R16230   7.117   6.918   9.302 -1.0855 -1.5282 -0.5559
  147SAPE  C21516231   7.205   6.953   9.484  0.2892  0.5195 -0.7869
  147SAPE  H15R16232   7.175   7.059   9.480  1.1639  0.8831  0.9409
  147SAPE  C21616233   7.285   6.907   9.610  0.2949 -0.0557  0.3917
  147SAPE  H16R16234   7.389   6.944   9.597 -0.4127  1.3113 -2.0133
  147SAPE  H16S16235   7.300   6.799   9.632 -0.9041 -0.2377  0.3869
  147SAPE  C21716236   7.213   6.971   9.735  0.8914  0.6341  0.3470
  147SAPE  H17R16237   7.116   6.917   9.749  2.2630 -1.3989  3.0497
  147SAPE  H17S16238   7.190   7.075   9.706 -1.9373 -1.0703 -4.7528
  147SAPE  C21816239   7.293   6.959   9.864  0.4475  0.4330  0.1173
  147SAPE  H18R16240   7.390   7.007   9.842  0.9668  0.4035  2.1906
  147SAPE  H18S16241   7.309   6.853   9.894  1.3857  0.8742  1.2218
  147SAPE  C21916242   7.217   7.034   9.971  0.1561  0.2397 -0.4023
  147SAPE  H19R16243   7.108   7.038   9.949 -0.0722 -0.7461  0.4654
  147SAPE  H19S16244   7.248   7.140   9.971 -1.5616  0.7715  0.3793
  147SAPE  C22016245   7.241   6.971  10.106 -0.2459 -0.2078 -0.0954
  147SAPE  H20R16246   7.342   6.990  10.149 -0.3287 -0.1900  0.0950
  147SAPE  H20S16247   7.213   6.863  10.107  0.4090 -0.5442  4.4089
  147SAPE  H20T16248   7.165   7.009  10.178 -2.7572 -2.8933 -1.1273
  147SAPE   C3316249   7.655   6.127  10.576  0.1918  0.0358  0.2913
  147SAPE   H3X16250   7.690   6.078  10.669 -2.0433 -3.9291 -0.7098
  147SAPE   H3Y16251   7.714   6.216  10.548 -1.0576 -0.0216 -2.9907
  147SAPE   C3416252   7.688   6.019  10.464  0.6701 -0.0688 -0.0655
  147SAPE   H4X16253   7.607   5.944  10.478 -1.7136  1.7280 -2.9370
  147SAPE   H4Y16254   7.786   5.971  10.486  0.8775  1.8916  4.2251
  147SAPE   C3516255   7.680   6.084  10.326  0.1319  0.1769  0.9074
  147SAPE   H5X16256   7.769   6.150  10.327 -0.6999  1.4524 -1.3409
  147SAPE   H5Y16257   7.589   6.144  10.306 -0.0699 -0.5225 -0.3534
  147SAPE   C3616258   7.703   5.981  10.208 -0.2296  0.2558 -0.2389
  147SAPE   H6X16259   7.616   5.912  10.199 -1.3944  1.6917 -0.3711
  147SAPE   H6Y16260   7.793   5.918  10.222  0.0645  0.3647 -1.4757
  147SAPE   C3716261   7.733   6.046  10.074  0.7846  0.3277  0.2099
  147SAPE   H7X16262   7.817   6.119  10.079 -0.7898  2.3541 -0.9959
  147SAPE   H7Y16263   7.643   6.102  10.040  1.2208  2.5684  2.4509
  147SAPE   C3816264   7.765   5.947   9.958 -0.1956  0.2926  0.2656
  147SAPE   H8X16265   7.719   5.845   9.965  0.6820 -0.0567  1.2552
  147SAPE   H8Y16266   7.876   5.947   9.953 -0.1637  3.1513 -0.5913
  147SAPE   C3916267   7.723   6.003   9.819  0.3113 -0.3519  0.3817
  147SAPE   H9X16268   7.727   6.114   9.825 -1.8987 -0.3055  2.3990
  147SAPE   H9Y16269   7.622   5.973   9.784  1.3889 -1.5744 -1.9669
  147SAPE  C31016270   7.819   5.951   9.714 -0.3155 -0.5940  0.2254
  147SAPE  H10X16271   7.834   5.841   9.723 -2.6072 -1.2842 -2.7934
  147SAPE  H10Y16272   7.909   6.007   9.748 -0.7937 -0.8228  1.9403
  147SAPE  C31116273   7.783   5.988   9.571  0.6149  0.4037 -0.4781
  147SAPE  H11X16274   7.770   6.097   9.554  0.2488  0.9019  2.4400
  147SAPE  H11Y16275   7.688   5.941   9.538 -0.1330  0.7232  1.1318
  147SAPE  C31216276   7.887   5.937   9.472  0.3943 -0.1367  0.5774
  147SAPE  H12X16277   7.927   5.839   9.504 -0.9591 -0.1429  2.4542
  147SAPE  H12Y16278   7.970   6.010   9.486 -0.0759  0.0408  3.0392
  147SAPE  C31316279   7.819   5.956   9.333 -0.8898  0.3376  0.1274
  147SAPE  H13X16280   7.789   6.062   9.327  0.7662  0.8208 -0.2323
  147SAPE  H13Y16281   7.733   5.887   9.319 -0.7471  0.4468 -1.4174
  147SAPE  C31416282   7.907   5.920   9.216  0.8618 -0.7660  0.1646
  147SAPE  H14X16283   7.944   5.815   9.222  0.9415 -0.6743  1.7091
  147SAPE  H14Y16284   7.996   5.987   9.218  2.5285 -2.8784  1.2121
  147SAPE  C31516285   7.835   5.944   9.080 -0.3747 -0.2662  0.8319
  147SAPE  H15X16286   7.781   6.041   9.080  0.1088  0.1171 -2.7664
  147SAPE  H15Y16287   7.761   5.863   9.065  0.6902 -0.8661 -1.5483
  147SAPE  C31616288   7.932   5.936   8.955  0.1927  0.4139 -0.5347
  147SAPE  H16X16289   8.004   5.852   8.965  0.7452  0.9983  0.6482
  147SAPE  H16Y16290   7.992   6.030   8.960 -0.4792  0.9564 -2.1029
  147SAPE  C31716291   7.863   5.919   8.822  0.0432 -0.7823  0.2218
  147SAPE  H17X16292   7.797   6.008   8.815  0.6445 -0.3052  0.5851
  147SAPE  H17Y16293   7.793   5.833   8.811  2.0782 -2.4275 -0.6391
  147SAPE  C31816294   7.944   5.912   8.694 -0.1959  0.5446 -0.6098
  147SAPE  H18X16295   8.007   5.820   8.698  0.5755  1.1108  0.9086
  147SAPE  H18Y16296   8.015   5.997   8.687  2.4316 -1.1345  2.7989
  147SAPE  H18Z16297   7.878   5.905   8.605 -0.4865 -1.2136 -0.2951
  148SAPE     N16298   2.297   1.580  11.120 -0.2826  0.3505 -0.3911
  148SAPE   HN116299   2.352   1.554  11.205  1.2613 -0.4553 -1.5955
  148SAPE   HN216300   2.348   1.644  11.057  1.9010 -1.6789 -0.8267
  148SAPE   HN316301   2.204   1.620  11.145  0.3066  0.1279  2.5563
  148SAPE   C1216302   2.261   1.452  11.049  0.3648 -0.0051  0.1010
  148SAPE  H12A16303   2.187   1.399  11.114  0.1486 -0.9310 -0.8754
  148SAPE  H12B16304   2.351   1.389  11.033  1.7280  1.8637  0.0842
  148SAPE   C1116305   2.205   1.487  10.907 -0.0207  0.3726 -0.4117
  148SAPE  H11A16306   2.221   1.397  10.844  0.5300  0.1116  0.0835
  148SAPE  H11B16307   2.285   1.553  10.867  2.9129 -1.2216  2.2709
  148SAPE     P16308   1.953   1.451  10.884 -0.0270  0.4981  0.0231
  148SAPE   O1316309   2.003   1.317  10.936  0.3967  0.1271 -0.1514
  148SAPE   O1416310   1.832   1.519  10.942  0.5785  0.2841 -0.3198
  148SAPE   O1216311   2.077   1.545  10.899 -0.4808 -0.0305 -0.4184
  148SAPE   O1116312   1.943   1.441  10.722 -0.2228  0.0092 -0.5645
  148SAPE    C116313   1.958   1.558  10.649  0.7514 -0.0730 -0.5838
  148SAPE    HA16314   2.041   1.625  10.684 -1.1740  2.1569 -0.0300
  148SAPE    HB16315   1.993   1.529  10.548  2.7047  0.5478 -0.1505
  148SAPE    C216316   1.828   1.640  10.627 -0.0603 -0.1018 -0.1784
  148SAPE    HS16317   1.790   1.677  10.724 -0.3711  0.3826 -0.4786
  148SAPE   O2116318   1.748   1.556  10.548  0.1788 -0.2542  0.1009
  148SAPE   C2116319   1.619   1.568  10.555 -0.2877  0.5078  0.3064
  148SAPE   O2216320   1.560   1.645  10.631 -0.2200 -0.0131 -0.1372
  148SAPE   C2216321   1.546   1.465  10.465 -0.0739  0.7346 -0.4331
  148SAPE   H2R16322   1.616   1.385  10.435 -0.5865 -0.1495  0.6362
  148SAPE   H2S16323   1.458   1.424  10.519  0.0432  0.2679 -0.5977
  148SAPE    C316324   1.863   1.772  10.556 -0.2574 -0.6050 -0.2378
  148SAPE    HX16325   1.923   1.819  10.637 -0.8464 -2.4944  1.3606
  148SAPE    HY16326   1.767   1.828  10.544 -0.5413 -1.3265 -1.6177
  148SAPE   O3116327   1.926   1.748  10.426 -0.0194 -0.1866  0.3420
  148SAPE   C3116328   1.977   1.848  10.368  0.4477 -0.8095  0.2972
  148SAPE   O3216329   1.991   1.960  10.415 -0.5390  0.3850  0.0185
  148SAPE   C3216330   2.021   1.806  10.225 -0.3351 -0.1386 -0.0466
  148SAPE   H2X16331   2.047   1.698  10.238  1.6883 -0.0688 -2.7652
  148SAPE   H2Y16332   2.106   1.866  10.186 -2.0378  0.2365 -3.5432
  148SAPE   C2316333   1.478   1.540  10.341 -0.0421  0.7550  0.0009
  148SAPE   H3R16334   1.402   1.611  10.382 -1.2224  0.4753 -1.6201
  148SAPE   H3S16335   1.432   1.465  10.274 -1.7324  2.3902 -0.7626
  148SAPE   C2416336   1.571   1.619  10.242  0.6223 -0.1290 -0.8110
  148SAPE   H4R16337   1.628   1.685  10.310  5.3548 -2.7465 -1.7764
  148SAPE   H4S16338   1.510   1.681  10.173  0.6029  0.4075 -0.3191
  148SAPE   C2516339   1.665   1.536  10.163  0.4704 -0.0108 -0.0081
  148SAPE   H5R16340   1.754   1.520  10.225  0.5764 -3.2773 -0.8222
  148SAPE   C2616341   1.648   1.480  10.038  0.4981 -0.9049  0.3111
  148SAPE   H6R16342   1.731   1.419   9.999  2.9777  2.0044  0.6239
  148SAPE   C2716343   1.526   1.502   9.952  0.4191  0.7095  0.0348
  148SAPE   H7R16344   1.434   1.504  10.014 -1.0160  4.4033 -1.9153
  148SAPE   H7S16345   1.518   1.412   9.888  0.3460 -0.1640  1.2318
  148SAPE   C2816346   1.527   1.631   9.867 -0.2068 -0.0700  0.0858
  148SAPE   H8R16347   1.515   1.721   9.929  0.7906 -2.3894  4.0666
  148SAPE   C2916348   1.537   1.642   9.733 -0.2503  0.5603  0.3556
  148SAPE   H9R16349   1.527   1.742   9.689 -0.7102 -0.3737 -1.7911
  148SAPE  C21016350   1.534   1.527   9.635  0.6289  0.7263 -1.3344
  148SAPE  H10R16351   1.609   1.448   9.661 -0.7174 -0.5607 -1.2244
  148SAPE  H10S16352   1.567   1.573   9.539  0.3033  0.0894 -1.7613
  148SAPE  C21116353   1.390   1.476   9.633  0.6319 -0.7266 -1.0128
  148SAPE  H11R16354   1.356   1.417   9.719  0.8150  0.3302 -0.1969
  148SAPE  C21216355   1.307   1.491   9.527  0.3115  0.6964  0.6331
  148SAPE  H12R16356   1.205   1.450   9.530  0.5944 -0.2338 -1.0316
  148SAPE  C21316357   1.351   1.558   9.395 -0.1354  0.1618 -0.7271
  148SAPE  H13R16358   1.413   1.483   9.342  1.9236  1.5060 -0.3186
  148SAPE  H13S16359   1.425   1.639   9.411 -1.8359  2.2234 -2.6366
  148SAPE  C21416360   1.245   1.610   9.300 -0.1139  0.1576 -0.2118
  148SAPE  H14R16361   1.185   1.691   9.344  1.1607  0.9430  0.1595
  148SAPE  C21516362   1.208   1.561   9.174  0.1290  0.3431  0.3458
  148SAPE  H15R16363   1.134   1.616   9.115  1.1612  0.0458 -1.2876
  148SAPE  C21616364   1.277   1.444   9.107 -0.9207  0.0377 -0.2719
  148SAPE  H16R16365   1.221   1.348   9.119  1.2818 -1.5263 -1.6641
  148SAPE  H16S16366   1.379   1.423   9.146 -1.0058  0.0844 -0.0247
  148SAPE  C21716367   1.299   1.464   8.958 -0.1216 -0.0644  0.2870
  148SAPE  H17R16368   1.369   1.386   8.921  0.6727 -1.4119  4.1765
  148SAPE  H17S16369   1.353   1.560   8.944 -0.8860  0.5519  1.4678
  148SAPE  C21816370   1.172   1.454   8.871 -0.0212 -0.1093 -0.3324
  148SAPE  H18R16371   1.202   1.428   8.767 -0.8310  0.0834 -0.6257
  148SAPE  H18S16372   1.117   1.549   8.884 -2.8220 -1.3669 -2.1794
  148SAPE  C21916373   1.081   1.342   8.918 -0.3147  1.0159  0.2702
  148SAPE  H19R16374   1.022   1.371   9.007  0.1745  0.1852  0.8784
  148SAPE  H19S16375   1.141   1.255   8.953  1.2441  1.3248 -1.4764
  148SAPE  C22016376   0.983   1.289   8.814 -0.5021  0.1647  0.6337
  148SAPE  H20R16377   1.029   1.291   8.712 -1.2476  2.9375  0.2629
  148SAPE  H20S16378   0.897   1.359   8.820 -0.0523  0.5945  3.8397
  148SAPE  H20T16379   0.950   1.185   8.831  1.4345 -0.6676 -0.3049
  148SAPE   C3316380   1.905   1.819  10.123 -0.3226 -0.4524 -0.0768
  148SAPE   H3X16381   1.871   1.924  10.113 -0.5903 -0.6389 -1.2231
  148SAPE   H3Y16382   1.814   1.764  10.157 -0.2583 -0.7345 -0.3593
  148SAPE   C3416383   1.961   1.757   9.995 -0.7740 -0.1365 -0.2510
  148SAPE   H4X16384   1.902   1.663   9.986 -2.7907  0.8716  1.6320
  148SAPE   H4Y16385   2.065   1.721  10.007 -0.6850  0.5367  1.2427
  148SAPE   C3516386   1.939   1.851   9.876  0.3091 -0.3578 -0.0126
  148SAPE   H5X16387   2.000   1.943   9.887  0.4370 -0.4945  0.4604
  148SAPE   H5Y16388   1.837   1.895   9.875  0.4070 -0.0454  1.6092
  148SAPE   C3616389   1.955   1.781   9.740 -0.4626  0.0487 -0.0066
  148SAPE   H6X16390   1.866   1.715   9.728 -0.5343 -0.0426  0.9972
  148SAPE   H6Y16391   2.041   1.711   9.741 -0.4927 -0.0510  2.6391
  148SAPE   C3716392   1.968   1.876   9.612 -0.5611  0.2428  0.2391
  148SAPE   H7X16393   2.064   1.930   9.618 -1.0139  0.9521  1.3853
  148SAPE   H7Y16394   1.889   1.954   9.621 -0.5129  0.5492 -1.5562
  148SAPE   C3816395   1.965   1.802   9.484 -0.5649  0.2208  0.3533
  148SAPE   H8X16396   1.891   1.719   9.492  1.5123 -1.5900  2.1610
  148SAPE   H8Y16397   2.065   1.756   9.470 -1.4454 -1.2332 -1.9145
  148SAPE   C3916398   1.928   1.890   9.356 -0.0332  0.4773 -1.2157
  148SAPE   H9X16399   1.969   1.988   9.390  0.4589  0.2172 -1.0479
  148SAPE   H9Y16400   1.818   1.887   9.345 -0.2045  1.2068  0.1364
  148SAPE  C31016401   2.007   1.850   9.232 -0.0054  0.5363 -0.1995
  148SAPE  H10X16402   1.931   1.790   9.178 -0.7937  0.6773  0.7366
  148SAPE  H10Y16403   2.097   1.787   9.251  0.1157  0.5258 -0.7916
  148SAPE  C31116404   2.040   1.973   9.147  0.9004  0.7379  0.2624
  148SAPE  H11X16405   2.098   2.053   9.197  2.5684  1.2905 -2.3691
  148SAPE  H11Y16406   1.947   2.030   9.123  0.5716 -0.5347 -1.7356
  148SAPE  C31216407   2.094   1.951   9.011 -0.1470  0.2536 -0.3524
  148SAPE  H12X16408   2.189   1.897   9.029  0.4865  0.3333 -3.0508
  148SAPE  H12Y16409   2.113   2.047   8.959 -1.9699  0.8414 -0.0257
  148SAPE  C31316410   2.011   1.868   8.917 -0.0581 -0.0297 -0.1283
  148SAPE  H13X16411   1.907   1.907   8.920  0.7880  2.3405  0.5670
  148SAPE  H13Y16412   2.007   1.761   8.948 -0.5833 -0.0036 -0.0980
  148SAPE  C31416413   2.054   1.883   8.770 -0.6863 -0.1698  0.7548
  148SAPE  H14X16414   2.163   1.866   8.758 -0.4206  1.8213  0.0786
  148SAPE  H14Y16415   2.045   1.985   8.728  2.2005 -0.5840 -1.2023
  148SAPE  C31516416   1.977   1.776   8.691 -0.6226 -0.1124 -0.5996
  148SAPE  H15X16417   1.869   1.800   8.704 -0.1861  1.6416  0.0803
  148SAPE  H15Y16418   1.993   1.678   8.741  0.3606  0.4533  0.2216
  148SAPE  C31616419   2.031   1.759   8.544 -0.4048  0.4148  0.1868
  148SAPE  H16X16420   1.971   1.831   8.484  0.6509  0.0679 -1.3494
  148SAPE  H16Y16421   1.985   1.663   8.514  0.4367  0.1898 -0.4143
  148SAPE  C31716422   2.168   1.763   8.493 -0.8309 -0.0275 -0.2335
  148SAPE  H17X16423   2.217   1.861   8.509 -0.1984 -0.4436  0.4440
  148SAPE  H17Y16424   2.153   1.739   8.386 -3.6536 -0.4936  0.1759
  148SAPE  C31816425   2.253   1.662   8.562 -0.5955 -0.7635 -0.5093
  148SAPE  H18X16426   2.358   1.660   8.527 -0.5435 -2.8966 -0.3247
  148SAPE  H18Y16427   2.224   1.557   8.544 -3.1649 -0.0059 -1.1872
  148SAPE  H18Z16428   2.252   1.678   8.672 -3.4437  1.8523 -0.7654
  149SAPE     N16429   5.164   2.737  11.044  0.0977  0.8940  0.4105
  149SAPE   HN116430   5.259   2.717  11.082  0.0428  0.5010  0.3544
  149SAPE   HN216431   5.097   2.767  11.119 -0.5431  1.0982 -0.2322
  149SAPE   HN316432   5.149   2.648  10.991  2.1954  0.9869 -0.4147
  149SAPE   C1216433   5.170   2.842  10.938  0.0284 -0.3088 -0.0185
  149SAPE  H12A16434   5.205   2.799  10.842 -0.9774 -0.1641 -0.4662
  149SAPE  H12B16435   5.241   2.917  10.979  1.6307 -1.1220 -1.2062
  149SAPE   C1116436   5.029   2.904  10.902 -0.4468  0.5591 -0.6225
  149SAPE  H11A16437   4.967   2.834  10.843 -1.2142  1.9548 -1.4995
  149SAPE  H11B16438   5.059   2.985  10.833  0.7655 -0.7100 -1.6535
  149SAPE     P16439   4.964   3.082  11.076  0.1613 -0.0973  0.1018
  149SAPE   O1316440   4.888   3.092  11.204 -0.6106 -0.4357 -0.5547
  149SAPE   O1416441   5.106   3.117  11.088  0.3630  0.3526 -0.4998
  149SAPE   O1216442   4.945   2.939  11.015 -0.3100 -0.3125  0.0416
  149SAPE   O1116443   4.899   3.168  10.959 -0.0577 -0.0469  0.6669
  149SAPE    C116444   4.765   3.141  10.917  0.1839  0.2367  0.2376
  149SAPE    HA16445   4.728   3.047  10.963  0.9543 -0.2984 -0.2152
  149SAPE    HB16446   4.704   3.227  10.951  1.1403  0.2146  2.1612
  149SAPE    C216447   4.752   3.119  10.766 -0.3360  0.4283  0.1110
  149SAPE    HS16448   4.814   3.028  10.748 -1.5514 -0.7777  1.7504
  149SAPE   O2116449   4.806   3.233  10.699  0.4035 -0.0088 -0.0522
  149SAPE   C2116450   4.924   3.206  10.630 -0.1127  0.0761 -0.0124
  149SAPE   O2216451   4.969   3.098  10.601  0.4635  0.1485  0.3287
  149SAPE   C2216452   4.998   3.343  10.603 -0.7583 -0.0911 -0.2878
  149SAPE   H2R16453   5.085   3.346  10.672  1.1932  0.1707 -2.5903
  149SAPE   H2S16454   5.046   3.334  10.503 -1.4908  1.2501 -0.7818
  149SAPE    C316455   4.604   3.082  10.716 -0.2620 -0.1515 -0.6820
  149SAPE    HX16456   4.539   3.166  10.748 -1.9130 -0.4284 -3.0239
  149SAPE    HY16457   4.576   2.991  10.774 -2.0818  0.3724 -0.6669
  149SAPE   O3116458   4.606   3.073  10.570 -0.0295 -0.2053  0.5045
  149SAPE   C3116459   4.636   2.957  10.525 -0.6768  0.5394  0.2734
  149SAPE   O3216460   4.669   2.858  10.589 -0.0192 -0.3094 -0.0274
  149SAPE   C3216461   4.635   2.959  10.371  0.1351 -0.4638 -0.5160
  149SAPE   H2X16462   4.540   3.003  10.334  0.6383 -0.8045 -2.2879
  149SAPE   H2Y16463   4.643   2.854  10.334  0.0551 -1.4914  2.1572
  149SAPE   C2316464   4.912   3.464  10.613  0.0215 -0.8451  0.7750
  149SAPE   H3R16465   4.869   3.476  10.714  3.4512  1.0270  2.1750
  149SAPE   H3S16466   4.829   3.461  10.539  1.0488 -0.1304 -0.4588
  149SAPE   C2416467   4.986   3.595  10.583 -0.2032 -0.0066 -0.3931
  149SAPE   H4R16468   5.027   3.590  10.480  0.0726 -0.3251 -0.2697
  149SAPE   H4S16469   5.082   3.601  10.638 -0.3996 -1.3011  0.1452
  149SAPE   C2516470   4.913   3.723  10.597  0.1869 -0.5535 -0.3989
  149SAPE   H5R16471   4.889   3.746  10.702 -0.2215 -1.0765 -0.3724
  149SAPE   C2616472   4.885   3.819  10.509 -0.0543  0.5690  0.2157
  149SAPE   H6R16473   4.845   3.917  10.535 -0.6626  0.9712 -1.9911
  149SAPE   C2716474   4.916   3.806  10.361  0.4119  0.0682 -0.5525
  149SAPE   H7R16475   4.856   3.881  10.305  0.4025  0.2345 -0.3209
  149SAPE   H7S16476   4.883   3.704  10.331 -1.9238  0.4587  0.5318
  149SAPE   C2816477   5.053   3.825  10.301 -0.3603 -0.6704 -0.7458
  149SAPE   H8R16478   5.130   3.765  10.352 -0.7866  0.6022  1.5545
  149SAPE   C2916479   5.084   3.897  10.202  0.1380 -0.1107 -0.3117
  149SAPE   H9R16480   5.189   3.913  10.174  0.7760  1.0932  2.4967
  149SAPE  C21016481   4.985   3.992  10.125 -0.3647 -0.1918  0.5236
  149SAPE  H10R16482   5.048   4.072  10.079  0.2504 -1.9178 -1.8270
  149SAPE  H10S16483   4.916   4.047  10.193 -1.5592 -2.6253  1.3827
  149SAPE  C21116484   4.887   3.927  10.023 -0.2623 -0.1118 -0.3178
  149SAPE  H11R16485   4.809   3.859  10.061 -2.4554  1.6293 -1.4798
  149SAPE  C21216486   4.895   3.939   9.884  0.0385  0.3524 -0.4673
  149SAPE  H12R16487   4.817   3.887   9.826 -0.3986  0.8379 -0.3276
  149SAPE  C21316488   4.998   4.022   9.807  0.0822  0.2112  0.2938
  149SAPE  H13R16489   5.029   3.953   9.725 -1.4067  0.2977 -0.3637
  149SAPE  H13S16490   5.087   4.055   9.865 -0.3350  0.7729  0.6171
  149SAPE  C21416491   4.920   4.143   9.755  0.4516 -0.1141 -0.6792
  149SAPE  H14R16492   4.918   4.226   9.827  1.7282 -0.5724 -0.0787
  149SAPE  C21516493   4.866   4.165   9.636 -0.2091  0.2125 -0.0538
  149SAPE  H15R16494   4.808   4.256   9.615  2.5961  2.5140  1.4338
  149SAPE  C21616495   4.868   4.058   9.522 -0.2336  0.1158 -0.1273
  149SAPE  H16R16496   4.876   3.953   9.557  0.1017 -0.5405 -2.0557
  149SAPE  H16S16497   4.961   4.079   9.464  0.9596 -2.6331  0.6190
  149SAPE  C21716498   4.759   4.086   9.415 -0.0769 -0.1971 -0.1887
  149SAPE  H17R16499   4.782   4.058   9.309  0.8275  0.3860 -0.1597
  149SAPE  H17S16500   4.749   4.195   9.400  0.7818 -0.1104 -0.1659
  149SAPE  C21816501   4.622   4.034   9.459 -0.4683  0.5415  0.1188
  149SAPE  H18R16502   4.602   4.074   9.561 -2.2092 -3.5827  1.6115
  149SAPE  H18S16503   4.634   3.924   9.471 -2.9617 -0.1281 -2.3648
  149SAPE  C21916504   4.502   4.067   9.368  0.1594  0.1444  0.3079
  149SAPE  H19R16505   4.489   4.177   9.367 -1.8647 -0.0479 -0.4212
  149SAPE  H19S16506   4.411   4.034   9.424  1.3547 -1.8807  1.1711
  149SAPE  C22016507   4.510   4.001   9.228  0.6101 -0.0085 -0.1178
  149SAPE  H20R16508   4.416   4.011   9.170  0.0117 -0.5738  0.7220
  149SAPE  H20S16509   4.556   3.902   9.243 -1.8409 -1.0762  0.9000
  149SAPE  H20T16510   4.586   4.054   9.168 -2.2106  2.8202 -1.5220
  149SAPE   C3316511   4.757   3.035  10.313 -0.4614  0.2632 -0.2070
  149SAPE   H3X16512   4.849   2.982  10.347 -0.2391  0.4985 -0.4337
  149SAPE   H3Y16513   4.755   3.141  10.347 -3.3131  0.3283 -0.3227
  149SAPE   C3416514   4.752   3.039  10.158  0.4373  0.6052 -0.6565
  149SAPE   H4X16515   4.664   3.096  10.122 -0.0157  0.5408  0.3134
  149SAPE   H4Y16516   4.731   2.933  10.130 -0.2338 -0.4836  3.3122
  149SAPE   C3516517   4.877   3.101  10.095  0.1742 -0.4380 -0.4943
  149SAPE   H5X16518   4.959   3.058  10.157  0.1290 -0.1356 -0.2221
  149SAPE   H5Y16519   4.870   3.212  10.104  1.5739 -0.3340 -0.3556
  149SAPE   C3616520   4.883   3.058   9.953  0.5546 -0.2371 -0.2732
  149SAPE   H6X16521   4.873   2.947   9.950  1.7807 -0.4272  1.3088
  149SAPE   H6Y16522   4.980   3.083   9.906 -0.2682  1.4801 -1.1586
  149SAPE   C3716523   4.767   3.108   9.864  0.4819 -0.7853 -0.1628
  149SAPE   H7X16524   4.767   3.219   9.858 -1.2636 -0.7685 -0.2873
  149SAPE   H7Y16525   4.673   3.077   9.914  0.0289  1.3724  0.4308
  149SAPE   C3816526   4.777   3.055   9.729  0.3870 -0.1393 -0.4433
  149SAPE   H8X16527   4.791   2.945   9.735  3.6523  0.2123 -0.0390
  149SAPE   H8Y16528   4.865   3.101   9.679 -0.0891  0.3890 -0.8153
  149SAPE   C3916529   4.667   3.104   9.629 -0.6470 -0.0799 -0.1315
  149SAPE   H9X16530   4.687   3.210   9.602  0.6027  0.1166  1.4256
  149SAPE   H9Y16531   4.568   3.092   9.679 -0.6613 -1.2442 -0.4166
  149SAPE  C31016532   4.658   3.029   9.489 -0.1891 -0.1817 -0.5355
  149SAPE  H10X16533   4.556   3.046   9.448 -0.3498  0.2223  0.0301
  149SAPE  H10Y16534   4.662   2.921   9.513  0.5881 -0.0322  0.0566
  149SAPE  C31116535   4.766   3.061   9.381 -0.0715 -0.5303  0.2303
  149SAPE  H11X16536   4.864   3.018   9.410 -0.3806 -0.2805  1.7251
  149SAPE  H11Y16537   4.768   3.172   9.379 -1.4277 -0.4886 -0.6835
  149SAPE  C31216538   4.727   3.010   9.235 -0.1364 -0.2510 -0.0580
  149SAPE  H12X16539   4.626   3.051   9.215 -0.6156 -0.0767  2.3388
  149SAPE  H12Y16540   4.723   2.899   9.238  2.0775 -0.3696  0.5817
  149SAPE  C31316541   4.819   3.041   9.126 -0.6703  0.0426 -0.3044
  149SAPE  H13X16542   4.919   3.008   9.161 -1.4003  0.1867  2.1062
  149SAPE  H13Y16543   4.817   3.148   9.094 -0.9701  0.6397  1.5969
  149SAPE  C31416544   4.795   2.963   8.997  0.2741 -0.1041 -0.6349
  149SAPE  H14X16545   4.703   3.002   8.948  0.5926  0.5933 -0.6957
  149SAPE  H14Y16546   4.781   2.858   9.029 -0.2852  0.2926  0.5061
  149SAPE  C31516547   4.908   2.994   8.902  0.6228 -0.1188  0.7874
  149SAPE  H15X16548   4.943   3.100   8.907  0.1910  0.1281 -0.8150
  149SAPE  H15Y16549   4.871   2.989   8.797 -0.5550  1.0789  1.1073
  149SAPE  C31616550   5.036   2.922   8.926 -0.4892 -0.3448 -0.2698
  149SAPE  H16X16551   5.013   2.817   8.953  1.0622 -0.0730  2.4943
  149SAPE  H16Y16552   5.088   2.952   9.019 -0.7365  1.4979 -0.6879
  149SAPE  C31716553   5.131   2.917   8.811  0.0903 -0.2017 -0.1216
  149SAPE  H17X16554   5.119   3.009   8.750  0.9846  1.1844  1.7198
  149SAPE  H17Y16555   5.105   2.837   8.737  1.1731 -2.2877  1.6309
  149SAPE  C31816556   5.278   2.888   8.840 -0.7483  0.1844  0.0002
  149SAPE  H18X16557   5.299   2.782   8.862  0.2600 -0.2920 -2.8738
  149SAPE  H18Y16558   5.323   2.954   8.917  3.2647  0.2630 -2.1402
  149SAPE  H18Z16559   5.333   2.905   8.745  1.2234  3.8210  1.6083
  150SAPE     N16560   6.467   3.180  10.791  0.2043 -0.5503  0.3821
  150SAPE   HN116561   6.449   3.191  10.893  1.1386  1.8963  0.3612
  150SAPE   HN216562   6.566   3.175  10.759 -1.1069 -0.0031 -4.4547
  150SAPE   HN316563   6.425   3.266  10.751 -0.6803 -1.4335 -0.6321
  150SAPE   C1216564   6.399   3.055  10.734 -0.7757  0.2562 -0.3574
  150SAPE  H12A16565   6.439   2.973  10.798 -0.6922  0.7839  0.2703
  150SAPE  H12B16566   6.434   3.041  10.629  0.1257  0.0567 -0.0381
  150SAPE   C1116567   6.245   3.064  10.729 -0.3410 -0.1788  0.5539
  150SAPE  H11A16568   6.211   2.959  10.719 -1.9101  0.3082  0.4879
  150SAPE  H11B16569   6.220   3.119  10.636 -0.9327 -2.4692 -0.7286
  150SAPE     P16570   6.066   3.058  10.921  0.2195 -0.0405 -0.1840
  150SAPE   O1316571   6.125   2.951  11.001 -0.5237  0.4277 -0.3923
  150SAPE   O1416572   5.986   3.160  10.989  0.7093 -0.0256 -0.5112
  150SAPE   O1216573   6.183   3.128  10.844 -0.2432 -0.1311 -0.0852
  150SAPE   O1116574   5.980   2.991  10.804  0.1025 -0.3954 -0.4512
  150SAPE    C116575   5.922   3.084  10.708 -0.3662  0.2287 -0.6068
  150SAPE    HA16576   5.818   3.101  10.743 -0.0520 -2.3705  1.9422
  150SAPE    HB16577   5.971   3.184  10.704 -0.4204  0.4484  2.1956
  150SAPE    C216578   5.907   3.027  10.561 -0.6609  0.3626 -0.2931
  150SAPE    HS16579   5.855   2.933  10.591  0.6718  0.7396  3.8895
  150SAPE   O2116580   6.037   3.024  10.499 -0.4956 -0.6052  0.3595
  150SAPE   C2116581   6.071   2.908  10.448  0.3604  0.2647  0.2196
  150SAPE   O2216582   5.994   2.812  10.436 -0.4730  0.2853 -0.7953
  150SAPE   C2216583   6.217   2.907  10.413 -0.5151  0.0219 -0.8348
  150SAPE   H2R16584   6.248   3.012  10.398 -2.4822  0.5065 -1.7843
  150SAPE   H2S16585   6.259   2.867  10.508 -0.5489 -1.4728 -1.4244
  150SAPE    C316586   5.826   3.122  10.468  0.2954  0.6094  0.2606
  150SAPE    HX16587   5.856   3.227  10.490  0.6822  0.5177  0.1893
  150SAPE    HY16588   5.721   3.116  10.503  0.2100 -1.5686 -0.2460
  150SAPE   O3116589   5.833   3.101  10.323 -0.2875 -0.6448  0.0789
  150SAPE   C3116590   5.737   3.035  10.261 -0.2585 -0.2879  0.5781
  150SAPE   O3216591   5.633   2.995  10.309 -0.1211  0.1742 -0.6969
  150SAPE   C3216592   5.780   3.015  10.116 -0.1302 -0.0223  0.6287
  150SAPE   H2X16593   5.876   2.961  10.125  1.5048  2.8334  1.5219
  150SAPE   H2Y16594   5.796   3.122  10.088  2.4387 -0.6611 -0.6564
  150SAPE   C2316595   6.257   2.839  10.289 -0.1653  0.2042  0.9907
  150SAPE   H3R16596   6.203   2.742  10.291 -0.7398  0.4590 -0.7200
  150SAPE   H3S16597   6.366   2.821  10.294 -0.2371 -0.7769 -0.3283
  150SAPE   C2416598   6.225   2.932  10.169  0.3715  0.4671 -0.2601
  150SAPE   H4R16599   6.292   3.020  10.179  0.9088 -0.1237  1.6736
  150SAPE   H4S16600   6.123   2.974  10.183  1.6585  3.2586  1.6999
  150SAPE   C2516601   6.262   2.868  10.037 -0.5653 -0.2767 -0.1944
  150SAPE   H5R16602   6.370   2.861  10.016 -0.2135 -1.2915  1.7521
  150SAPE   C2616603   6.179   2.822   9.944 -0.4630  0.5148  0.5583
  150SAPE   H6R16604   6.227   2.781   9.854 -0.1891 -0.1850  1.0109
  150SAPE   C2716605   6.027   2.820   9.941 -0.1251  0.4487 -0.6722
  150SAPE   H7R16606   5.994   2.924   9.918  1.1593  1.1085  0.3507
  150SAPE   H7S16607   5.992   2.804  10.046 -1.1722  0.7568 -0.9607
  150SAPE   C2816608   5.970   2.722   9.843  0.3075  0.7173  0.7234
  150SAPE   H8R16609   5.985   2.617   9.874  0.3711  0.2435 -0.8459
  150SAPE   C2916610   5.902   2.757   9.725 -0.2338  0.2793  0.3192
  150SAPE   H9R16611   5.879   2.676   9.653  1.4169 -0.8857  1.0388
  150SAPE  C21016612   5.876   2.899   9.668 -0.5874  0.2593 -0.3595
  150SAPE  H10R16613   5.966   2.953   9.632 -1.2814  1.8776  0.2230
  150SAPE  H10S16614   5.846   2.961   9.756  1.5466  0.7081  0.1179
  150SAPE  C21116615   5.763   2.925   9.576  0.2789  0.5625 -0.2420
  150SAPE  H11R16616   5.660   2.923   9.616  1.2032  1.2731  2.4182
  150SAPE  C21216617   5.785   2.946   9.442  0.2280 -1.0634  0.1596
  150SAPE  H12R16618   5.697   2.948   9.377 -0.9515  1.9403  1.6350
  150SAPE  C21316619   5.905   2.965   9.369  0.8128  0.0086  0.2530
  150SAPE  H13R16620   5.960   3.051   9.413  0.7320  0.2526 -0.1150
  150SAPE  H13S16621   5.863   3.006   9.274 -3.6297 -4.3470 -0.0712
  150SAPE  C21416622   5.976   2.835   9.339  0.1430 -0.3275  1.2271
  150SAPE  H14R16623   5.961   2.757   9.415 -2.6813  1.9095  3.1652
  150SAPE  C21516624   6.055   2.824   9.233 -0.7509 -0.3866 -0.1348
  150SAPE  H15R16625   6.105   2.728   9.215 -0.8584 -0.3250 -0.7763
  150SAPE  C21616626   6.076   2.927   9.128 -0.3259  0.3239 -0.4924
  150SAPE  H16R16627   6.026   3.023   9.153 -1.4495 -0.1484 -0.8367
  150SAPE  H16S16628   6.040   2.884   9.032  0.0803  1.3753 -1.1255
  150SAPE  C21716629   6.225   2.958   9.118  0.0920 -0.2330 -0.7402
  150SAPE  H17R16630   6.292   2.885   9.070 -1.6645 -1.2730 -1.6955
  150SAPE  H17S16631   6.266   2.979   9.219 -1.5060  1.8213 -0.4320
  150SAPE  C21816632   6.241   3.084   9.036  0.5098 -0.1832 -0.0971
  150SAPE  H18R16633   6.196   3.178   9.076  0.4056  0.9960 -2.7862
  150SAPE  H18S16634   6.187   3.078   8.940  0.4735  0.3908 -0.1193
  150SAPE  C21916635   6.386   3.123   9.016 -0.1114  0.0563  0.2121
  150SAPE  H19R16636   6.436   3.033   8.975  3.2140  0.9837  1.8396
  150SAPE  H19S16637   6.441   3.150   9.109  1.4873  3.6594 -1.5556
  150SAPE  C22016638   6.412   3.243   8.916  0.8536 -0.1411 -0.1172
  150SAPE  H20R16639   6.380   3.339   8.962 -1.3391 -1.1952  0.7332
  150SAPE  H20S16640   6.359   3.248   8.819 -1.6100  3.0882  1.2000
  150SAPE  H20T16641   6.521   3.256   8.901  0.8545 -1.3430 -1.3506
  150SAPE   C3316642   5.682   2.934  10.030  0.4914 -0.7131  0.1059
  150SAPE   H3X16643   5.641   2.843  10.079 -0.5680 -1.1920 -1.5578
  150SAPE   H3Y16644   5.729   2.895   9.937 -1.1232 -1.9487 -0.2561
  150SAPE   C3416645   5.564   3.021   9.974 -0.3381 -0.5844  0.3736
  150SAPE   H4X16646   5.602   3.101   9.907 -0.9062  0.5014  1.3105
  150SAPE   H4Y16647   5.525   3.076  10.062  1.4447 -0.0453  0.8621
  150SAPE   C3516648   5.449   2.947   9.899  0.6703  0.2633  0.3537
  150SAPE   H5X16649   5.393   2.881   9.969 -0.0101 -1.7740 -1.9565
  150SAPE   H5Y16650   5.493   2.877   9.824 -1.0573 -1.2690  0.6914
  150SAPE   C3616651   5.344   3.027   9.823 -0.2882  0.5528 -0.6205
  150SAPE   H6X16652   5.302   3.097   9.898 -3.2668  0.1908 -1.8152
  150SAPE   H6Y16653   5.262   2.955   9.801  0.0836 -0.4066  1.0050
  150SAPE   C3716654   5.393   3.108   9.707 -1.1290 -0.5209 -0.4315
  150SAPE   H7X16655   5.403   3.044   9.617 -0.1601 -0.0544 -0.6709
  150SAPE   H7Y16656   5.487   3.157   9.740 -0.9852 -1.5844  0.8327
  150SAPE   C3816657   5.305   3.228   9.665  0.1097  0.2586 -0.5087
  150SAPE   H8X16658   5.339   3.314   9.726  2.0155  0.9931 -2.4473
  150SAPE   H8Y16659   5.197   3.207   9.684  0.2214  1.2903  1.5248
  150SAPE   C3916660   5.316   3.265   9.519  0.5160 -0.2904 -0.2469
  150SAPE   H9X16661   5.425   3.288   9.509  0.6039 -0.6492 -0.1367
  150SAPE   H9Y16662   5.255   3.356   9.502  1.0495 -0.0732 -1.0677
  150SAPE  C31016663   5.257   3.163   9.425  0.1940 -0.4618 -0.3326
  150SAPE  H10X16664   5.154   3.139   9.461  1.1578 -1.1920  2.2053
  150SAPE  H10Y16665   5.314   3.069   9.438 -0.6033 -1.0215 -0.7880
  150SAPE  C31116666   5.265   3.208   9.281 -0.0931  0.1984 -0.1780
  150SAPE  H11X16667   5.284   3.118   9.219 -4.6295 -0.2911 -1.2046
  150SAPE  H11Y16668   5.346   3.283   9.275  0.1622 -0.0928 -0.4295
  150SAPE  C31216669   5.137   3.271   9.231  0.1045  0.1122 -0.2223
  150SAPE  H12X16670   5.084   3.344   9.296 -1.1031  0.4931 -1.5848
  150SAPE  H12Y16671   5.063   3.189   9.226  0.3409 -0.1531  0.4794
  150SAPE  C31316672   5.152   3.333   9.093  0.2793 -0.0438 -0.0088
  150SAPE  H13X16673   5.052   3.341   9.047  1.2143  0.5163 -2.0554
  150SAPE  H13Y16674   5.205   3.265   9.023  0.9008  0.4434 -0.0299
  150SAPE  C31416675   5.222   3.471   9.080 -0.6946  0.2263  0.2859
  150SAPE  H14X16676   5.206   3.517   9.180 -0.3081  2.0867 -0.4795
  150SAPE  H14Y16677   5.180   3.532   8.997 -1.1022 -3.0707 -2.1574
  150SAPE  C31516678   5.372   3.458   9.038 -0.0031  0.2949  0.2555
  150SAPE  H15X16679   5.412   3.393   9.119 -1.7656 -0.1670  0.7931
  150SAPE  H15Y16680   5.417   3.559   9.040  0.0345  0.2861 -0.0271
  150SAPE  C31616681   5.391   3.389   8.906 -0.6614  0.0204 -0.2314
  150SAPE  H16X16682   5.321   3.435   8.833 -0.7767 -0.4690 -0.4314
  150SAPE  H16Y16683   5.370   3.280   8.912  0.3249 -0.5127 -3.7618
  150SAPE  C31716684   5.533   3.414   8.846  0.0307 -0.3192  0.2568
  150SAPE  H17X16685   5.586   3.496   8.899  1.2266 -0.3743 -0.8054
  150SAPE  H17Y16686   5.538   3.442   8.738 -2.1414  0.7346  0.3756
  150SAPE  C31816687   5.628   3.295   8.872  0.3249 -0.4279  0.1227
  150SAPE  H18X16688   5.590   3.199   8.833  0.6138 -0.6718  0.4326
  150SAPE  H18Y16689   5.648   3.280   8.980 -1.1975 -2.7677  0.1299
  150SAPE  H18Z16690   5.726   3.298   8.819 -0.2035  0.0724 -0.8589
  151SAPE     N16691   3.433   6.498  10.978 -0.3117 -0.2000 -0.1975
  151SAPE   HN116692   3.536   6.484  10.984  0.5033  3.0282 -3.2028
  151SAPE   HN216693   3.380   6.444  11.050 -0.6929 -0.2462 -0.5102
  151SAPE   HN316694   3.407   6.449  10.890  0.0369 -1.5459  0.4200
  151SAPE   C1216695   3.389   6.637  10.951 -0.0381 -0.5982 -0.0858
  151SAPE  H12A16696   3.468   6.690  10.893 -0.5862  0.8741  0.4644
  151SAPE  H12B16697   3.377   6.686  11.050 -1.2320 -1.8630  0.4174
  151SAPE   C1116698   3.259   6.639  10.874 -0.0228 -0.4944 -0.0859
  151SAPE  H11A16699   3.238   6.747  10.863 -1.1240 -0.8504 -1.7307
  151SAPE  H11B16700   3.173   6.596  10.930 -1.9161  3.0843 -0.0045
  151SAPE     P16701   3.308   6.649  10.610 -0.2982  0.0418  0.1076
  151SAPE   O1316702   3.174   6.656  10.541 -0.5530 -0.2865 -0.1224
  151SAPE   O1416703   3.378   6.778  10.629  0.3440 -0.3450 -0.6652
  151SAPE   O1216704   3.281   6.580  10.746 -0.1957 -0.5453 -0.5320
  151SAPE   O1116705   3.401   6.542  10.546 -0.8814  0.3850 -0.0947
  151SAPE    C116706   3.403   6.402  10.571 -0.9302  0.2909  0.0975
  151SAPE    HA16707   3.496   6.380  10.627 -2.1299  0.4253  2.2611
  151SAPE    HB16708   3.311   6.374  10.628  0.6882 -0.9539  2.2574
  151SAPE    C216709   3.403   6.310  10.446  0.2270  0.7240  0.5178
  151SAPE    HS16710   3.434   6.207  10.471 -0.3769  0.2742 -0.5176
  151SAPE   O2116711   3.487   6.364  10.346 -0.6550  0.1521  0.0198
  151SAPE   C2116712   3.614   6.361  10.376  0.0499 -0.1153  0.9196
  151SAPE   O2216713   3.664   6.316  10.475 -0.0598 -0.0326  0.0071
  151SAPE   C2216714   3.691   6.403  10.245 -0.0430 -0.0693  0.2558
  151SAPE   H2R16715   3.666   6.509  10.227 -0.9905 -0.4984 -1.0717
  151SAPE   H2S16716   3.797   6.389  10.277  0.6296  0.9566 -1.4133
  151SAPE    C316717   3.255   6.299  10.386 -0.4829  0.9635  0.5260
  151SAPE    HX16718   3.220   6.402  10.363  1.2661  0.7336 -4.0314
  151SAPE    HY16719   3.194   6.247  10.463  0.3855  3.6441  3.2321
  151SAPE   O3116720   3.255   6.218  10.273  0.0815  0.3345  0.1795
  151SAPE   C3116721   3.268   6.288  10.151 -0.2191 -0.5391 -0.9780
  151SAPE   O3216722   3.279   6.411  10.146 -0.0653  0.3082 -0.2614
  151SAPE   C3216723   3.243   6.189  10.044 -0.1604 -0.2085  0.1620
  151SAPE   H2X16724   3.133   6.169  10.045 -0.5756  1.7501  1.7421
  151SAPE   H2Y16725   3.308   6.102  10.067  0.6026  0.7635  1.8450
  151SAPE   C2316726   3.657   6.322  10.129  0.5280 -1.0132  0.4354
  151SAPE   H3R16727   3.715   6.365  10.044 -0.2290  1.9778  1.3394
  151SAPE   H3S16728   3.550   6.341  10.108  0.3510  0.3033  2.2654
  151SAPE   C2416729   3.702   6.177  10.139 -0.0919 -0.5232  0.5469
  151SAPE   H4R16730   3.803   6.166  10.182 -0.1161 -0.8067  0.5380
  151SAPE   H4S16731   3.705   6.137  10.035 -2.4821  2.3715 -0.8118
  151SAPE   C2516732   3.607   6.095  10.222 -0.4918  0.3886 -0.3752
  151SAPE   H5R16733   3.514   6.150  10.242 -0.4869  0.3655 -0.2870
  151SAPE   C2616734   3.619   5.961  10.242  1.0145  0.8273  0.1144
  151SAPE   H6R16735   3.546   5.914  10.310 -0.8857  2.2606 -0.8428
  151SAPE   C2716736   3.728   5.868  10.189 -0.1739 -0.6187 -0.8135
  151SAPE   H7R16737   3.808   5.860  10.266 -2.4883  2.6528  2.2191
  151SAPE   H7S16738   3.774   5.914  10.098 -0.0649 -1.4217 -1.1748
  151SAPE   C2816739   3.678   5.736  10.143 -0.1933  0.5070  0.1201
  151SAPE   H8R16740   3.645   5.674  10.229 -1.2953 -0.7377 -1.1450
  151SAPE   C2916741   3.654   5.695  10.019 -0.5459 -0.2719 -0.2353
  151SAPE   H9R16742   3.591   5.606  10.003 -1.2142  0.3636 -1.3066
  151SAPE  C21016743   3.684   5.774   9.898 -0.1110 -0.3928  0.8654
  151SAPE  H10R16744   3.717   5.707   9.816 -0.2752  0.8177 -0.2258
  151SAPE  H10S16745   3.771   5.842   9.905  1.0874 -0.9042 -4.4152
  151SAPE  C21116746   3.555   5.844   9.849 -0.2326  0.0996 -0.1422
  151SAPE  H11R16747   3.518   5.923   9.916  0.0313  0.1416 -0.0444
  151SAPE  C21216748   3.478   5.809   9.743  0.0115  0.1099 -0.6994
  151SAPE  H12R16749   3.396   5.874   9.709 -3.1709 -3.5957 -0.8302
  151SAPE  C21316750   3.512   5.681   9.659 -0.2065  1.0136 -0.5845
  151SAPE  H13R16751   3.592   5.616   9.700 -0.3283 -0.1730 -2.1050
  151SAPE  H13S16752   3.558   5.709   9.562 -0.8579  0.9792 -0.9089
  151SAPE  C21416753   3.394   5.591   9.625  0.2740 -0.3863 -0.1729
  151SAPE  H14R16754   3.388   5.507   9.695 -1.1825 -0.2120 -0.0486
  151SAPE  C21516755   3.309   5.611   9.520 -0.1234  0.3373  0.1313
  151SAPE  H15R16756   3.229   5.537   9.505  1.3492 -0.9679 -1.8012
  151SAPE  C21616757   3.330   5.718   9.420 -1.0457 -0.5648 -0.8148
  151SAPE  H16R16758   3.409   5.792   9.446  0.2641 -1.5093 -2.0122
  151SAPE  H16S16759   3.238   5.779   9.408  0.1124  1.2733 -0.6671
  151SAPE  C21716760   3.350   5.660   9.280 -0.6983  0.5130  0.2827
  151SAPE  H17R16761   3.283   5.572   9.263 -0.3164  0.3191 -0.2434
  151SAPE  H17S16762   3.452   5.621   9.261 -0.2246  1.2697  1.2382
  151SAPE  C21816763   3.306   5.754   9.175 -0.1511 -0.5242  0.3267
  151SAPE  H18R16764   3.380   5.837   9.173  1.7194 -2.0792  1.6792
  151SAPE  H18S16765   3.202   5.789   9.194  0.1877  0.6714  0.0516
  151SAPE  C21916766   3.312   5.704   9.033 -0.2742  0.0797 -0.6459
  151SAPE  H19R16767   3.267   5.603   9.026  1.6221 -0.7906 -1.1066
  151SAPE  H19S16768   3.418   5.693   8.998  0.0188 -0.1709  0.2893
  151SAPE  C22016769   3.250   5.807   8.928 -0.2435 -0.2536 -0.6951
  151SAPE  H20R16770   3.228   5.753   8.834  0.1674 -0.5561 -0.6222
  151SAPE  H20S16771   3.329   5.885   8.914 -0.5313  0.4094  1.1254
  151SAPE  H20T16772   3.155   5.856   8.958  0.3330  0.1143  0.6012
  151SAPE   C3316773   3.300   6.238   9.912 -0.0324  0.4792  0.3386
  151SAPE   H3X16774   3.410   6.229   9.924  0.1115  0.8403 -0.5541
  151SAPE   H3Y16775   3.269   6.342   9.884 -2.1321 -0.8509 -2.9792
  151SAPE   C3416776   3.262   6.138   9.801  0.1615  0.0036  0.1928
  151SAPE   H4X16777   3.151   6.139   9.800  0.1271 -0.0411  1.7290
  151SAPE   H4Y16778   3.297   6.033   9.814 -3.2056 -1.4877 -1.4075
  151SAPE   C3516779   3.308   6.186   9.659 -0.0522  0.9043 -0.2650
  151SAPE   H5X16780   3.419   6.188   9.656 -0.0370 -0.0034 -0.5551
  151SAPE   H5Y16781   3.282   6.294   9.651 -0.6167  0.6529 -2.3936
  151SAPE   C3616782   3.235   6.117   9.548  0.4072 -0.5928 -0.2401
  151SAPE   H6X16783   3.130   6.152   9.547  1.2315  2.3205 -3.6376
  151SAPE   H6Y16784   3.237   6.007   9.566  1.2392 -0.5633 -0.0913
  151SAPE   C3716785   3.281   6.165   9.410  0.4293 -0.4419 -0.0225
  151SAPE   H7X16786   3.390   6.146   9.405  0.4247 -0.8537  1.1490
  151SAPE   H7Y16787   3.263   6.274   9.395  0.1683 -0.2981  1.2302
  151SAPE   C3816788   3.209   6.083   9.304 -0.5328 -0.1893 -0.7741
  151SAPE   H8X16789   3.102   6.079   9.331  0.1220  1.1513  2.4035
  151SAPE   H8Y16790   3.242   5.977   9.317 -0.3732 -0.1233 -0.6492
  151SAPE   C3916791   3.253   6.111   9.165  0.6055 -0.4672 -0.0062
  151SAPE   H9X16792   3.215   6.036   9.093  0.7384  2.1898 -3.0432
  151SAPE   H9Y16793   3.364   6.100   9.169  0.5898 -0.6349 -0.0261
  151SAPE  C31016794   3.203   6.249   9.113  0.7568  0.2783  0.3505
  151SAPE  H10X16795   3.238   6.331   9.179  0.7902  1.6387 -1.2813
  151SAPE  H10Y16796   3.093   6.245   9.099  0.6265  2.0802  0.5707
  151SAPE  C31116797   3.262   6.285   8.972 -0.3101 -0.9202 -0.2788
  151SAPE  H11X16798   3.218   6.205   8.909 -1.9935 -0.9848  0.8924
  151SAPE  H11Y16799   3.372   6.294   8.963 -0.3568 -1.7447 -1.9070
  151SAPE  C31216800   3.187   6.407   8.917  0.0138  0.7433 -0.4205
  151SAPE  H12X16801   3.081   6.381   8.937  0.7892 -0.7255  2.2105
  151SAPE  H12Y16802   3.196   6.423   8.807 -0.5870 -2.7640 -1.1027
  151SAPE  C31316803   3.206   6.537   9.002 -0.5292  1.0085  0.0278
  151SAPE  H13X16804   3.316   6.543   9.018 -0.3918 -1.6884  0.5093
  151SAPE  H13Y16805   3.156   6.524   9.100 -1.9004 -0.3395 -0.8020
  151SAPE  C31416806   3.147   6.657   8.932  0.2640 -0.4838  0.1144
  151SAPE  H14X16807   3.063   6.632   8.864 -0.4998  0.3643  0.7125
  151SAPE  H14Y16808   3.224   6.701   8.864 -0.0344  1.2042  0.8112
  151SAPE  C31516809   3.101   6.780   9.021 -0.5406  0.3613  0.3070
  151SAPE  H15X16810   3.171   6.797   9.106  0.4053 -0.1168 -0.3538
  151SAPE  H15Y16811   3.008   6.740   9.067 -0.8422 -0.4356 -0.9393
  151SAPE  C31616812   3.082   6.905   8.948 -0.0810 -0.1605  0.5142
  151SAPE  H16X16813   3.056   6.882   8.843  1.0316 -0.5643  0.3134
  151SAPE  H16Y16814   3.176   6.966   8.954 -1.4403  2.0009  0.9563
  151SAPE  C31716815   2.967   6.996   8.996 -0.2454  0.6037  1.2533
  151SAPE  H17X16816   2.878   6.930   8.997  0.2475 -0.0754  1.1374
  151SAPE  H17Y16817   2.948   7.071   8.916 -0.5868 -2.8175 -2.2174
  151SAPE  C31816818   2.990   7.056   9.132 -0.3425 -0.1925  0.6790
  151SAPE  H18X16819   2.912   7.124   9.172  0.2844  1.5228 -0.8545
  151SAPE  H18Y16820   3.088   7.109   9.127 -0.1490 -0.6344 -0.9309
  151SAPE  H18Z16821   2.997   6.977   9.210 -1.7621  1.9993  3.1841
  152SAPE     N16822   5.597   5.522  11.036  0.9621 -0.4217 -0.1897
  152SAPE   HN116823   5.534   5.510  10.954  0.1517 -1.2780  0.5229
  152SAPE   HN216824   5.533   5.540  11.116  0.8747 -0.0783 -0.3362
  152SAPE   HN316825   5.665   5.600  11.023 -0.2904  0.8798  0.7340
  152SAPE   C1216826   5.652   5.400  11.092 -0.5806 -0.1240 -0.4794
  152SAPE  H12A16827   5.571   5.332  11.125  0.8971 -1.2211  1.0464
  152SAPE  H12B16828   5.713   5.432  11.180  0.5439  0.9224 -1.5835
  152SAPE   C1116829   5.741   5.334  10.986  0.1583  0.4433  0.3814
  152SAPE  H11A16830   5.785   5.243  11.032  0.4589 -0.2957 -1.3189
  152SAPE  H11B16831   5.827   5.397  10.955  0.3491 -1.2021 -2.8616
  152SAPE     P16832   5.730   5.269  10.730  0.1264 -0.1986 -0.0382
  152SAPE   O1316833   5.855   5.195  10.759  0.6312 -0.3318  0.0583
  152SAPE   O1416834   5.619   5.202  10.657 -0.2350  0.4321 -0.6388
  152SAPE   O1216835   5.663   5.300  10.871  0.2471  0.1344  0.2109
  152SAPE   O1116836   5.769   5.411  10.671  0.1487 -0.1691 -0.1411
  152SAPE    C116837   5.694   5.529  10.691 -0.7660  0.2491  0.5631
  152SAPE    HA16838   5.601   5.523  10.752 -0.9107  1.0576  0.4269
  152SAPE    HB16839   5.757   5.602  10.745  0.3327 -0.1404 -0.1622
  152SAPE    C216840   5.655   5.594  10.560  0.3470 -0.1207  0.4702
  152SAPE    HS16841   5.595   5.685  10.582  2.1192  1.4350 -0.6992
  152SAPE   O2116842   5.581   5.512  10.472  0.0572 -0.1126  0.3374
  152SAPE   C2116843   5.454   5.476  10.511 -0.3967 -0.0203  1.4910
  152SAPE   O2216844   5.398   5.514  10.609  0.9099 -0.1006 -0.4564
  152SAPE   C2216845   5.382   5.420  10.379  0.2035  0.4734  0.2263
  152SAPE   H2R16846   5.438   5.325  10.363  0.7483  0.5860  1.3175
  152SAPE   H2S16847   5.278   5.413  10.418  0.3545  2.0734  0.9864
  152SAPE    C316848   5.787   5.624  10.490 -0.1461 -0.2705  0.6837
  152SAPE    HX16849   5.838   5.527  10.474 -2.7311 -1.5862 -0.0996
  152SAPE    HY16850   5.849   5.693  10.551 -0.7792  0.2469  0.7430
  152SAPE   O3116851   5.762   5.684  10.356  0.2312 -0.1226 -0.1566
  152SAPE   C3116852   5.833   5.651  10.253  0.8182 -0.3000  0.4268
  152SAPE   O3216853   5.940   5.585  10.256  0.1879  0.3334  0.5200
  152SAPE   C3216854   5.758   5.685  10.127 -0.4209 -1.0146  0.3019
  152SAPE   H2X16855   5.687   5.603  10.106 -1.2222 -0.1381 -0.5261
  152SAPE   H2Y16856   5.846   5.695  10.060  0.7166 -1.2659  1.6905
  152SAPE   C2316857   5.400   5.515  10.256  1.0313 -0.2027 -0.1438
  152SAPE   H3R16858   5.508   5.518  10.231  0.6465 -1.0482 -2.0703
  152SAPE   H3S16859   5.373   5.612  10.304 -1.5045 -1.4724  1.1882
  152SAPE   C2416860   5.319   5.477  10.133 -0.3138 -0.3979  0.3762
  152SAPE   H4R16861   5.279   5.575  10.097  1.8599 -0.2266 -1.7951
  152SAPE   H4S16862   5.229   5.424  10.170 -0.4704  1.6430  3.2798
  152SAPE   C2516863   5.399   5.421  10.021 -0.5062  0.9150 -0.1073
  152SAPE   H5R16864   5.469   5.337  10.034 -1.0899  0.4139 -0.2119
  152SAPE   C2616865   5.387   5.446   9.890 -0.2986  0.1510 -0.6205
  152SAPE   H6R16866   5.449   5.394   9.815 -1.1912 -2.3632  0.2847
  152SAPE   C2716867   5.280   5.535   9.833  0.4056  0.2860 -0.1000
  152SAPE   H7R16868   5.306   5.643   9.829 -0.8840  0.6709  1.0852
  152SAPE   H7S16869   5.186   5.534   9.892 -1.4724 -0.2465 -2.8946
  152SAPE   C2816870   5.242   5.489   9.699 -0.4017  0.0114 -0.4276
  152SAPE   H8R16871   5.173   5.404   9.685  0.0782 -0.6931  1.1587
  152SAPE   C2916872   5.292   5.538   9.586 -0.5565  0.4953 -0.2425
  152SAPE   H9R16873   5.274   5.494   9.487 -0.4593  0.4341 -0.2339
  152SAPE  C21016874   5.387   5.658   9.586 -0.1734 -0.3107  0.2228
  152SAPE  H10R16875   5.454   5.653   9.675 -1.6158  1.6129  1.5051
  152SAPE  H10S16876   5.334   5.755   9.598  0.0217  0.3369 -3.0946
  152SAPE  C21116877   5.470   5.673   9.461  0.4546 -0.2937  0.0717
  152SAPE  H11R16878   5.475   5.589   9.389 -1.3469 -0.4426  0.0820
  152SAPE  C21216879   5.530   5.790   9.429  0.2413 -0.6993 -0.3938
  152SAPE  H12R16880   5.586   5.793   9.335  0.8082 -0.8119 -0.0588
  152SAPE  C21316881   5.517   5.920   9.516  0.2833  0.5517  0.1801
  152SAPE  H13R16882   5.539   5.903   9.624  1.6687 -1.4307 -0.3642
  152SAPE  H13S16883   5.414   5.962   9.505  1.1640  2.2302 -2.8113
  152SAPE  C21416884   5.611   6.021   9.457  0.0286  0.5958 -0.0687
  152SAPE  H14R16885   5.715   5.998   9.485  0.6786 -0.1604 -2.7336
  152SAPE  C21516886   5.581   6.120   9.373  0.4798  0.2391  0.3278
  152SAPE  H15R16887   5.666   6.178   9.334 -0.8066  0.5487 -2.2331
  152SAPE  C21616888   5.447   6.156   9.310  0.5062  0.3354  0.0720
  152SAPE  H16R16889   5.426   6.258   9.350 -0.4335  0.3700 -0.4813
  152SAPE  H16S16890   5.361   6.094   9.343  1.1008 -1.6011 -1.8381
  152SAPE  C21716891   5.451   6.160   9.155 -0.2635 -1.0918 -0.5741
  152SAPE  H17R16892   5.552   6.194   9.124 -0.4387  1.6698  1.5747
  152SAPE  H17S16893   5.379   6.238   9.122 -2.1345 -1.6041  1.9628
  152SAPE  C21816894   5.411   6.024   9.094  1.0472  0.2861 -0.5670
  152SAPE  H18R16895   5.316   5.986   9.136  0.2972  1.0214 -1.5414
  152SAPE  H18S16896   5.479   5.941   9.122 -0.0809 -0.5736 -0.3194
  152SAPE  C21916897   5.402   6.036   8.937 -1.1477  0.2891 -0.1060
  152SAPE  H19R16898   5.347   6.132   8.918 -1.9145 -0.0769  0.1952
  152SAPE  H19S16899   5.332   5.957   8.901 -0.7591 -0.1726  0.1509
  152SAPE  C22016900   5.533   6.045   8.855 -0.1626 -0.1912  0.2528
  152SAPE  H20R16901   5.603   6.122   8.891  0.8639 -1.0694  0.1818
  152SAPE  H20S16902   5.505   6.083   8.754  2.5070  2.7169  0.4677
  152SAPE  H20T16903   5.586   5.948   8.843  1.4737  0.6097  0.7550
  152SAPE   C3316904   5.672   5.807  10.141  0.9049 -0.5406 -0.2380
  152SAPE   H3X16905   5.745   5.891  10.144  1.0978 -0.7347  2.1681
  152SAPE   H3Y16906   5.608   5.811  10.231  2.5035  1.1810  0.9079
  152SAPE   C3416907   5.576   5.820  10.021 -0.6705  0.1716  0.2019
  152SAPE   H4X16908   5.506   5.904  10.041  0.7504  1.1243  1.3425
  152SAPE   H4Y16909   5.512   5.729  10.012 -1.5652  0.6857  1.2393
  152SAPE   C3516910   5.644   5.820   9.890  0.0053 -0.1871  0.4564
  152SAPE   H5X16911   5.558   5.814   9.821  0.0443 -0.1451  0.4040
  152SAPE   H5Y16912   5.700   5.725   9.879 -1.3030 -0.9442  0.1455
  152SAPE   C3616913   5.723   5.940   9.855  0.0901 -0.5059  0.7092
  152SAPE   H6X16914   5.763   5.917   9.754  0.9536  0.9496  0.7037
  152SAPE   H6Y16915   5.808   5.962   9.922  1.2097  2.0642 -1.3689
  152SAPE   C3716916   5.624   6.063   9.849 -0.4844 -0.0086  0.3466
  152SAPE   H7X16917   5.590   6.087   9.952 -1.6329 -1.4838  0.3355
  152SAPE   H7Y16918   5.535   6.032   9.791  1.3941 -1.4185 -1.9608
  152SAPE   C3816919   5.689   6.182   9.782  0.0673 -0.1385 -0.1901
  152SAPE   H8X16920   5.734   6.143   9.688 -1.6038 -0.5727 -0.8485
  152SAPE   H8Y16921   5.765   6.226   9.849 -1.9030  2.5229  0.4326
  152SAPE   C3916922   5.599   6.289   9.724  0.7354  0.8783  0.1070
  152SAPE   H9X16923   5.524   6.312   9.803 -1.6643 -0.6567 -1.5600
  152SAPE   H9Y16924   5.542   6.234   9.646  0.1359 -0.2530  1.3010
  152SAPE  C31016925   5.683   6.394   9.659 -1.2306 -0.0260 -0.4047
  152SAPE  H10X16926   5.762   6.354   9.592  0.2329  1.4730  0.3517
  152SAPE  H10Y16927   5.745   6.448   9.734  0.2565  1.2140 -2.4206
  152SAPE  C31116928   5.591   6.503   9.598  0.3671  0.1384 -0.0132
  152SAPE  H11X16929   5.570   6.583   9.672 -0.2032  0.9641 -1.0439
  152SAPE  H11Y16930   5.492   6.452   9.591  0.9697 -0.9477 -0.8206
  152SAPE  C31216931   5.643   6.563   9.468 -0.0105 -0.3726  0.8483
  152SAPE  H12X16932   5.658   6.475   9.402 -0.2338 -0.1767  0.5345
  152SAPE  H12Y16933   5.747   6.600   9.480  0.1476 -1.0594  1.6526
  152SAPE  C31316934   5.546   6.656   9.393 -0.8031 -0.0564 -0.0762
  152SAPE  H13X16935   5.528   6.741   9.463  3.1454  2.0908 -1.3846
  152SAPE  H13Y16936   5.450   6.603   9.371 -1.6469  1.0896  0.7183
  152SAPE  C31416937   5.607   6.725   9.270  1.2118 -0.6452  0.6422
  152SAPE  H14X16938   5.635   6.649   9.194 -0.5460 -2.2520  1.5190
  152SAPE  H14Y16939   5.708   6.760   9.303  0.8177 -0.0257  1.2025
  152SAPE  C31516940   5.510   6.825   9.204 -0.5121 -0.0415  0.6138
  152SAPE  H15X16941   5.473   6.902   9.274  1.4504  0.7361  0.8598
  152SAPE  H15Y16942   5.424   6.762   9.171 -0.4121  0.2432 -0.2232
  152SAPE  C31616943   5.576   6.897   9.078  0.1873 -0.4727 -0.1768
  152SAPE  H16X16944   5.622   6.815   9.020  0.5334  1.0243 -2.0971
  152SAPE  H16Y16945   5.652   6.966   9.120 -0.8230  0.6658 -0.1318
  152SAPE  C31716946   5.470   6.972   8.996  0.1478  0.0430 -0.0818
  152SAPE  H17X16947   5.404   7.034   9.061 -0.7745 -0.3116 -0.6670
  152SAPE  H17Y16948   5.404   6.895   8.951 -1.8456  0.8721  1.2737
  152SAPE  C31816949   5.542   7.068   8.896 -0.3376 -0.2785 -0.4901
  152SAPE  H18X16950   5.589   7.154   8.948 -0.0672 -1.1817  0.8096
  152SAPE  H18Y16951   5.477   7.118   8.821 -0.9336  0.3205  0.3997
  152SAPE  H18Z16952   5.633   7.034   8.843  0.8461  1.7197  0.1474
  153SAPE     N16953   4.619   0.586  11.114 -0.6932  0.4370  0.1327
  153SAPE   HN116954   4.521   0.619  11.117 -0.8199  0.5214 -2.3781
  153SAPE   HN216955   4.607   0.491  11.075  0.4376  0.2598  0.1866
  153SAPE   HN316956   4.662   0.572  11.208  1.1718  1.3521 -0.5185
  153SAPE   C1216957   4.720   0.661  11.023  0.0828  0.1306  0.0048
  153SAPE  H12A16958   4.784   0.723  11.090  0.7827  0.4010 -0.9061
  153SAPE  H12B16959   4.664   0.722  10.949  0.7124  1.5999  0.7028
  153SAPE   C1116960   4.812   0.569  10.939 -0.3033 -0.2016  0.4487
  153SAPE  H11A16961   4.897   0.630  10.901  0.1832  0.4262  2.4418
  153SAPE  H11B16962   4.745   0.540  10.855  0.1299  1.2796 -0.4583
  153SAPE     P16963   4.986   0.379  10.997 -0.0922  0.2827  0.4369
  153SAPE   O1316964   5.088   0.427  11.096  0.2230 -0.1054  0.3475
  153SAPE   O1416965   4.950   0.236  11.005 -0.2519  0.6566  0.0965
  153SAPE   O1216966   4.855   0.460  11.016  0.0747  0.3695 -0.6649
  153SAPE   O1116967   5.027   0.412  10.848  0.5401 -0.0893 -0.2109
  153SAPE    C116968   5.162   0.418  10.809 -1.1489 -0.4459  0.3197
  153SAPE    HA16969   5.216   0.344  10.871 -1.7759 -0.9043  0.3305
  153SAPE    HB16970   5.177   0.388  10.704 -0.4406  1.4509 -0.1738
  153SAPE    C216971   5.229   0.562  10.833  0.5365  0.2801 -0.4148
  153SAPE    HS16972   5.191   0.599  10.931 -1.2935 -0.4761 -0.7912
  153SAPE   O2116973   5.176   0.639  10.725  0.0442  0.3344  0.5424
  153SAPE   C2116974   5.196   0.772  10.741  0.0486 -0.3517  0.0531
  153SAPE   O2216975   5.232   0.825  10.845 -0.0253  0.5550 -0.6672
  153SAPE   C2216976   5.143   0.846  10.619 -0.3430 -0.7181 -0.6092
  153SAPE   H2R16977   5.203   0.810  10.532 -1.3883 -1.7165 -0.9487
  153SAPE   H2S16978   5.036   0.826  10.596 -0.4629 -0.5062 -0.2429
  153SAPE    C316979   5.384   0.542  10.822 -0.0174 -0.2456 -0.6123
  153SAPE    HX16980   5.403   0.456  10.889 -1.1993 -1.0604 -1.2858
  153SAPE    HY16981   5.441   0.623  10.871  0.0837 -0.0473 -1.0489
  153SAPE   O3116982   5.424   0.497  10.692  0.2380  0.1671 -0.2522
  153SAPE   C3116983   5.452   0.604  10.611 -0.3556 -0.2949  0.6088
  153SAPE   O3216984   5.447   0.722  10.638 -0.1137 -0.1129 -0.4451
  153SAPE   C3216985   5.514   0.553  10.477  1.0468  0.0402  0.1296
  153SAPE   H2X16986   5.556   0.451  10.485 -1.5241 -0.9946  2.1464
  153SAPE   H2Y16987   5.597   0.623  10.454  1.4951 -0.4277  0.3061
  153SAPE   C2316988   5.159   1.000  10.639 -0.8246  0.4752 -0.3195
  153SAPE   H3R16989   5.258   1.039  10.672 -0.9163  1.4765 -1.1857
  153SAPE   H3S16990   5.086   1.048  10.708  0.2211  0.6154  0.7299
  153SAPE   C2416991   5.134   1.069  10.510 -0.5812 -0.3035  0.3596
  153SAPE   H4R16992   5.205   1.051  10.426 -1.0633  1.0857 -0.3852
  153SAPE   H4S16993   5.142   1.179  10.522  1.9181 -0.6018  2.1975
  153SAPE   C2516994   4.989   1.056  10.469 -0.5870  0.3500 -0.8799
  153SAPE   H5R16995   4.919   1.053  10.554  0.8228  1.3547  0.3705
  153SAPE   C2616996   4.944   1.043  10.348  0.3316  0.6150  0.6725
  153SAPE   H6R16997   4.834   1.039  10.341  0.4487 -1.4447 -1.0613
  153SAPE   C2716998   5.019   1.041  10.217  0.6813 -0.2450  0.4517
  153SAPE   H7R16999   4.982   0.959  10.152  2.0151 -1.0463  0.6851
  153SAPE   H7S17000   5.121   1.005  10.241  0.5660 -0.5522  0.4900
  153SAPE   C2817001   5.009   1.169  10.139 -0.5145  0.4983  0.0523
  153SAPE   H8R17002   5.046   1.260  10.188 -3.6961  1.4381  0.9749
  153SAPE   C2917003   4.964   1.182  10.017  0.4502 -0.4703 -0.1802
  153SAPE   H9R17004   4.949   1.284   9.979  2.3682 -0.3988 -0.8439
  153SAPE  C21017005   4.889   1.073   9.941  0.3165 -0.4615  0.0815
  153SAPE  H10R17006   4.834   0.997  10.001 -2.7426  1.1399 -0.4520
  153SAPE  H10S17007   4.969   1.017   9.887  1.7227  0.3787  1.2367
  153SAPE  C21117008   4.791   1.120   9.841  0.5564 -0.0090 -0.1297
  153SAPE  H11R17009   4.687   1.126   9.875  0.4791 -2.6449  0.2553
  153SAPE  C21217010   4.817   1.163   9.717 -0.1888 -0.2224  0.0234
  153SAPE  H12R17011   4.741   1.215   9.656  2.2644  1.4416 -1.8128
  153SAPE  C21317012   4.956   1.160   9.658 -0.4137  0.4767 -0.3491
  153SAPE  H13R17013   5.032   1.177   9.737  1.1204 -0.2430 -1.6121
  153SAPE  H13S17014   4.978   1.239   9.583  1.1904  3.8018  3.2729
  153SAPE  C21417015   4.980   1.022   9.596 -0.0724  0.0526  0.2567
  153SAPE  H14R17016   5.029   0.956   9.669 -0.7797  0.7740  1.4182
  153SAPE  C21517017   4.970   0.981   9.469  0.5044  0.0636  0.3865
  153SAPE  H15R17018   4.982   0.873   9.453 -0.7503 -0.3020  1.6800
  153SAPE  C21617019   4.912   1.058   9.346 -1.4080  1.0030  0.2069
  153SAPE  H16R17020   4.950   1.163   9.355  0.7417  0.1961  1.4111
  153SAPE  H16S17021   4.803   1.043   9.353 -1.0623 -1.1669  1.9676
  153SAPE  C21717022   4.955   0.994   9.217 -0.6270  1.2621 -0.0656
  153SAPE  H17R17023   4.900   1.023   9.125  0.5270 -0.8709 -1.4903
  153SAPE  H17S17024   4.944   0.884   9.220 -1.1322  1.3052 -0.2596
  153SAPE  C21817025   5.110   1.018   9.183 -0.9395  0.1285 -0.3480
  153SAPE  H18R17026   5.175   0.948   9.241 -1.2371 -0.5115 -0.7822
  153SAPE  H18S17027   5.130   1.122   9.216 -1.0217 -0.0944  0.4286
  153SAPE  C21917028   5.133   0.988   9.034  0.2777 -0.4556 -0.2755
  153SAPE  H19R17029   5.076   1.061   8.974  3.2194  1.1437 -1.3431
  153SAPE  H19S17030   5.095   0.885   9.015 -1.1289 -0.1692  0.8372
  153SAPE  C22017031   5.275   0.986   8.984  0.7455 -0.3170 -0.3055
  153SAPE  H20R17032   5.354   0.949   9.053  0.7440  0.5506  0.1760
  153SAPE  H20S17033   5.319   1.088   8.974 -0.5808  0.4796  1.3442
  153SAPE  H20T17034   5.282   0.926   8.891  1.4376 -1.7920  0.6679
  153SAPE   C3317035   5.404   0.561  10.366 -0.1064  0.2702 -0.1576
  153SAPE   H3X17036   5.374   0.668  10.369 -0.5899  0.2113  4.5481
  153SAPE   H3Y17037   5.315   0.498  10.386  0.3244  0.3676  2.3183
  153SAPE   C3417038   5.462   0.539  10.228 -0.3296 -0.3895 -0.4682
  153SAPE   H4X17039   5.537   0.457  10.226 -0.5643 -0.6681  1.0885
  153SAPE   H4Y17040   5.525   0.624  10.194  1.4496 -1.1528  0.7942
  153SAPE   C3517041   5.337   0.520  10.143  0.4656 -0.3662 -0.0367
  153SAPE   H5X17042   5.264   0.601  10.162  1.0044  0.2868 -0.7031
  153SAPE   H5Y17043   5.277   0.434  10.181  0.0812  1.0979  2.9711
  153SAPE   C3617044   5.353   0.513   9.987 -0.0563 -0.4165 -0.7629
  153SAPE   H6X17045   5.386   0.609   9.942 -0.6628 -0.4155 -1.2160
  153SAPE   H6Y17046   5.247   0.513   9.954 -0.9155  0.2151  1.7579
  153SAPE   C3717047   5.434   0.399   9.930 -0.3821  0.4352 -0.2781
  153SAPE   H7X17048   5.398   0.300   9.966 -0.6075  0.4233 -0.5303
  153SAPE   H7Y17049   5.541   0.411   9.957 -0.2841  0.8719 -0.8482
  153SAPE   C3817050   5.414   0.394   9.777 -0.0105  0.1403  0.5642
  153SAPE   H8X17051   5.321   0.450   9.753 -0.1369 -1.3943 -3.1083
  153SAPE   H8Y17052   5.395   0.292   9.736  1.0193  0.2652 -0.2439
  153SAPE   C3917053   5.531   0.459   9.706  0.4469  0.5753  0.1107
  153SAPE   H9X17054   5.623   0.399   9.724  1.1927  1.0674 -1.7236
  153SAPE   H9Y17055   5.544   0.563   9.744 -0.3404  0.6806  0.0995
  153SAPE  C31017056   5.514   0.455   9.562  0.3017  0.3130 -0.2101
  153SAPE  H10X17057   5.427   0.520   9.539  0.0986 -0.8022 -3.0716
  153SAPE  H10Y17058   5.479   0.355   9.528 -1.4082  1.7871 -3.1746
  153SAPE  C31117059   5.632   0.512   9.479  0.1518 -0.2930 -0.0954
  153SAPE  H11X17060   5.724   0.470   9.524  1.0052  1.3051 -0.2742
  153SAPE  H11Y17061   5.624   0.621   9.500 -2.0847 -0.6479  1.2115
  153SAPE  C31217062   5.612   0.474   9.337 -0.3407  0.4088  0.3691
  153SAPE  H12X17063   5.509   0.504   9.307 -1.2165 -2.4264  0.2405
  153SAPE  H12Y17064   5.607   0.363   9.328  1.3334  0.4552 -2.4746
  153SAPE  C31317065   5.713   0.538   9.246  0.2926  0.2636  0.3467
  153SAPE  H13X17066   5.695   0.495   9.146  1.2214 -1.9762  1.0738
  153SAPE  H13Y17067   5.815   0.506   9.278  0.4069 -2.0109 -2.0006
  153SAPE  C31417068   5.708   0.692   9.255  0.3260 -0.3129  0.9511
  153SAPE  H14X17069   5.757   0.736   9.345  0.4405  0.5777  0.4662
  153SAPE  H14Y17070   5.607   0.738   9.251  1.7097  3.0307  0.9432
  153SAPE  C31517071   5.788   0.756   9.144 -0.8028 -0.9768 -0.3243
  153SAPE  H15X17072   5.747   0.727   9.045  1.1772 -1.1406 -1.1409
  153SAPE  H15Y17073   5.895   0.728   9.153 -1.2727 -2.4386  1.3219
  153SAPE  C31617074   5.773   0.911   9.142  0.0940 -0.5219 -0.3492
  153SAPE  H16X17075   5.826   0.961   9.226 -2.4317  0.8332  0.5457
  153SAPE  H16Y17076   5.670   0.952   9.143  0.6034  0.8789 -1.3962
  153SAPE  C31717077   5.842   0.970   9.023 -0.4923  0.4053  0.2919
  153SAPE  H17X17078   5.812   0.906   8.937 -0.0375 -2.6163  2.2211
  153SAPE  H17Y17079   5.952   0.959   9.034 -0.7203  0.0951  3.0647
  153SAPE  C31817080   5.805   1.114   9.001 -0.1974  0.0216 -0.8408
  153SAPE  H18X17081   5.819   1.146   8.895  0.9974 -1.5423 -1.2017
  153SAPE  H18Y17082   5.837   1.190   9.075  1.9679 -0.8542 -0.7933
  153SAPE  H18Z17083   5.694   1.108   9.008 -0.0940 -2.8982 -0.4766
  154SAPE     N17084   5.975   6.024  10.903 -0.3302  0.6141 -0.1803
  154SAPE   HN117085   6.021   5.931  10.897 -0.3650  0.6494 -1.2548
  154SAPE   HN217086   5.949   6.047  11.001  1.1617 -1.8778  0.8970
  154SAPE   HN317087   5.882   6.004  10.859 -1.6306 -2.6705  3.4919
  154SAPE   C1217088   6.052   6.121  10.830 -0.3849 -0.0511 -0.0403
  154SAPE  H12A17089   6.113   6.070  10.752  0.4085 -0.1391  0.6273
  154SAPE  H12B17090   6.128   6.153  10.904  0.5231  0.5249 -1.1878
  154SAPE   C1117091   5.970   6.244  10.777 -0.2366  0.9039  0.5097
  154SAPE  H11A17092   5.904   6.209  10.695  0.4460  0.8991 -0.0392
  154SAPE  H11B17093   6.042   6.314  10.730  3.2194 -1.0884  2.3902
  154SAPE     P17094   5.867   6.455  10.904  0.1201  0.3425 -0.0376
  154SAPE   O1317095   5.822   6.478  11.045 -0.2009  0.2171 -0.3883
  154SAPE   O1417096   5.984   6.527  10.862 -0.4512  0.0038 -0.4477
  154SAPE   O1217097   5.881   6.300  10.876 -0.4327 -0.2668 -0.5054
  154SAPE   O1117098   5.759   6.480  10.792  0.4091  0.1403  0.0044
  154SAPE    C117099   5.648   6.389  10.783 -0.5660  0.0001 -0.0599
  154SAPE    HA17100   5.684   6.293  10.742 -1.8021 -0.9882  1.0896
  154SAPE    HB17101   5.611   6.363  10.884  1.2512 -0.1045  0.6124
  154SAPE    C217102   5.536   6.452  10.695 -0.1914 -0.5569 -0.1039
  154SAPE    HS17103   5.466   6.373  10.661  0.3547 -1.4321  0.7601
  154SAPE   O2117104   5.599   6.501  10.571  0.7550 -0.2676 -0.6651
  154SAPE   C2117105   5.614   6.401  10.487  0.3133 -0.8098  0.4594
  154SAPE   O2217106   5.599   6.283  10.510  0.2529  0.2845 -0.5142
  154SAPE   C2217107   5.650   6.466  10.355 -0.6789  0.1248 -0.4941
  154SAPE   H2R17108   5.566   6.534  10.330  1.7480  3.8696  0.6652
  154SAPE   H2S17109   5.742   6.528  10.365 -0.3252 -0.1552 -1.8103
  154SAPE    C317110   5.457   6.557  10.776 -0.3101  0.5382  0.6309
  154SAPE    HX17111   5.531   6.628  10.819  0.3890  0.5194 -0.5236
  154SAPE    HY17112   5.402   6.510  10.861  0.7785 -1.4022  0.3208
  154SAPE   O3117113   5.358   6.626  10.689  0.6195 -0.0799  0.1614
  154SAPE   C3117114   5.347   6.756  10.717 -0.7961  0.0309  0.3943
  154SAPE   O3217115   5.404   6.807  10.811  0.1439  0.7947 -0.1108
  154SAPE   C3217116   5.245   6.824  10.628 -0.4452 -0.4318  0.0220
  154SAPE   H2X17117   5.166   6.857  10.698 -0.5612 -0.2206 -0.2050
  154SAPE   H2Y17118   5.194   6.754  10.559  1.4832 -0.0359 -1.9451
  154SAPE   C2317119   5.652   6.361  10.248  0.0984  0.7682 -0.4370
  154SAPE   H3R17120   5.612   6.399  10.152 -0.6549 -3.1023 -1.8469
  154SAPE   H3S17121   5.583   6.276  10.268 -0.8354  2.1730  3.2993
  154SAPE   C2417122   5.793   6.312  10.207 -0.0715  0.0587 -0.5267
  154SAPE   H4R17123   5.856   6.396  10.172  2.5221 -0.8953  1.4832
  154SAPE   H4S17124   5.782   6.235  10.127  0.5940  0.4656 -1.0131
  154SAPE   C2517125   5.881   6.252  10.316  0.5356  0.0177  0.6588
  154SAPE   H5R17126   5.854   6.153  10.355  2.5993 -0.2717  1.4642
  154SAPE   C2617127   5.980   6.317  10.384  0.4869 -0.0073  0.0975
  154SAPE   H6R17128   6.009   6.263  10.475  0.9167  1.1272  0.6530
  154SAPE   C2717129   6.040   6.454  10.374 -0.0494  0.1422 -0.7840
  154SAPE   H7R17130   6.021   6.488  10.270  0.7400 -1.1433 -1.3730
  154SAPE   H7S17131   6.151   6.452  10.377 -0.0508 -0.5369  2.4408
  154SAPE   C2817132   5.992   6.541  10.488 -0.9925 -0.3323 -0.5867
  154SAPE   H8R17133   5.961   6.484  10.577  2.0328 -0.6867  0.3341
  154SAPE   C2917134   6.003   6.683  10.486 -0.0796 -0.0731  0.9459
  154SAPE   H9R17135   5.969   6.748  10.568  0.4019  0.4713  0.7186
  154SAPE  C21017136   6.068   6.756  10.371 -0.4895 -1.1620  0.0290
  154SAPE  H10R17137   6.002   6.741  10.283 -0.3709 -0.0231 -0.2638
  154SAPE  H10S17138   6.171   6.718  10.354 -0.5549 -1.2865 -0.0887
  154SAPE  C21117139   6.076   6.903  10.401  0.4938 -0.7429  0.4065
  154SAPE  H11R17140   6.051   6.929  10.505  1.4569 -1.3489  0.8054
  154SAPE  C21217141   6.117   6.992  10.312  1.0434  0.0091 -0.3450
  154SAPE  H12R17142   6.119   7.094  10.352 -0.3653 -0.3872  0.7869
  154SAPE  C21317143   6.155   6.968  10.172 -0.1073  0.2424 -0.0909
  154SAPE  H13R17144   6.063   7.002  10.118 -0.1923  4.9466  2.4719
  154SAPE  H13S17145   6.171   6.859  10.159  0.7331  0.1766  1.3550
  154SAPE  C21417146   6.277   7.053  10.133  0.3866  0.6137  0.1980
  154SAPE  H14R17147   6.356   7.074  10.207  1.8154 -1.1003 -0.7694
  154SAPE  C21517148   6.300   7.087  10.008 -0.1703 -0.3910 -0.5647
  154SAPE  H15R17149   6.393   7.143   9.991 -0.1706 -0.4739 -0.8560
  154SAPE  C21617150   6.225   7.055   9.875  0.0330 -0.6330 -0.6020
  154SAPE  H16R17151   6.141   7.126   9.858  1.2256  1.1013  0.3374
  154SAPE  H16S17152   6.175   6.957   9.887  1.6991 -1.5416 -0.8649
  154SAPE  C21717153   6.304   7.056   9.743 -0.6734 -1.0817  0.0152
  154SAPE  H17R17154   6.236   7.042   9.657 -0.6921  1.3550 -0.4445
  154SAPE  H17S17155   6.386   6.982   9.752 -0.8286 -1.3193 -0.5158
  154SAPE  C21817156   6.367   7.191   9.705 -0.0203 -0.0179 -0.2868
  154SAPE  H18R17157   6.410   7.229   9.800 -0.1884  1.8860 -0.9276
  154SAPE  H18S17158   6.286   7.263   9.679 -1.4880 -0.7508  1.9679
  154SAPE  C21917159   6.464   7.177   9.592 -0.4784 -0.3311  0.1731
  154SAPE  H19R17160   6.532   7.094   9.620  0.1454  0.4677  1.0667
  154SAPE  H19S17161   6.535   7.262   9.587 -1.3037  0.3322 -0.8560
  154SAPE  C22017162   6.412   7.150   9.453  0.1509 -0.0496 -0.1300
  154SAPE  H20R17163   6.498   7.127   9.386  1.8745  3.4908  0.5969
  154SAPE  H20S17164   6.367   7.239   9.404 -0.0216 -0.2504 -0.3410
  154SAPE  H20T17165   6.341   7.065   9.454 -1.3444  1.1074 -1.3455
  154SAPE   C3317166   5.310   6.944  10.558  0.1148 -0.1385 -0.0636
  154SAPE   H3X17167   5.374   7.002  10.627 -1.8423  0.2114  1.5317
  154SAPE   H3Y17168   5.231   7.014  10.524  0.9805  0.5895 -0.6045
  154SAPE   C3417169   5.389   6.917  10.421 -0.4654 -0.7549 -0.1251
  154SAPE   H4X17170   5.418   7.015  10.377 -1.1522 -0.0088  1.0403
  154SAPE   H4Y17171   5.316   6.868  10.353 -0.3622 -0.5705 -0.3668
  154SAPE   C3517172   5.502   6.820  10.432  0.2341  0.2338 -0.0370
  154SAPE   H5X17173   5.469   6.714  10.436  1.6211 -0.2029  0.6209
  154SAPE   H5Y17174   5.557   6.836  10.528  2.2866 -0.3935 -1.0406
  154SAPE   C3617175   5.623   6.847  10.342 -0.0463 -0.1957  0.2343
  154SAPE   H6X17176   5.707   6.786  10.382 -1.1494 -1.2997  0.9321
  154SAPE   H6Y17177   5.648   6.955  10.351 -0.4563  0.0434 -1.2221
  154SAPE   C3717178   5.596   6.809  10.193 -0.4620 -0.2130 -1.0121
  154SAPE   H7X17179   5.508   6.868  10.158 -1.6873 -0.1464  1.8880
  154SAPE   H7Y17180   5.572   6.701  10.186 -0.9435 -0.3745  1.9308
  154SAPE   C3817181   5.724   6.832  10.119 -0.6854 -0.4749  0.6267
  154SAPE   H8X17182   5.810   6.765  10.140  1.4546  2.2333  1.1372
  154SAPE   H8Y17183   5.763   6.933  10.147  0.7448 -0.5350 -0.9328
  154SAPE   C3917184   5.702   6.846   9.963 -0.0936  0.5036 -0.0851
  154SAPE   H9X17185   5.630   6.929   9.944 -0.1731  0.2308 -1.0830
  154SAPE   H9Y17186   5.668   6.746   9.928  2.2248 -0.2285 -0.4346
  154SAPE  C31017187   5.839   6.863   9.888  0.4005 -0.4060  0.1991
  154SAPE  H10X17188   5.912   6.793   9.933  0.6349  1.2518  2.5168
  154SAPE  H10Y17189   5.871   6.967   9.910 -2.2841  1.3388 -3.0929
  154SAPE  C31117190   5.818   6.848   9.737  0.3179 -0.7029  0.2100
  154SAPE  H11X17191   5.728   6.909   9.713 -0.7956 -1.7266  1.5774
  154SAPE  H11Y17192   5.796   6.744   9.706 -0.9777  0.5710 -3.8757
  154SAPE  C31217193   5.932   6.905   9.649 -0.3650 -0.5026  0.3347
  154SAPE  H12X17194   6.020   6.838   9.652  1.5665  1.9731  1.7701
  154SAPE  H12Y17195   5.943   7.008   9.686 -1.8840 -0.7322  1.5141
  154SAPE  C31317196   5.880   6.917   9.500 -0.8271 -0.5810 -0.6201
  154SAPE  H13X17197   5.788   6.976   9.483 -0.7638 -0.7223 -1.5206
  154SAPE  H13Y17198   5.851   6.814   9.471 -2.1107  0.0751 -1.7858
  154SAPE  C31417199   5.995   6.961   9.409 -0.6773  0.2833  0.0290
  154SAPE  H14X17200   6.078   6.893   9.439 -2.2441 -1.5278  0.4741
  154SAPE  H14Y17201   6.020   7.065   9.438 -1.8122  1.1819 -2.0196
  154SAPE  C31517202   5.978   6.946   9.251  0.2326 -0.2326  0.8259
  154SAPE  H15X17203   5.870   6.971   9.237  0.5022  1.5519  1.6303
  154SAPE  H15Y17204   5.993   6.842   9.217 -0.2859 -0.3849  1.0502
  154SAPE  C31617205   6.061   7.052   9.179 -0.0368  0.0780 -0.0151
  154SAPE  H16X17206   6.169   7.031   9.196  0.2703  1.9662  0.5212
  154SAPE  H16Y17207   6.029   7.155   9.203 -0.1917  0.0800 -0.2217
  154SAPE  C31717208   6.047   7.040   9.023  0.5802 -0.5275 -0.0458
  154SAPE  H17X17209   6.077   6.937   8.994  1.3278 -0.9183  1.9964
  154SAPE  H17Y17210   6.113   7.120   8.983  1.4962 -2.4619 -2.6713
  154SAPE  C31817211   5.897   7.061   8.980 -0.4627 -0.3275  0.5911
  154SAPE  H18X17212   5.845   6.971   9.019  2.3190 -1.2958  2.3755
  154SAPE  H18Y17213   5.879   7.074   8.871 -0.2859 -0.4157  0.5504
  154SAPE  H18Z17214   5.848   7.151   9.024 -0.4170  2.5456 -4.4252
  155SAPE     N17215   6.278   1.253  11.130 -0.3298 -0.1421 -0.0139
  155SAPE   HN117216   6.352   1.219  11.066 -0.4516 -1.8073  0.6714
  155SAPE   HN217217   6.218   1.170  11.152  0.3755 -0.5283  0.4660
  155SAPE   HN317218   6.228   1.324  11.073  0.1876  0.9915  0.9071
  155SAPE   C1217219   6.345   1.306  11.247  0.0036  0.0740 -0.5387
  155SAPE  H12A17220   6.393   1.225  11.306 -1.5336  0.0092  0.6892
  155SAPE  H12B17221   6.266   1.347  11.313  1.5415  1.5598  0.4790
  155SAPE   C1117222   6.442   1.414  11.205  0.3220 -0.0437 -0.8826
  155SAPE  H11A17223   6.527   1.376  11.144  1.5849 -0.2947  0.9489
  155SAPE  H11B17224   6.496   1.437  11.300  1.2587 -2.2250 -0.8182
  155SAPE     P17225   6.381   1.571  10.995 -0.2393 -0.2165  0.0753
  155SAPE   O1317226   6.244   1.623  10.967  0.5635 -0.1883  0.7170
  155SAPE   O1417227   6.491   1.663  10.960  0.1155 -0.6166  0.2156
  155SAPE   O1217228   6.394   1.538  11.152  0.1896 -0.1631 -0.3601
  155SAPE   O1117229   6.394   1.433  10.917 -0.1034  0.2171 -0.0677
  155SAPE    C117230   6.469   1.425  10.796  0.0921 -0.4004  0.6317
  155SAPE    HA17231   6.567   1.475  10.810 -0.0082  0.6676 -1.8550
  155SAPE    HB17232   6.496   1.318  10.784  2.9586  0.3949 -0.8637
  155SAPE    C217233   6.409   1.503  10.670 -0.9562 -0.1355 -0.0473
  155SAPE    HS17234   6.402   1.610  10.699  0.4364 -0.0851  0.2027
  155SAPE   O2117235   6.281   1.443  10.647  0.4258 -0.5599  0.2286
  155SAPE   C2117236   6.186   1.528  10.609 -0.9457 -0.2315  0.2461
  155SAPE   O2217237   6.195   1.648  10.617 -0.4951 -0.2238 -0.4283
  155SAPE   C2217238   6.071   1.460  10.550  0.8088  0.1454  0.5545
  155SAPE   H2R17239   6.038   1.367  10.602  1.1312 -0.0599  0.3964
  155SAPE   H2S17240   5.989   1.533  10.570  1.8505  1.1809  1.1587
  155SAPE    C317241   6.514   1.488  10.556  0.7433  0.1894  0.8310
  155SAPE    HX17242   6.521   1.383  10.520 -2.9515  0.4554 -1.2187
  155SAPE    HY17243   6.618   1.516  10.583  1.2173  0.0138 -0.7015
  155SAPE   O3117244   6.477   1.570  10.441 -0.1558  0.7483  0.4474
  155SAPE   C3117245   6.468   1.697  10.456 -0.2492 -0.9831 -0.3209
  155SAPE   O3217246   6.511   1.767  10.546 -0.1574  0.4507  0.8330
  155SAPE   C3217247   6.380   1.744  10.346 -1.2753  0.1413 -0.8330
  155SAPE   H2X17248   6.342   1.841  10.385 -0.5642  0.4206 -0.8042
  155SAPE   H2Y17249   6.304   1.664  10.338 -1.0997 -0.5684  2.9299
  155SAPE   C2317250   6.072   1.429  10.394 -0.8533  0.3084 -0.1354
  155SAPE   H3R17251   6.057   1.525  10.341  2.2947  0.9366 -0.0258
  155SAPE   H3S17252   5.982   1.369  10.366  0.4872 -0.5687 -2.9129
  155SAPE   C2417253   6.198   1.350  10.345 -0.2829 -0.2862 -0.3323
  155SAPE   H4R17254   6.289   1.389  10.396 -0.5182  0.0763 -0.1818
  155SAPE   H4S17255   6.208   1.367  10.236 -0.0747 -0.7325 -0.3824
  155SAPE   C2517256   6.195   1.203  10.381 -1.2204 -0.1654 -0.7280
  155SAPE   H5R17257   6.244   1.179  10.476 -1.4062 -2.0224 -1.0611
  155SAPE   C2617258   6.148   1.105  10.300 -0.4314 -0.2635 -0.3822
  155SAPE   H6R17259   6.152   1.004  10.344  2.4475  0.3749  1.0380
  155SAPE   C2717260   6.081   1.125  10.168 -0.2822 -0.3019 -0.9152
  155SAPE   H7R17261   6.029   1.224  10.163 -1.3580 -0.9049 -2.6351
  155SAPE   H7S17262   6.007   1.045  10.147 -0.9808  0.4195 -1.2823
  155SAPE   C2817263   6.180   1.123  10.054  0.6567  0.4075 -0.3823
  155SAPE   H8R17264   6.264   1.053  10.061  1.9147  1.8775 -0.3979
  155SAPE   C2917265   6.157   1.169   9.934  0.3568 -0.0371 -0.2427
  155SAPE   H9R17266   6.232   1.156   9.855  0.7873 -1.8616  0.4258
  155SAPE  C21017267   6.022   1.239   9.893 -0.2176  0.4154 -0.2132
  155SAPE  H10R17268   5.976   1.289   9.981 -1.0038 -3.0414  1.5243
  155SAPE  H10S17269   5.954   1.158   9.859  0.6885 -0.8264  0.8308
  155SAPE  C21117270   6.052   1.342   9.793 -0.3148  0.7919 -0.4672
  155SAPE  H11R17271   6.110   1.423   9.839 -1.2913  0.6643  1.0653
  155SAPE  C21217272   6.017   1.338   9.662 -0.6933  0.1334  0.6459
  155SAPE  H12R17273   6.055   1.423   9.604 -3.9264 -0.4291 -2.6531
  155SAPE  C21317274   5.943   1.223   9.597 -0.5647 -0.7750  0.4449
  155SAPE  H13R17275   5.858   1.188   9.661 -0.3991  1.2365  1.8405
  155SAPE  H13S17276   5.997   1.126   9.603 -0.3865 -0.8355 -1.5773
  155SAPE  C21417277   5.889   1.245   9.454 -0.8315 -1.0887  0.7021
  155SAPE  H14R17278   5.780   1.260   9.449 -0.4297  2.6345  0.5322
  155SAPE  C21517279   5.967   1.246   9.347 -0.0794 -0.2545 -0.0159
  155SAPE  H15R17280   5.922   1.262   9.248  0.0862  1.2048  0.1186
  155SAPE  C21617281   6.116   1.231   9.337  0.1069 -0.4469  0.1355
  155SAPE  H16R17282   6.141   1.130   9.297  2.1207  0.9970 -2.5202
  155SAPE  H16S17283   6.175   1.226   9.432  1.4001  1.0500 -0.5505
  155SAPE  C21717284   6.192   1.334   9.252 -0.0093 -0.7802 -0.1849
  155SAPE  H17R17285   6.178   1.441   9.279  2.7525 -0.6197  1.0230
  155SAPE  H17S17286   6.148   1.321   9.151 -2.6948 -0.6362  0.8947
  155SAPE  C21817287   6.340   1.294   9.256  0.2886  0.3903  0.8877
  155SAPE  H18R17288   6.338   1.183   9.246 -1.8911  0.4454  0.2632
  155SAPE  H18S17289   6.381   1.324   9.355 -0.0353  0.7852  0.9025
  155SAPE  C21917290   6.423   1.356   9.147  0.6858 -0.1677  0.3153
  155SAPE  H19R17291   6.532   1.343   9.161  1.0866  0.7218 -1.6075
  155SAPE  H19S17292   6.406   1.466   9.142  1.4149 -0.0471  0.3759
  155SAPE  C22017293   6.394   1.305   9.003  0.1448 -0.0600  0.3633
  155SAPE  H20R17294   6.488   1.269   8.957 -0.1161  2.3029 -2.2812
  155SAPE  H20S17295   6.346   1.383   8.940 -0.4183 -0.9424 -0.3171
  155SAPE  H20T17296   6.330   1.214   9.013 -0.8734  0.4676 -1.0305
  155SAPE   C3317297   6.466   1.754  10.217 -0.1381 -0.7087 -0.2283
  155SAPE   H3X17298   6.502   1.652  10.193 -2.1990 -2.3752  2.9311
  155SAPE   H3Y17299   6.555   1.820  10.224 -0.1990 -0.4500 -1.6820
  155SAPE   C3417300   6.382   1.797  10.090  0.2742 -1.2469 -0.4045
  155SAPE   H4X17301   6.343   1.896  10.122  0.4020 -1.7012  1.2724
  155SAPE   H4Y17302   6.295   1.730  10.076 -1.6333  0.2757  2.9387
  155SAPE   C3517303   6.469   1.822   9.965  0.3626  0.1024  0.0388
  155SAPE   H5X17304   6.482   1.724   9.915 -1.6435 -0.1445 -0.0887
  155SAPE   H5Y17305   6.572   1.856   9.984  0.1560  0.3471  0.7304
  155SAPE   C3617306   6.413   1.940   9.879 -0.0517  0.4883 -0.3107
  155SAPE   H6X17307   6.408   2.029   9.945  1.6151  0.3227  0.0644
  155SAPE   H6Y17308   6.307   1.924   9.850 -0.2813  3.2752 -1.2907
  155SAPE   C3717309   6.500   1.976   9.761  0.1358 -0.0711  0.1700
  155SAPE   H7X17310   6.533   1.883   9.710  0.5763 -0.7664  1.6872
  155SAPE   H7Y17311   6.594   2.019   9.800  1.0590 -1.1666 -0.7860
  155SAPE   C3817312   6.431   2.069   9.656  0.9718  0.1014  0.0723
  155SAPE   H8X17313   6.407   2.162   9.711  2.4570 -0.4987  1.8495
  155SAPE   H8Y17314   6.340   2.013   9.626  2.2023 -1.8661 -0.2140
  155SAPE   C3917315   6.515   2.102   9.538 -0.0370 -0.0622  0.2698
  155SAPE   H9X17316   6.488   2.017   9.472 -2.9463 -0.8422  2.2780
  155SAPE   H9Y17317   6.620   2.084   9.569  0.0973 -0.3257 -0.3411
  155SAPE  C31017318   6.490   2.237   9.461  0.3170  0.4871 -0.1625
  155SAPE  H10X17319   6.519   2.315   9.534  0.2988  0.7396 -0.4268
  155SAPE  H10Y17320   6.380   2.237   9.443  0.2550  2.4964  0.0165
  155SAPE  C31117321   6.570   2.251   9.330 -0.2147  0.2820 -0.1817
  155SAPE  H11X17322   6.666   2.200   9.349  0.6803  1.3212 -1.7086
  155SAPE  H11Y17323   6.587   2.359   9.310 -1.1631  0.5715  0.4882
  155SAPE  C31217324   6.510   2.184   9.208 -0.2931  0.1440 -0.4127
  155SAPE  H12X17325   6.407   2.217   9.182 -0.6835 -1.3145 -0.7825
  155SAPE  H12Y17326   6.495   2.077   9.235 -0.9190  0.4768  0.6213
  155SAPE  C31317327   6.588   2.190   9.078 -0.5513  0.4063 -0.4451
  155SAPE  H13X17328   6.684   2.134   9.085 -0.6848 -0.1559 -2.4746
  155SAPE  H13Y17329   6.629   2.293   9.070 -2.8389  1.1916 -4.2678
  155SAPE  C31417330   6.498   2.142   8.962  0.6149  0.5083 -0.1863
  155SAPE  H14X17331   6.396   2.185   8.962 -0.2427 -1.4217  0.0720
  155SAPE  H14Y17332   6.487   2.032   8.967  1.4203  0.2386 -2.7536
  155SAPE  C31517333   6.560   2.171   8.823  0.1022 -0.7099  0.3621
  155SAPE  H15X17334   6.648   2.108   8.798  0.7302  0.0170  0.7279
  155SAPE  H15Y17335   6.592   2.277   8.826 -0.4694 -0.5353  0.4080
  155SAPE  C31617336   6.454   2.167   8.708 -0.1231  0.2786  0.0071
  155SAPE  H16X17337   6.358   2.213   8.740 -0.3367  0.6187 -1.0984
  155SAPE  H16Y17338   6.426   2.060   8.697 -0.8840  0.1280  2.6894
  155SAPE  C31717339   6.510   2.221   8.574  0.7177 -0.1260  0.8550
  155SAPE  H17X17340   6.594   2.152   8.551  0.9112  0.3722  0.0345
  155SAPE  H17Y17341   6.549   2.325   8.586 -0.0335  0.3961 -0.9142
  155SAPE  C31817342   6.404   2.218   8.470 -0.0712 -0.2719 -0.5892
  155SAPE  H18X17343   6.326   2.296   8.483  2.2467  2.4513 -1.8938
  155SAPE  H18Y17344   6.357   2.117   8.463  2.8739 -1.6559 -2.8015
  155SAPE  H18Z17345   6.436   2.251   8.369  0.3017  2.0373  0.2197
  156SAPE     N17346   4.314   5.378  11.042 -0.0635  0.6029 -0.7805
  156SAPE   HN117347   4.239   5.448  11.025 -1.0463 -0.2971 -0.2199
  156SAPE   HN217348   4.358   5.341  10.955  1.6083  1.7539 -0.4804
  156SAPE   HN317349   4.259   5.311  11.099 -1.1728  1.8957 -0.2817
  156SAPE   C1217350   4.430   5.448  11.119 -0.1722 -0.2727 -0.2528
  156SAPE  H12A17351   4.504   5.368  11.141 -0.1729  0.2053  1.6493
  156SAPE  H12B17352   4.379   5.486  11.210 -1.2270  3.0783 -2.0599
  156SAPE   C1117353   4.500   5.565  11.048 -0.1494  0.5436  0.5014
  156SAPE  H11A17354   4.588   5.595  11.109  0.2055  0.3833  0.0809
  156SAPE  H11B17355   4.430   5.651  11.054 -0.7653  0.0333  0.6753
  156SAPE     P17356   4.528   5.637  10.804  0.0486 -0.0551 -0.2383
  156SAPE   O1317357   4.567   5.578  10.677  0.1466  0.3436  0.8045
  156SAPE   O1417358   4.389   5.688  10.817 -0.4795  0.1087  0.0106
  156SAPE   O1217359   4.555   5.534  10.917  0.4759  0.1622  0.1481
  156SAPE   O1117360   4.626   5.754  10.845 -0.3812  0.4406  0.1049
  156SAPE    C117361   4.754   5.770  10.782  0.2705 -0.7958 -0.2214
  156SAPE    HA17362   4.836   5.783  10.856 -0.5970  1.2024  0.4618
  156SAPE    HB17363   4.791   5.684  10.722 -1.7722 -0.0265 -2.7793
  156SAPE    C217364   4.755   5.890  10.683  0.1276  0.3798  0.5014
  156SAPE    HS17365   4.727   5.987  10.729  0.1903 -0.1445  1.6668
  156SAPE   O2117366   4.663   5.847  10.576 -0.3009  0.4630 -0.1029
  156SAPE   C2117367   4.584   5.932  10.528  0.1543 -0.5356 -0.2393
  156SAPE   O2217368   4.564   6.046  10.573  0.4576  0.9388 -0.3545
  156SAPE   C2217369   4.496   5.865  10.416  0.4429 -0.5844 -0.4736
  156SAPE   H2R17370   4.537   5.767  10.384 -0.4823 -0.8644 -0.8225
  156SAPE   H2S17371   4.397   5.859  10.466  0.3989 -0.4549 -0.5450
  156SAPE    C317372   4.891   5.920  10.611 -0.5023 -0.2324  0.6026
  156SAPE    HX17373   4.909   5.830  10.548 -1.0706  0.3248 -0.3892
  156SAPE    HY17374   4.965   5.927  10.693 -0.2720 -2.0315  0.5761
  156SAPE   O3117375   4.884   6.042  10.530 -0.2871  0.4192  0.7580
  156SAPE   C3117376   4.895   6.158  10.581  0.0721  0.5358  0.4091
  156SAPE   O3217377   4.901   6.183  10.698  0.0916 -0.2434  0.2233
  156SAPE   C3217378   4.862   6.261  10.467  0.6527  0.6680  0.4627
  156SAPE   H2X17379   4.756   6.290  10.481  0.2296 -0.1945 -0.6872
  156SAPE   H2Y17380   4.884   6.212  10.369  1.2981 -0.7726  1.2884
  156SAPE   C2317381   4.474   5.968  10.304  1.2609  0.9112 -0.2400
  156SAPE   H3R17382   4.432   6.062  10.345  0.8734  1.2518 -1.3908
  156SAPE   H3S17383   4.390   5.926  10.245  0.9815  1.7861 -0.4703
  156SAPE   C2417384   4.595   5.986  10.210 -1.0580  0.1080 -0.5082
  156SAPE   H4R17385   4.617   5.885  10.170 -4.0638 -0.6159 -0.6067
  156SAPE   H4S17386   4.680   6.017  10.275 -0.2198 -1.3794 -0.8535
  156SAPE   C2517387   4.579   6.088  10.098  0.2431 -0.4137  0.1091
  156SAPE   H5R17388   4.596   6.194  10.121  0.0819 -0.7317  1.7532
  156SAPE   C2617389   4.536   6.056   9.975 -0.0084  0.7307 -0.1669
  156SAPE   H6R17390   4.512   6.132   9.899 -0.9116  1.3490  0.7123
  156SAPE   C2717391   4.498   5.911   9.933 -0.1167  0.0250  0.3805
  156SAPE   H7R17392   4.417   5.944   9.864  0.8062  0.0180 -0.7443
  156SAPE   H7S17393   4.446   5.849  10.009 -1.0110  0.3770  0.0815
  156SAPE   C2817394   4.615   5.839   9.862  0.5012 -0.5004  0.2733
  156SAPE   H8R17395   4.686   5.790   9.930  1.5657 -1.6914 -1.6159
  156SAPE   C2917396   4.635   5.844   9.732 -0.0936  0.1373  0.9481
  156SAPE   H9R17397   4.718   5.780   9.698  0.5080  0.2919  2.0551
  156SAPE  C21017398   4.544   5.905   9.629 -0.2793 -0.1936  0.7937
  156SAPE  H10R17399   4.560   6.011   9.601 -0.1757 -0.5143 -0.4125
  156SAPE  H10S17400   4.441   5.891   9.667 -1.0493 -0.2195 -1.2111
  156SAPE  C21117401   4.533   5.815   9.510  0.7192 -0.2416  0.5872
  156SAPE  H11R17402   4.575   5.714   9.521  1.6069  0.0905  0.3195
  156SAPE  C21217403   4.483   5.851   9.386 -0.4114 -0.3560  0.8000
  156SAPE  H12R17404   4.480   5.777   9.305 -1.2617  0.9714 -0.4495
  156SAPE  C21317405   4.425   5.987   9.337 -0.4455  0.3919  0.2955
  156SAPE  H13R17406   4.481   6.023   9.248 -0.3482  0.5210  0.4081
  156SAPE  H13S17407   4.443   6.068   9.411  1.4075 -0.2407  0.5987
  156SAPE  C21417408   4.280   5.976   9.320 -0.3158 -0.3931  0.8974
  156SAPE  H14R17409   4.212   5.969   9.406 -1.7239  2.6887  0.1635
  156SAPE  C21517410   4.220   5.987   9.197  0.1802 -0.2304 -0.2315
  156SAPE  H15R17411   4.111   5.991   9.186  0.2848  0.3761 -1.2583
  156SAPE  C21617412   4.276   6.010   9.062 -0.2873  0.2542  0.7526
  156SAPE  H16R17413   4.198   5.964   8.998 -0.3797 -1.0141  1.7275
  156SAPE  H16S17414   4.368   5.949   9.048 -1.8930 -2.6771  1.9719
  156SAPE  C21717415   4.290   6.154   9.016  0.5173  0.0609 -0.2479
  156SAPE  H17R17416   4.368   6.216   9.066 -0.9752  1.3755  0.5378
  156SAPE  H17S17417   4.191   6.198   9.040 -0.0001 -0.2003 -1.8229
  156SAPE  C21817418   4.322   6.164   8.870  0.0494 -0.5371  0.2364
  156SAPE  H18R17419   4.371   6.263   8.859  1.6716 -1.3202  0.1468
  156SAPE  H18S17420   4.228   6.139   8.817  0.8640  0.7813 -1.9833
  156SAPE  C21917421   4.432   6.071   8.812  0.3129  0.0509  0.7646
  156SAPE  H19R17422   4.508   6.046   8.889 -0.2095 -1.9655  0.6946
  156SAPE  H19S17423   4.483   6.136   8.738  1.5645 -0.9691  0.6907
  156SAPE  C22017424   4.366   5.947   8.743 -0.3121 -0.1360 -0.0337
  156SAPE  H20R17425   4.440   5.868   8.716 -0.0698 -0.0556  0.3946
  156SAPE  H20S17426   4.320   5.976   8.646  2.1575  1.3605 -0.8474
  156SAPE  H20T17427   4.295   5.897   8.812  2.0088 -2.5652  0.8119
  156SAPE   C3317428   4.944   6.384  10.467 -0.9586  0.5393  0.5281
  156SAPE   H3X17429   4.939   6.431  10.567  0.4750 -0.9860  1.3708
  156SAPE   H3Y17430   4.899   6.447  10.387 -1.0332  2.1338  1.7688
  156SAPE   C3417431   5.097   6.367  10.426  0.2264 -0.7720 -0.2003
  156SAPE   H4X17432   5.092   6.307  10.333 -0.0382 -1.7560  0.4341
  156SAPE   H4Y17433   5.138   6.300  10.505  0.9238 -0.8389 -0.6169
  156SAPE   C3517434   5.159   6.502  10.430 -0.5053 -0.0427 -0.1577
  156SAPE   H5X17435   5.266   6.496  10.459 -0.4448 -1.1819 -0.5728
  156SAPE   H5Y17436   5.109   6.554  10.515  0.8202 -0.7925  1.1266
  156SAPE   C3617437   5.158   6.576  10.300 -0.9118  0.1087  0.1735
  156SAPE   H6X17438   5.207   6.672  10.325  1.4278 -0.9569 -0.0233
  156SAPE   H6Y17439   5.056   6.601  10.263 -1.0175 -2.5462 -1.6385
  156SAPE   C3717440   5.233   6.512  10.183 -0.8715  0.0811 -0.2573
  156SAPE   H7X17441   5.197   6.410  10.158 -0.8029 -0.2553  0.9561
  156SAPE   H7Y17442   5.337   6.515  10.222  0.2185  1.2571 -2.9884
  156SAPE   C3817443   5.230   6.600  10.062 -0.0539 -0.3353  0.2051
  156SAPE   H8X17444   5.326   6.606  10.006  0.9123 -0.1603  1.8132
  156SAPE   H8Y17445   5.212   6.708  10.085  2.0150  0.1044 -0.0258
  156SAPE   C3917446   5.111   6.560   9.976 -0.0060  0.3583 -0.7647
  156SAPE   H9X17447   5.016   6.578  10.030  0.4825 -0.0558  0.2473
  156SAPE   H9Y17448   5.121   6.453   9.946 -2.7704  0.4479 -2.4207
  156SAPE  C31017449   5.100   6.638   9.841 -0.1435 -0.0787 -0.6988
  156SAPE  H10X17450   5.093   6.748   9.855 -0.3114 -0.2781  0.9498
  156SAPE  H10Y17451   5.009   6.598   9.790 -1.9919  1.1381  1.4687
  156SAPE  C31117452   5.222   6.615   9.751 -0.0544  0.0410  0.2408
  156SAPE  H11X17453   5.243   6.506   9.750  0.2907  0.1026  0.6447
  156SAPE  H11Y17454   5.305   6.671   9.798 -0.7629  0.9927  0.3778
  156SAPE  C31217455   5.201   6.653   9.601  0.1804 -0.6174  0.1458
  156SAPE  H12X17456   5.294   6.628   9.545  0.4905 -0.5303  0.6226
  156SAPE  H12Y17457   5.191   6.763   9.591  3.4046 -0.2146  0.2362
  156SAPE  C31317458   5.081   6.576   9.530 -0.3487  0.0098 -0.0226
  156SAPE  H13X17459   4.993   6.639   9.555  1.9570  3.2362  0.6145
  156SAPE  H13Y17460   5.068   6.485   9.594 -1.7301  0.0041 -0.2809
  156SAPE  C31417461   5.117   6.531   9.382 -0.2597 -0.3989  0.5973
  156SAPE  H14X17462   5.038   6.471   9.330 -2.4007  2.2035  0.6034
  156SAPE  H14Y17463   5.210   6.471   9.383  1.1203  1.5289 -1.5396
  156SAPE  C31517464   5.147   6.658   9.290 -0.4531 -0.6459 -0.0820
  156SAPE  H15X17465   5.249   6.693   9.313  0.3105 -1.2400 -2.3082
  156SAPE  H15Y17466   5.070   6.736   9.305  0.9499  0.4407  1.8362
  156SAPE  C31617467   5.142   6.617   9.134  0.1714 -0.7127 -0.2564
  156SAPE  H16X17468   5.174   6.700   9.068  0.5575 -0.3109  0.4241
  156SAPE  H16Y17469   5.039   6.600   9.096 -0.0964  1.2545 -0.4988
  156SAPE  C31717470   5.224   6.487   9.102 -0.4813  0.0369 -0.5410
  156SAPE  H17X17471   5.188   6.394   9.152 -2.3568  0.3919 -1.1652
  156SAPE  H17Y17472   5.317   6.514   9.157 -1.4061  0.6518  0.7778
  156SAPE  C31817473   5.245   6.479   8.951  0.7733  0.2231  0.4007
  156SAPE  H18X17474   5.335   6.418   8.926  0.8366  0.6850 -0.5475
  156SAPE  H18Y17475   5.279   6.576   8.908  2.3353  0.4595  2.0394
  156SAPE  H18Z17476   5.158   6.437   8.897  1.1463 -1.1371  0.8284
  157SAPE     N17477   3.497   4.290  10.804  0.2307  0.4838  0.2563
  157SAPE   HN117478   3.498   4.188  10.823 -0.1568  0.2846 -0.7222
  157SAPE   HN217479   3.493   4.347  10.891  0.6424  1.6306 -0.4469
  157SAPE   HN317480   3.413   4.316  10.747  0.1436  0.8571  0.5539
  157SAPE   C1217481   3.625   4.335  10.742 -0.4923  0.1857  0.8898
  157SAPE  H12A17482   3.621   4.300  10.637  2.5075 -0.9954  1.0655
  157SAPE  H12B17483   3.721   4.293  10.780  1.3091  3.8024  0.7657
  157SAPE   C1117484   3.632   4.483  10.739 -0.2708  0.1604 -0.3437
  157SAPE  H11A17485   3.540   4.528  10.697 -1.0034 -1.0296 -0.0585
  157SAPE  H11B17486   3.720   4.500  10.673 -0.0831 -1.0840 -0.4370
  157SAPE     P17487   3.788   4.549  10.937  0.5313 -0.1051  0.3842
  157SAPE   O1317488   3.767   4.624  11.062  0.0749  0.2289 -0.1866
  157SAPE   O1417489   3.858   4.412  10.939  0.3719  0.0613 -0.0477
  157SAPE   O1217490   3.649   4.530  10.867 -0.3002  0.8100 -0.2264
  157SAPE   O1117491   3.859   4.647  10.836 -0.5761  0.6812 -0.1589
  157SAPE    C117492   3.984   4.709  10.877 -0.1987 -0.4265  0.4508
  157SAPE    HA17493   3.998   4.731  10.985  2.6194  1.8704 -0.2525
  157SAPE    HB17494   4.068   4.642  10.849  1.3372  1.2682  0.8643
  157SAPE    C217495   4.004   4.849  10.804 -0.2504 -0.4434  0.0494
  157SAPE    HS17496   3.916   4.912  10.830  0.5623  0.6421  0.2396
  157SAPE   O2117497   4.013   4.819  10.664 -0.4024 -0.0003 -0.5331
  157SAPE   C2117498   3.906   4.841  10.594 -0.7329 -0.5257  0.2112
  157SAPE   O2217499   3.805   4.898  10.640  0.2338  0.1090  0.2209
  157SAPE   C2217500   3.923   4.791  10.445 -0.1721  0.2600 -0.2857
  157SAPE   H2R17501   4.030   4.790  10.415 -0.4032  0.0497 -1.1448
  157SAPE   H2S17502   3.892   4.685  10.443  0.2609  0.1197  0.2714
  157SAPE    C317503   4.133   4.919  10.859  0.0659 -0.2661 -0.0601
  157SAPE    HX17504   4.225   4.866  10.825  1.1262  2.8342 -2.4612
  157SAPE    HY17505   4.139   4.906  10.970  2.3128 -1.1221 -0.2275
  157SAPE   O3117506   4.151   5.061  10.815 -0.1531  0.2068 -0.2714
  157SAPE   C3117507   4.059   5.146  10.867  0.3235  0.3737 -0.1129
  157SAPE   O3217508   3.975   5.119  10.954  0.0901 -0.1808  0.6275
  157SAPE   C3217509   4.075   5.282  10.802 -0.6926  0.3824 -0.2465
  157SAPE   H2X17510   4.169   5.284  10.743 -1.1098 -2.5868 -1.1871
  157SAPE   H2Y17511   4.090   5.348  10.890 -2.2338 -1.1279  1.2103
  157SAPE   C2317512   3.858   4.882  10.337  0.0365  0.0541  0.1545
  157SAPE   H3R17513   3.915   4.977  10.323 -0.5376  0.3988  0.1283
  157SAPE   H3S17514   3.756   4.912  10.367  0.6509 -0.0812  2.5879
  157SAPE   C2417515   3.838   4.816  10.199  0.1024  0.4032  0.2672
  157SAPE   H4R17516   3.793   4.719  10.229  0.0043  0.5687  0.6545
  157SAPE   H4S17517   3.931   4.793  10.142  0.1541 -0.7555  0.7773
  157SAPE   C2517518   3.741   4.894  10.110  0.2116  0.1242 -0.2518
  157SAPE   H5R17519   3.686   4.975  10.160 -0.5045 -1.0866  1.0211
  157SAPE   C2617520   3.723   4.863   9.978 -0.2653 -0.0681 -0.0813
  157SAPE   H6R17521   3.658   4.923   9.914 -4.5482 -3.0646  0.9667
  157SAPE   C2717522   3.788   4.750   9.899 -0.5859  0.0242 -0.7829
  157SAPE   H7R17523   3.849   4.685   9.965  0.8127 -1.9911 -3.8074
  157SAPE   H7S17524   3.871   4.782   9.831  1.1133 -0.3350  1.0293
  157SAPE   C2817525   3.684   4.675   9.821 -0.4985  0.3055 -0.0890
  157SAPE   H8R17526   3.616   4.620   9.887 -0.0152 -0.6987 -0.4014
  157SAPE   C2917527   3.676   4.658   9.690 -0.2581 -0.2349  0.3008
  157SAPE   H9R17528   3.589   4.599   9.657 -1.6361  1.0940  1.4346
  157SAPE  C21017529   3.766   4.721   9.586  0.0376 -0.1080  0.7055
  157SAPE  H10R17530   3.749   4.665   9.491  1.1137 -1.2495  1.1597
  157SAPE  H10S17531   3.873   4.704   9.609  0.3975  2.3195  1.0192
  157SAPE  C21117532   3.735   4.866   9.564  0.0208  0.7448  0.5729
  157SAPE  H11R17533   3.684   4.914   9.649  1.7824  0.6570  1.7171
  157SAPE  C21217534   3.743   4.938   9.450 -0.5584  0.1390 -0.0089
  157SAPE  H12R17535   3.716   5.044   9.464  0.1213  0.2633  0.3990
  157SAPE  C21317536   3.798   4.892   9.318  0.3921 -0.4297  0.0829
  157SAPE  H13R17537   3.772   4.787   9.294 -2.3418  0.5810 -1.9219
  157SAPE  H13S17538   3.908   4.884   9.331  0.1631 -2.4977  1.2482
  157SAPE  C21417539   3.761   4.982   9.201  0.6347 -0.2190  0.0903
  157SAPE  H14R17540   3.700   5.070   9.227 -0.5215 -0.0563 -2.7563
  157SAPE  C21517541   3.832   4.983   9.083  0.1810 -0.2823 -0.5455
  157SAPE  H15R17542   3.811   5.051   8.999 -1.5874  1.1453  0.9745
  157SAPE  C21617543   3.947   4.891   9.051 -0.3547 -0.0132  0.1831
  157SAPE  H16R17544   3.977   4.826   9.135 -0.0785  1.8541  1.6137
  157SAPE  H16S17545   4.032   4.960   9.033 -0.2025 -0.5470 -1.2635
  157SAPE  C21717546   3.936   4.797   8.930 -0.0316  0.2400 -0.6966
  157SAPE  H17R17547   3.910   4.855   8.838  1.0812  2.5127  0.3404
  157SAPE  H17S17548   3.855   4.723   8.947  1.4371 -1.4056 -0.6457
  157SAPE  C21817549   4.060   4.707   8.915  0.2894 -0.2466  0.2581
  157SAPE  H18R17550   4.043   4.655   8.818 -1.9297 -0.6136  0.7738
  157SAPE  H18S17551   4.062   4.634   8.999  1.1619  0.3280  0.7472
  157SAPE  C21917552   4.199   4.771   8.921 -0.6805  0.2153  0.1992
  157SAPE  H19R17553   4.223   4.802   9.025 -0.4709 -3.4578  1.4004
  157SAPE  H19S17554   4.220   4.858   8.855 -2.7792  2.0125  1.7655
  157SAPE  C22017555   4.302   4.651   8.894  0.2617 -0.0601 -0.1751
  157SAPE  H20R17556   4.256   4.552   8.915 -0.8332  0.2409 -1.0123
  157SAPE  H20S17557   4.397   4.659   8.950  0.0351 -1.1411  0.3996
  157SAPE  H20T17558   4.317   4.655   8.784  0.3245  0.4105 -0.1504
  157SAPE   C3317559   3.957   5.342  10.724  0.5306  0.0223  0.4062
  157SAPE   H3X17560   3.980   5.449  10.706 -3.5820  1.2605  1.5469
  157SAPE   H3Y17561   3.868   5.339  10.791  2.0924  0.7261  2.6480
  157SAPE   C3417562   3.936   5.267  10.594 -0.8387 -0.7210 -0.6794
  157SAPE   H4X17563   3.910   5.161  10.617  1.2415 -0.9951  0.6260
  157SAPE   H4Y17564   4.030   5.272  10.536 -0.2297 -0.9404  0.2731
  157SAPE   C3517565   3.823   5.326  10.511  1.2477 -0.0580 -0.1904
  157SAPE   H5X17566   3.856   5.427  10.480 -1.1597  0.7829 -0.1689
  157SAPE   H5Y17567   3.725   5.347  10.558 -0.1992 -1.6812 -2.3095
  157SAPE   C3617568   3.808   5.249  10.377  0.4502  0.0254  0.3279
  157SAPE   H6X17569   3.725   5.176  10.385  0.3807  0.2961  3.2190
  157SAPE   H6Y17570   3.895   5.183  10.360 -1.3337 -1.8906 -2.1044
  157SAPE   C3717571   3.798   5.341  10.255  0.1465 -0.1011  0.1027
  157SAPE   H7X17572   3.882   5.414  10.258  0.3738 -0.3750  1.1270
  157SAPE   H7Y17573   3.713   5.410  10.272  0.8085  0.5613  0.8147
  157SAPE   C3817574   3.805   5.267  10.124  0.1629 -0.4050 -0.0233
  157SAPE   H8X17575   3.717   5.200  10.125 -0.2245  0.0084 -2.4835
  157SAPE   H8Y17576   3.889   5.195  10.118  0.1075 -0.3728 -1.2874
  157SAPE   C3917577   3.793   5.359  10.002  0.3284  0.1733 -0.1414
  157SAPE   H9X17578   3.859   5.445  10.027  2.1809 -1.7414  2.0035
  157SAPE   H9Y17579   3.687   5.395  10.003  0.5507  0.8402  0.1903
  157SAPE  C31017580   3.827   5.287   9.873 -0.1730 -0.0105  0.0959
  157SAPE  H10X17581   3.769   5.192   9.864  0.6995 -0.4042 -1.8827
  157SAPE  H10Y17582   3.933   5.255   9.880 -0.1512 -0.0541 -0.3954
  157SAPE  C31117583   3.795   5.366   9.753 -0.2750  0.2557  0.7871
  157SAPE  H11X17584   3.847   5.464   9.757 -0.1144  0.1412  1.7654
  157SAPE  H11Y17585   3.687   5.390   9.760  0.3698  3.0446  2.8526
  157SAPE  C31217586   3.820   5.294   9.616  0.8987  0.3912 -1.4226
  157SAPE  H12X17587   3.780   5.190   9.618  2.0506 -0.1016 -2.5013
  157SAPE  H12Y17588   3.929   5.284   9.596  0.9562  0.4914 -1.1711
  157SAPE  C31317589   3.747   5.369   9.496  0.1888 -0.0415 -0.7739
  157SAPE  H13X17590   3.770   5.478   9.498 -1.2787  0.3341  2.9425
  157SAPE  H13Y17591   3.638   5.355   9.507  0.4536 -1.3016  0.5580
  157SAPE  C31417592   3.794   5.327   9.355  0.9622  0.3669 -0.8207
  157SAPE  H14X17593   3.772   5.219   9.339  2.0863 -0.0254  0.1402
  157SAPE  H14Y17594   3.905   5.321   9.356  0.8980 -1.4023 -0.2883
  157SAPE  C31517595   3.741   5.416   9.242 -0.3879 -1.1125 -0.3238
  157SAPE  H15X17596   3.806   5.399   9.154 -0.3502 -1.3900 -0.2423
  157SAPE  H15Y17597   3.749   5.525   9.262 -1.2018 -0.9638 -0.7275
  157SAPE  C31617598   3.596   5.388   9.204 -0.4307  0.5178  0.9110
  157SAPE  H16X17599   3.542   5.416   9.296 -0.0225 -0.8987  1.6107
  157SAPE  H16Y17600   3.581   5.278   9.195  2.4832 -0.0577  1.9621
  157SAPE  C31717601   3.565   5.466   9.068  0.5812  1.1402 -0.4207
  157SAPE  H17X17602   3.611   5.567   9.072  1.1245  0.8534  2.5191
  157SAPE  H17Y17603   3.455   5.481   9.070  0.0903 -1.9622  0.7457
  157SAPE  C31817604   3.591   5.387   8.937 -0.1776 -0.4029 -0.1519
  157SAPE  H18X17605   3.540   5.289   8.947 -1.0997  0.2499  2.2268
  157SAPE  H18Y17606   3.701   5.376   8.934 -0.0045  0.4886  1.4366
  157SAPE  H18Z17607   3.551   5.432   8.844 -0.2544 -2.9195 -1.4010
  158SAPE     N17608   3.505   0.270  10.560  0.2154  0.1195  0.3612
  158SAPE   HN117609   3.466   0.174  10.561 -0.4518  0.3500 -1.0063
  158SAPE   HN217610   3.601   0.291  10.595 -0.2333  1.1930  0.9633
  158SAPE   HN317611   3.441   0.325  10.619  0.6784 -0.3386  1.3088
  158SAPE   C1217612   3.515   0.299  10.409  0.4264  0.0618 -0.3588
  158SAPE  H12A17613   3.510   0.409  10.397 -0.4891 -0.1243 -1.9169
  158SAPE  H12B17614   3.422   0.261  10.361  1.1390 -0.3533 -1.4437
  158SAPE   C1117615   3.647   0.238  10.352  0.5812  1.0273  0.4768
  158SAPE  H11A17616   3.662   0.263  10.245  2.5453  1.2006  0.7555
  158SAPE  H11B17617   3.644   0.128  10.341  0.8788  1.2680 -4.2366
  158SAPE     P17618   3.834   0.184  10.522 -0.2333 -0.3224 -0.1550
  158SAPE   O1317619   3.766   0.214  10.654  0.3369  0.2929  0.2563
  158SAPE   O1417620   3.832   0.050  10.464  0.0670 -0.3549  0.5958
  158SAPE   O1217621   3.765   0.287  10.417  0.6414  0.1187  0.5720
  158SAPE   O1117622   3.986   0.237  10.520  0.1346 -0.7789  1.0711
  158SAPE    C117623   4.020   0.376  10.489  0.5689 -0.1772 -0.1315
  158SAPE    HA17624   3.925   0.432  10.477  0.4148 -0.1187  1.1680
  158SAPE    HB17625   4.070   0.418  10.579 -2.5616 -1.0910  2.2427
  158SAPE    C217626   4.114   0.384  10.370  0.3597 -0.7114  0.7785
  158SAPE    HS17627   4.144   0.489  10.350 -1.1472 -0.1228  1.3962
  158SAPE   O2117628   4.048   0.339  10.253  0.2578  0.3286 -0.4627
  158SAPE   C2117629   3.951   0.424  10.202 -0.0498 -0.3107  0.2767
  158SAPE   O2217630   3.944   0.540  10.234 -0.3199  0.0978  0.2435
  158SAPE   C2217631   3.867   0.358  10.098 -0.0217 -0.8419  0.0571
  158SAPE   H2R17632   3.763   0.395  10.111 -0.9079 -2.1644 -2.5931
  158SAPE   H2S17633   3.906   0.380   9.997 -1.7025  0.0593 -0.4342
  158SAPE    C317634   4.238   0.301  10.392 -0.0680  0.0608 -0.6465
  158SAPE    HX17635   4.197   0.198  10.385  1.3954 -0.4781 -1.7968
  158SAPE    HY17636   4.271   0.334  10.492 -2.4526  3.2181 -0.7428
  158SAPE   O3117637   4.342   0.324  10.291 -0.0951 -0.3643 -0.0741
  158SAPE   C3117638   4.366   0.234  10.194  0.9446 -0.1278 -0.7554
  158SAPE   O3217639   4.325   0.118  10.191  0.6756 -0.7805 -0.0820
  158SAPE   C3217640   4.457   0.286  10.086  0.0964  0.3004 -0.1692
  158SAPE   H2X17641   4.561   0.276  10.123  0.6168  0.0831 -1.6443
  158SAPE   H2Y17642   4.435   0.394  10.071  1.3025  0.5057 -0.5790
  158SAPE   C2317643   3.872   0.206  10.091 -0.4331  0.1575 -0.5254
  158SAPE   H3R17644   3.778   0.168  10.045 -0.1301 -0.1874 -0.8700
  158SAPE   H3S17645   3.858   0.144  10.182 -1.2821  0.4872 -0.4181
  158SAPE   C2417646   3.987   0.165   9.994  0.5280  0.9210  0.5682
  158SAPE   H4R17647   4.079   0.210  10.038  0.3032  2.6949 -0.6875
  158SAPE   H4S17648   3.974   0.211   9.894  2.9265  1.0801  0.2825
  158SAPE   C2517649   4.010   0.019   9.972 -0.2175  0.1961  0.2323
  158SAPE   H5R17650   3.974  -0.055  10.045 -1.3142  0.3199 -0.1738
  158SAPE   C2617651   4.076  -0.039   9.867 -0.3747  1.0099  0.4312
  158SAPE   H6R17652   4.085  -0.148   9.874  3.9156  1.2816  1.9155
  158SAPE   C2717653   4.138   0.031   9.745  0.5819  0.0833  0.5802
  158SAPE   H7R17654   4.246   0.043   9.766  0.7239 -0.7777  0.3996
  158SAPE   H7S17655   4.095   0.132   9.728  1.8832  1.0486  2.5749
  158SAPE   C2817656   4.127  -0.056   9.618  1.1804  0.2217 -0.0800
  158SAPE   H8R17657   4.123  -0.165   9.628 -0.0251  0.2256 -0.3257
  158SAPE   C2917658   4.138  -0.013   9.491 -0.5765  0.3116  0.3352
  158SAPE   H9R17659   4.113  -0.093   9.419  3.1631 -1.7450  1.0174
  158SAPE  C21017660   4.157   0.130   9.437  0.0421 -0.2042  0.0083
  158SAPE  H10R17661   4.226   0.129   9.350 -1.0935 -0.6455 -0.8936
  158SAPE  H10S17662   4.202   0.193   9.517  0.0823 -1.2666  0.8534
  158SAPE  C21117663   4.029   0.195   9.389 -0.0508 -1.0043 -0.8045
  158SAPE  H11R17664   3.967   0.242   9.468  0.5578  1.2150 -1.5568
  158SAPE  C21217665   3.993   0.219   9.260  0.7877  0.3215  0.2653
  158SAPE  H12R17666   3.902   0.278   9.241 -1.1861 -2.2480  1.2131
  158SAPE  C21317667   4.058   0.172   9.130 -0.2881  0.1457  0.4595
  158SAPE  H13R17668   4.094   0.069   9.153 -1.2678  0.1975  2.4132
  158SAPE  H13S17669   4.150   0.233   9.118  0.8233 -0.9964  2.5631
  158SAPE  C21417670   3.977   0.163   9.001  0.1564  0.0761 -0.6576
  158SAPE  H14R17671   3.891   0.096   9.011  0.8561 -0.5321  2.2075
  158SAPE  C21517672   3.990   0.239   8.891 -0.8229  0.0738  0.0805
  158SAPE  H15R17673   3.922   0.212   8.809 -0.6016  2.2607 -0.8959
  158SAPE  C21617674   4.102   0.343   8.865 -0.3119 -0.7454 -0.4813
  158SAPE  H16R17675   4.143   0.375   8.963  0.9788 -1.2012 -0.8441
  158SAPE  H16S17676   4.067   0.442   8.828  0.0934 -1.0854 -1.8665
  158SAPE  C21717677   4.209   0.288   8.774  0.1269 -0.0141  0.6942
  158SAPE  H17R17678   4.159   0.255   8.681 -2.3046  3.9056  0.3851
  158SAPE  H17S17679   4.259   0.195   8.808  0.6908 -0.5413 -1.4480
  158SAPE  C21817680   4.326   0.385   8.745 -0.1532  0.3079  0.5605
  158SAPE  H18R17681   4.371   0.419   8.841  1.1150  0.6015 -0.1075
  158SAPE  H18S17682   4.272   0.467   8.693  0.1533 -0.4301 -0.9481
  158SAPE  C21917683   4.445   0.324   8.671 -0.4203  0.1795  0.0043
  158SAPE  H19R17684   4.454   0.221   8.710 -2.0734 -0.8961 -2.2166
  158SAPE  H19S17685   4.542   0.374   8.694  0.1202 -0.5381 -0.7001
  158SAPE  C22017686   4.428   0.319   8.515  0.3745  0.3038  0.0666
  158SAPE  H20R17687   4.349   0.247   8.485  0.3113  0.5460 -0.3550
  158SAPE  H20S17688   4.525   0.297   8.466  0.6498  4.0416 -1.3722
  158SAPE  H20T17689   4.396   0.420   8.480  1.0581  0.4297 -0.2030
  158SAPE   C3317690   4.449   0.220   9.944 -0.0226  0.0214 -0.9764
  158SAPE   H3X17691   4.351   0.244   9.898 -0.8019 -1.7595 -0.3743
  158SAPE   H3Y17692   4.447   0.109   9.951  3.1574 -0.0629  0.2392
  158SAPE   C3417693   4.569   0.259   9.865  0.6207  0.4887 -0.1728
  158SAPE   H4X17694   4.662   0.222   9.913  1.4116  1.0139 -1.2596
  158SAPE   H4Y17695   4.585   0.369   9.870 -0.6709  0.6669  0.6099
  158SAPE   C3517696   4.570   0.196   9.727 -0.8494 -0.7278 -0.4934
  158SAPE   H5X17697   4.495   0.114   9.729 -1.1316 -0.5109  2.5377
  158SAPE   H5Y17698   4.667   0.154   9.693 -0.2235  0.3827 -0.1198
  158SAPE   C3617699   4.537   0.297   9.617 -0.0766 -0.0753 -0.2497
  158SAPE   H6X17700   4.609   0.381   9.617 -0.1587  0.0877 -2.9119
  158SAPE   H6Y17701   4.438   0.345   9.630  0.0165 -0.1288  0.7866
  158SAPE   C3717702   4.538   0.241   9.472 -0.2106  0.1482  0.1597
  158SAPE   H7X17703   4.478   0.148   9.479 -1.8154  1.0549 -0.8269
  158SAPE   H7Y17704   4.642   0.211   9.446 -0.2506 -0.0078  0.1786
  158SAPE   C3817705   4.480   0.332   9.370 -0.0111  0.0109 -0.2181
  158SAPE   H8X17706   4.536   0.428   9.369 -2.4565  1.5223 -0.3192
  158SAPE   H8Y17707   4.374   0.353   9.396  0.0698 -1.0575  1.1234
  158SAPE   C3917708   4.481   0.259   9.234 -0.5972  0.0893  0.0544
  158SAPE   H9X17709   4.424   0.329   9.169  1.7538  2.3358  0.2455
  158SAPE   H9Y17710   4.439   0.156   9.233 -0.1059 -0.1116 -1.3520
  158SAPE  C31017711   4.620   0.250   9.163 -0.3874 -0.3008 -0.0176
  158SAPE  H10X17712   4.677   0.167   9.209  3.0425  1.6184 -0.4683
  158SAPE  H10Y17713   4.687   0.338   9.177 -1.0113  0.3355 -0.9026
  158SAPE  C31117714   4.600   0.226   9.020 -0.0403  0.4375  0.2989
  158SAPE  H11X17715   4.562   0.325   8.987  2.8701  1.7278  0.4633
  158SAPE  H11Y17716   4.523   0.146   9.009  2.3241 -1.9757  0.2584
  158SAPE  C31217717   4.721   0.199   8.932  0.2147  0.4490  0.3713
  158SAPE  H12X17718   4.787   0.289   8.927  3.8142 -1.7038  3.5066
  158SAPE  H12Y17719   4.687   0.160   8.833  2.6528 -2.3971  0.5161
  158SAPE  C31317720   4.823   0.095   8.969  0.4218  0.2526 -0.2506
  158SAPE  H13X17721   4.757   0.014   9.008 -1.6872  0.4179 -3.1163
  158SAPE  H13Y17722   4.899   0.128   9.042  0.1360 -1.0677  0.6795
  158SAPE  C31417723   4.903   0.033   8.853  0.6339  0.3862 -0.5049
  158SAPE  H14X17724   5.006   0.007   8.885  1.5223  0.7065 -2.9504
  158SAPE  H14Y17725   4.920   0.116   8.781  0.4479 -0.0331 -1.0323
  158SAPE  C31517726   4.841  -0.100   8.785 -0.1422  0.3158 -0.7607
  158SAPE  H15X17727   4.733  -0.079   8.774  0.2262  2.3144 -0.9537
  158SAPE  H15Y17728   4.856  -0.182   8.859  0.9286  1.3197  0.1885
  158SAPE  C31617729   4.911  -0.140   8.658  0.4472 -0.3972 -0.9002
  158SAPE  H16X17730   4.885  -0.244   8.628  1.4756 -1.3253  1.1991
  158SAPE  H16Y17731   5.020  -0.133   8.681  0.0321  0.8979  0.8901
  158SAPE  C31717732   4.894  -0.043   8.547  0.5183 -1.1279 -0.1338
  158SAPE  H17X17733   4.961   0.041   8.573 -0.2438 -0.9674  1.4249
  158SAPE  H17Y17734   4.790  -0.005   8.553  1.2762  1.3943 -1.6197
  158SAPE  C31817735   4.913  -0.096   8.409 -0.3874  0.5713  0.2200
  158SAPE  H18X17736   4.881  -0.026   8.329  1.7651  1.7699  0.3172
  158SAPE  H18Y17737   4.864  -0.195   8.402 -0.5487  0.5904  0.9766
  158SAPE  H18Z17738   5.022  -0.114   8.396 -0.5828 -0.5815  0.1163
  159SAPE     N17739   2.713   4.467   6.652  0.6376  0.0732  0.9764
  159SAPE   HN117740   2.817   4.473   6.651  0.7599 -1.1413 -1.5675
  159SAPE   HN217741   2.691   4.366   6.650  2.7986 -0.4706 -1.7672
  159SAPE   HN317742   2.667   4.506   6.567 -0.9100  0.0329  1.7591
  159SAPE   C1217743   2.643   4.520   6.776  0.2109  0.7410  0.0769
  159SAPE  H12A17744   2.699   4.473   6.859  0.8593 -2.1218 -1.8004
  159SAPE  H12B17745   2.538   4.484   6.768 -0.0329  1.8236 -2.7471
  159SAPE   C1117746   2.642   4.672   6.781 -0.4084 -0.2347  0.3174
  159SAPE  H11A17747   2.749   4.703   6.783  0.0312 -0.8591 -4.0040
  159SAPE  H11B17748   2.587   4.701   6.873 -2.7878  1.5660 -1.5321
  159SAPE     P17749   2.600   4.875   6.611  0.7623  0.2203 -0.3973
  159SAPE   O1317750   2.746   4.908   6.616 -0.3064  0.3762  0.2257
  159SAPE   O1417751   2.536   4.886   6.484  0.2209  0.2369  0.0588
  159SAPE   O1217752   2.578   4.729   6.664 -0.9069 -0.5113 -0.1078
  159SAPE   O1117753   2.521   4.971   6.712 -0.3582  0.1227 -0.4056
  159SAPE    C117754   2.419   4.934   6.807 -0.6184 -0.1457  0.4690
  159SAPE    HA17755   2.320   4.979   6.785 -1.1134 -0.3812  2.0398
  159SAPE    HB17756   2.404   4.824   6.815  1.3867 -0.4563  0.3313
  159SAPE    C217757   2.450   4.981   6.954 -0.4539 -0.9705  0.0712
  159SAPE    HS17758   2.450   5.092   6.944 -1.4321 -0.8339  1.2771
  159SAPE   O2117759   2.573   4.927   6.995 -0.2423 -0.2002  0.0408
  159SAPE   C2117760   2.628   4.988   7.097  0.4142 -0.5398  0.2746
  159SAPE   O2217761   2.574   5.085   7.150  0.3414 -1.2213  0.6846
  159SAPE   C2217762   2.769   4.934   7.128  0.9983  0.6992 -0.1189
  159SAPE   H2R17763   2.745   4.834   7.171 -1.8461  1.1436 -0.4272
  159SAPE   H2S17764   2.826   4.915   7.034  1.1705 -0.6435  0.2355
  159SAPE    C317765   2.336   4.946   7.054  0.3700  0.3842  0.5916
  159SAPE    HX17766   2.364   4.957   7.160 -0.0632 -1.2050  0.8942
  159SAPE    HY17767   2.325   4.836   7.040  0.2158  0.5496 -0.8064
  159SAPE   O3117768   2.204   5.001   7.022 -0.2296 -0.3026 -0.4643
  159SAPE   C3117769   2.160   5.099   7.115 -0.7573 -0.7867  0.5764
  159SAPE   O3217770   2.235   5.155   7.194 -0.2310  0.3159  0.0041
  159SAPE   C3217771   2.020   5.131   7.081 -0.3169  0.1926 -0.1913
  159SAPE   H2X17772   2.014   5.116   6.971 -1.4572  1.4169 -0.3182
  159SAPE   H2Y17773   2.001   5.237   7.107 -2.5000 -0.1885 -0.1022
  159SAPE   C2317774   2.854   5.028   7.219 -0.2989 -0.6445  0.0288
  159SAPE   H3R17775   2.796   5.056   7.310 -0.0167 -0.4974  0.1648
  159SAPE   H3S17776   2.884   5.116   7.158  2.2959 -2.6307 -1.7802
  159SAPE   C2417777   2.986   4.968   7.275 -0.4954 -0.4475  0.6617
  159SAPE   H4R17778   3.039   5.048   7.331  0.0350  0.4307 -1.0164
  159SAPE   H4S17779   3.059   4.944   7.195 -0.4743  3.5341 -0.7659
  159SAPE   C2517780   2.960   4.855   7.370  0.6809 -0.4567 -0.4748
  159SAPE   H5R17781   2.931   4.757   7.329 -1.2535  0.1313 -0.6384
  159SAPE   C2617782   2.977   4.848   7.502  0.1887 -0.6727  0.4762
  159SAPE   H6R17783   2.954   4.752   7.550 -1.8586 -0.0935  0.7399
  159SAPE   C2717784   3.012   4.949   7.611  0.3000 -0.4419  0.6498
  159SAPE   H7R17785   2.948   4.932   7.700 -0.3070 -4.6283 -0.3871
  159SAPE   H7S17786   2.973   5.049   7.586  0.0879 -0.5050  0.7241
  159SAPE   C2817787   3.149   4.945   7.655 -0.0079 -0.2669 -0.0299
  159SAPE   H8R17788   3.227   4.977   7.584  1.4654 -2.5759  0.4173
  159SAPE   C2917789   3.192   4.911   7.779 -0.5839 -0.3087 -0.1049
  159SAPE   H9R17790   3.297   4.930   7.807 -0.7080 -0.6725  0.6528
  159SAPE  C21017791   3.110   4.866   7.901  0.0708 -0.0648 -0.0161
  159SAPE  H10R17792   3.004   4.841   7.878  1.0969 -3.9127 -1.3388
  159SAPE  H10S17793   3.107   4.942   7.982  1.9724 -0.2862  0.3093
  159SAPE  C21117794   3.169   4.738   7.952  0.4198  0.0239  0.3583
  159SAPE  H11R17795   3.138   4.643   7.904  1.6527 -1.4502  2.3221
  159SAPE  C21217796   3.247   4.730   8.060  0.2842 -0.2200  0.3292
  159SAPE  H12R17797   3.302   4.637   8.078  0.7777  0.0770  0.3626
  159SAPE  C21317798   3.271   4.849   8.148 -0.2091 -0.2582  0.3332
  159SAPE  H13R17799   3.177   4.896   8.182 -1.5086 -1.0815 -1.8463
  159SAPE  H13S17800   3.327   4.929   8.094  0.1123  0.4401  1.6653
  159SAPE  C21417801   3.364   4.818   8.269 -0.2560  0.2214 -0.3591
  159SAPE  H14R17802   3.471   4.798   8.250 -0.5081  0.1775 -1.7941
  159SAPE  C21517803   3.316   4.814   8.397  0.0471 -0.5201 -0.0351
  159SAPE  H15R17804   3.386   4.817   8.482 -0.2265 -1.2642  0.2208
  159SAPE  C21617805   3.170   4.827   8.448 -0.7655  0.2505  0.5409
  159SAPE  H16R17806   3.093   4.856   8.373 -2.3100 -2.3392  0.9936
  159SAPE  H16S17807   3.171   4.901   8.531  0.2866  0.9823 -0.1018
  159SAPE  C21717808   3.138   4.682   8.496  0.3845 -0.1170 -0.0037
  159SAPE  H17R17809   3.214   4.640   8.564  1.2141  0.6018 -0.4665
  159SAPE  H17S17810   3.131   4.617   8.406 -1.3136  0.5285 -0.3930
  159SAPE  C21817811   2.999   4.678   8.563 -0.3220  0.2651  0.0065
  159SAPE  H18R17812   2.972   4.571   8.550  2.6003 -0.5216 -0.3729
  159SAPE  H18S17813   2.928   4.745   8.510 -1.0270 -0.7604 -0.3803
  159SAPE  C21917814   2.991   4.717   8.709  0.3542  0.4793 -0.8248
  159SAPE  H19R17815   3.012   4.826   8.712  3.2193 -0.0031 -0.5166
  159SAPE  H19S17816   3.082   4.679   8.759  0.4585  0.3021 -1.1517
  159SAPE  C22017817   2.861   4.661   8.772  0.8082 -0.2336  0.3912
  159SAPE  H20R17818   2.868   4.550   8.768  0.7564 -0.2044 -0.6457
  159SAPE  H20S17819   2.772   4.693   8.714  1.8747  1.2010 -0.5173
  159SAPE  H20T17820   2.847   4.697   8.876 -1.1665  0.5037 -0.0867
  159SAPE   C3317821   1.930   5.043   7.163 -0.4353  0.0720  0.5394
  159SAPE   H3X17822   1.923   4.934   7.142  2.2238  0.0147 -0.4238
  159SAPE   H3Y17823   1.830   5.089   7.148  0.0642  0.6437 -1.3237
  159SAPE   C3417824   1.941   5.057   7.323 -0.3875 -0.0907 -0.1181
  159SAPE   H4X17825   1.962   5.165   7.342  1.6000 -0.6677  1.2360
  159SAPE   H4Y17826   2.026   5.003   7.369 -0.5884 -0.2974  0.0073
  159SAPE   C3517827   1.816   5.011   7.395  1.3721  0.4513 -0.4115
  159SAPE   H5X17828   1.794   4.904   7.374  1.6480  0.7183 -2.2468
  159SAPE   H5Y17829   1.741   5.070   7.338  0.4016 -0.0997  0.2494
  159SAPE   C3617830   1.808   5.040   7.549 -0.8332 -0.7278 -0.5157
  159SAPE   H6X17831   1.859   5.138   7.559 -0.7594 -0.8619  0.4916
  159SAPE   H6Y17832   1.874   4.966   7.599  1.4878  0.3518 -1.8239
  159SAPE   C3717833   1.673   5.033   7.609  0.6721  0.3170 -0.7963
  159SAPE   H7X17834   1.633   4.931   7.591 -1.9073  1.3017 -1.0058
  159SAPE   H7Y17835   1.598   5.096   7.557 -0.9295 -0.2141  0.7740
  159SAPE   C3817836   1.671   5.070   7.762 -0.2141 -1.1071  0.1763
  159SAPE   H8X17837   1.568   5.060   7.803  0.5173  0.1117  2.4787
  159SAPE   H8Y17838   1.700   5.177   7.768 -1.8663 -0.5014 -1.5464
  159SAPE   C3917839   1.762   4.991   7.856  0.4933  0.0713  0.5106
  159SAPE   H9X17840   1.867   4.994   7.821 -0.0672 -1.0834 -1.4519
  159SAPE   H9Y17841   1.722   4.888   7.867 -1.1290  0.8846  3.4417
  159SAPE  C31017842   1.751   5.055   7.992  0.8315  0.6667 -0.5110
  159SAPE  H10X17843   1.647   5.056   8.031  0.9003  0.1119 -0.2969
  159SAPE  H10Y17844   1.777   5.160   7.966  1.4400  0.6156 -0.1289
  159SAPE  C31117845   1.854   5.006   8.094  0.2980 -0.0487 -0.0011
  159SAPE  H11X17846   1.959   5.009   8.057  1.0626  1.2349  2.0920
  159SAPE  H11Y17847   1.839   4.898   8.118  0.9601 -0.4965 -1.5116
  159SAPE  C31217848   1.836   5.080   8.221  0.9293  0.1278 -0.8241
  159SAPE  H12X17849   1.733   5.058   8.256  1.1156 -0.2538 -0.5047
  159SAPE  H12Y17850   1.839   5.188   8.199 -0.0153 -0.2698 -3.2702
  159SAPE  C31317851   1.938   5.042   8.327 -0.3632  0.7140 -0.3200
  159SAPE  H13X17852   2.041   5.037   8.286  0.0876  0.3096  0.8028
  159SAPE  H13Y17853   1.929   4.938   8.364  0.2141  1.0724  0.8908
  159SAPE  C31417854   1.935   5.137   8.452  1.2274  0.1800 -0.1368
  159SAPE  H14X17855   1.836   5.128   8.502  1.3740 -1.6127 -0.0976
  159SAPE  H14Y17856   1.955   5.234   8.402 -1.0970  0.2585 -1.0716
  159SAPE  C31517857   2.048   5.100   8.547  0.6181 -0.2292  0.2335
  159SAPE  H15X17858   2.146   5.130   8.506  0.1501  0.7021 -0.2264
  159SAPE  H15Y17859   2.036   4.991   8.569  0.5596 -0.2406  0.1429
  159SAPE  C31617860   2.035   5.172   8.673 -0.5249  0.3366 -1.4732
  159SAPE  H16X17861   1.948   5.149   8.739  0.0895  1.4747 -0.2181
  159SAPE  H16Y17862   2.033   5.278   8.640  0.9362  0.3571 -1.5194
  159SAPE  C31717863   2.163   5.146   8.766  0.4384  0.4985  0.1783
  159SAPE  H17X17864   2.258   5.150   8.709 -0.0908 -0.2824 -0.7813
  159SAPE  H17Y17865   2.157   5.040   8.799  0.2933  0.4868  0.1115
  159SAPE  C31817866   2.178   5.227   8.897  0.2954  0.5558 -0.3153
  159SAPE  H18X17867   2.093   5.237   8.968  0.3378 -1.7809  0.1286
  159SAPE  H18Y17868   2.209   5.331   8.870 -0.6791  0.4991 -1.7363
  159SAPE  H18Z17869   2.265   5.185   8.953 -0.5301 -1.0678 -0.2059
  160SAPE     N17870   2.481   6.261   6.621  0.4760 -0.4406  0.1356
  160SAPE   HN117871   2.540   6.336   6.662 -1.5611  1.9101 -0.9903
  160SAPE   HN217872   2.437   6.202   6.695 -1.0000  1.7244  1.1118
  160SAPE   HN317873   2.544   6.201   6.564 -1.5277 -1.0626 -1.5457
  160SAPE   C1217874   2.371   6.335   6.555  0.2609  0.3413  0.0903
  160SAPE  H12A17875   2.311   6.252   6.512 -1.6914  1.1819  1.0455
  160SAPE  H12B17876   2.405   6.394   6.468  1.2417  1.5912  1.2755
  160SAPE   C1117877   2.280   6.411   6.653  0.1870 -0.2849  0.1589
  160SAPE  H11A17878   2.244   6.344   6.733 -1.0750  2.3150  1.9233
  160SAPE  H11B17879   2.193   6.454   6.597  0.4206 -0.0020  0.0113
  160SAPE     P17880   2.361   6.648   6.668  0.1687  0.1189 -0.4705
  160SAPE   O1317881   2.451   6.739   6.745 -0.2837  0.7894 -0.0158
  160SAPE   O1417882   2.391   6.647   6.521  0.3713 -0.3580 -0.4738
  160SAPE   O1217883   2.363   6.500   6.720 -0.5380 -0.4335  0.3723
  160SAPE   O1117884   2.213   6.696   6.703  0.3098  0.0596  0.1721
  160SAPE    C117885   2.145   6.656   6.821  0.3510  0.3160  0.1670
  160SAPE    HA17886   2.044   6.702   6.820  0.8672  1.4766  0.2130
  160SAPE    HB17887   2.133   6.546   6.823  2.7367 -0.0058 -0.3363
  160SAPE    C217888   2.204   6.712   6.952 -0.0503 -1.1926  0.3954
  160SAPE    HS17889   2.309   6.678   6.965  0.3676  0.3336  1.3609
  160SAPE   O2117890   2.116   6.682   7.060  0.0550  0.6285 -0.3100
  160SAPE   C2117891   2.107   6.557   7.093 -0.6770 -0.1052 -0.2743
  160SAPE   O2217892   2.166   6.470   7.032  0.1576  0.5979  0.4895
  160SAPE   C2217893   2.019   6.542   7.223 -0.5781 -0.6119 -0.0260
  160SAPE   H2R17894   1.951   6.630   7.231  0.1785  0.1805 -1.7515
  160SAPE   H2S17895   1.960   6.451   7.199  0.9811 -1.4083 -1.0557
  160SAPE    C317896   2.209   6.866   6.943  0.3272  0.3059 -0.1459
  160SAPE    HX17897   2.100   6.880   6.923  0.3820 -1.6526 -2.1806
  160SAPE    HY17898   2.272   6.899   6.859  0.0805  0.3076 -0.3311
  160SAPE   O3117899   2.250   6.921   7.068 -0.0350 -0.3577 -0.0187
  160SAPE   C3117900   2.206   7.048   7.083 -0.0853  0.6327 -0.8574
  160SAPE   O3217901   2.134   7.101   7.002  0.1493 -0.1322 -0.2651
  160SAPE   C3217902   2.253   7.110   7.216  0.3241  0.5291 -0.3188
  160SAPE   H2X17903   2.313   7.202   7.198  1.8735 -0.1012  1.2675
  160SAPE   H2Y17904   2.324   7.045   7.271 -0.3254  0.9823  1.1048
  160SAPE   C2317905   2.109   6.527   7.351  0.1609 -0.0266  0.3151
  160SAPE   H3R17906   2.200   6.472   7.319  0.2718  1.6092 -2.4870
  160SAPE   H3S17907   2.055   6.463   7.425 -1.4498  0.1929 -0.6239
  160SAPE   C2417908   2.161   6.661   7.404 -0.1713 -0.0352 -0.3399
  160SAPE   H4R17909   2.200   6.714   7.314  0.4575  0.5702  0.2698
  160SAPE   H4S17910   2.249   6.635   7.467  0.4289  0.2790 -1.0179
  160SAPE   C2517911   2.058   6.741   7.474  0.1383  0.0402  0.5913
  160SAPE   H5R17912   1.963   6.745   7.419  0.1128  0.2894  0.6501
  160SAPE   C2617913   2.066   6.809   7.591  0.1034  0.6958 -0.6489
  160SAPE   H6R17914   1.980   6.866   7.629  1.2388  0.9584  1.6454
  160SAPE   C2717915   2.188   6.829   7.683  0.4935 -0.0993 -0.6306
  160SAPE   H7R17916   2.205   6.938   7.699  0.2518  0.2805 -2.6939
  160SAPE   H7S17917   2.282   6.784   7.643  0.0338 -1.7154  0.0205
  160SAPE   C2817918   2.148   6.757   7.816 -0.5150 -0.1959  0.4953
  160SAPE   H8R17919   2.117   6.652   7.803 -2.0173  0.1616  1.0556
  160SAPE   C2917920   2.144   6.807   7.943 -0.6231 -0.1828 -0.3103
  160SAPE   H9R17921   2.095   6.740   8.015 -0.7117  0.7347  0.4934
  160SAPE  C21017922   2.188   6.949   7.979  0.1552 -0.1565 -0.1784
  160SAPE  H10R17923   2.138   7.010   7.901  0.1225 -1.4111 -1.1785
  160SAPE  H10S17924   2.299   6.948   7.965  0.0313 -1.3713 -1.2901
  160SAPE  C21117925   2.145   6.992   8.117  0.4459  0.6138  0.0666
  160SAPE  H11R17926   2.212   6.949   8.193  0.5064  1.2552  0.3817
  160SAPE  C21217927   2.061   7.085   8.158  0.4888  0.4293 -0.6500
  160SAPE  H12R17928   2.038   7.096   8.265 -0.8512  2.2576 -1.0751
  160SAPE  C21317929   1.982   7.174   8.063 -0.4902 -0.4296 -0.6138
  160SAPE  H13R17930   1.873   7.157   8.076 -1.0785 -0.7888 -4.6959
  160SAPE  H13S17931   1.995   7.129   7.962  2.4599 -0.8597 -0.1368
  160SAPE  C21417932   2.022   7.319   8.058  0.5953  0.0761  1.0729
  160SAPE  H14R17933   2.062   7.348   7.960 -2.2530 -0.9441 -0.4864
  160SAPE  C21517934   1.998   7.410   8.154  0.1012  0.1657 -0.1832
  160SAPE  H15R17935   2.027   7.516   8.145  0.5164  0.2135  1.4009
  160SAPE  C21617936   1.914   7.383   8.279  0.1788  0.1190 -0.0388
  160SAPE  H16R17937   1.903   7.276   8.307  1.1769  0.0219  0.0091
  160SAPE  H16S17938   1.807   7.413   8.267 -0.5740 -2.2972  0.0218
  160SAPE  C21717939   1.961   7.462   8.403  0.1393  0.9047 -0.0490
  160SAPE  H17R17940   1.955   7.569   8.375  1.7360  1.2236  0.7252
  160SAPE  H17S17941   2.069   7.437   8.403 -0.2110 -1.3969  3.8263
  160SAPE  C21817942   1.874   7.419   8.519 -0.0667  0.3837  0.1214
  160SAPE  H18R17943   1.888   7.312   8.545 -0.0749  0.9367  2.5474
  160SAPE  H18S17944   1.767   7.432   8.495 -0.4878 -1.1773  1.0259
  160SAPE  C21917945   1.913   7.500   8.639  0.0251 -0.1360  0.0816
  160SAPE  H19R17946   1.932   7.601   8.598 -2.4587 -0.8475 -3.1627
  160SAPE  H19S17947   2.004   7.455   8.686  1.7057  1.5976 -1.3731
  160SAPE  C22017948   1.801   7.492   8.746  0.8059 -0.7322  0.4248
  160SAPE  H20R17949   1.774   7.387   8.770  2.7770 -0.9950  1.7554
  160SAPE  H20S17950   1.716   7.561   8.725 -0.0945 -2.1761 -0.8635
  160SAPE  H20T17951   1.837   7.524   8.847 -0.2615 -2.0545  1.2644
  160SAPE   C3317952   2.128   7.141   7.304 -0.1860 -1.0312  0.1416
  160SAPE   H3X17953   2.085   7.043   7.336  2.2297 -2.7556 -1.5394
  160SAPE   H3Y17954   2.058   7.193   7.236 -0.0725 -0.0986  0.7254
  160SAPE   C3417955   2.154   7.229   7.427 -0.3512 -0.2838 -0.4051
  160SAPE   H4X17956   2.201   7.324   7.396 -0.1609 -0.1430  0.2918
  160SAPE   H4Y17957   2.225   7.181   7.498  0.2100  1.0002 -0.0671
  160SAPE   C3517958   2.022   7.261   7.494 -0.5317 -0.5693 -0.1423
  160SAPE   H5X17959   1.971   7.164   7.511 -1.8389  0.2899  1.1323
  160SAPE   H5Y17960   1.959   7.332   7.436 -1.3191 -0.2419  1.0704
  160SAPE   C3617961   2.035   7.312   7.637  0.0685 -0.6243  0.0450
  160SAPE   H6X17962   2.112   7.248   7.686 -1.0029 -2.7113 -0.8807
  160SAPE   H6Y17963   1.938   7.300   7.689 -0.2269  2.2841  0.3137
  160SAPE   C3717964   2.066   7.463   7.626 -0.2102 -1.1906  0.0942
  160SAPE   H7X17965   1.976   7.507   7.576  1.8872  1.1446 -1.8923
  160SAPE   H7Y17966   2.143   7.478   7.547 -0.0012  0.0145  0.4975
  160SAPE   C3817967   2.099   7.528   7.760 -0.5859 -0.4725 -0.3446
  160SAPE   H8X17968   2.187   7.475   7.803  1.2024  2.3372 -0.2888
  160SAPE   H8Y17969   2.010   7.511   7.825 -0.9548  1.5789 -0.2493
  160SAPE   C3917970   2.134   7.680   7.748 -0.8778  0.1870 -0.3315
  160SAPE   H9X17971   2.035   7.724   7.726 -1.4304 -0.0142  1.6190
  160SAPE   H9Y17972   2.182   7.712   7.653 -0.9043 -0.9064 -0.7284
  160SAPE  C31017973   2.203   7.743   7.872  0.7037 -0.9838  0.0682
  160SAPE  H10X17974   2.243   7.843   7.844  1.7315 -1.2541  0.5397
  160SAPE  H10Y17975   2.289   7.680   7.903  0.8952  0.2950  2.4067
  160SAPE  C31117976   2.118   7.767   8.000  0.1434  0.3948 -0.2231
  160SAPE  H11X17977   2.080   7.665   8.022  1.2685  0.6833  3.9273
  160SAPE  H11Y17978   2.030   7.831   7.981 -1.3190 -0.9814  1.5425
  160SAPE  C31217979   2.192   7.819   8.119 -1.2271  0.0733  0.4152
  160SAPE  H12X17980   2.120   7.846   8.199 -0.1523 -1.4055  1.9495
  160SAPE  H12Y17981   2.253   7.908   8.092  0.6210 -1.0672  0.6145
  160SAPE  C31317982   2.285   7.710   8.173 -0.1292  0.1516 -0.2482
  160SAPE  H13X17983   2.368   7.694   8.100  0.2523  0.4974  0.1001
  160SAPE  H13Y17984   2.234   7.612   8.169  1.1925 -0.5272 -2.5454
  160SAPE  C31417985   2.342   7.744   8.312  0.1597  0.1116  0.4176
  160SAPE  H14X17986   2.381   7.848   8.322  0.1711  0.0788  0.7336
  160SAPE  H14Y17987   2.430   7.676   8.320  0.1422  0.2976  2.7340
  160SAPE  C31517988   2.239   7.719   8.427 -0.5841 -0.4266 -0.6350
  160SAPE  H15X17989   2.209   7.613   8.440 -1.7272 -0.2072 -1.3595
  160SAPE  H15Y17990   2.146   7.777   8.408 -2.0583 -2.2120  0.7359
  160SAPE  C31617991   2.301   7.762   8.569  0.1920  0.0756  0.1761
  160SAPE  H16X17992   2.331   7.869   8.564  1.2467 -0.2450 -1.0041
  160SAPE  H16Y17993   2.394   7.701   8.569 -0.6905 -1.3208 -0.6849
  160SAPE  C31717994   2.205   7.740   8.687  0.2582  0.9150 -0.1047
  160SAPE  H17X17995   2.254   7.736   8.786 -2.0950 -0.2470  1.0956
  160SAPE  H17Y17996   2.162   7.639   8.672  1.8209  0.4426 -1.7565
  160SAPE  C31817997   2.094   7.848   8.702  0.2363  0.2498 -0.2686
  160SAPE  H18X17998   2.153   7.935   8.735 -0.2567  0.4961 -0.0315
  160SAPE  H18Y17999   2.024   7.820   8.784 -1.3822  2.0219 -0.9746
  160SAPE  H18Z18000   2.043   7.866   8.605  1.7733  1.5803 -0.8598
  161SAPE     N18001   3.260   4.510   6.291 -0.2842  0.0396 -0.3761
  161SAPE   HN118002   3.270   4.543   6.389  1.8697  0.7102 -0.7761
  161SAPE   HN218003   3.327   4.431   6.282  0.5428  0.4593  1.5421
  161SAPE   HN318004   3.292   4.577   6.218 -0.8944  1.0909  0.3004
  161SAPE   C1218005   3.121   4.456   6.270 -0.4150  0.0165  0.0366
  161SAPE  H12A18006   3.113   4.396   6.176  0.2499 -2.3765  1.4492
  161SAPE  H12B18007   3.051   4.542   6.265  0.6281  0.8294 -1.7731
  161SAPE   C1118008   3.080   4.377   6.396  0.0034  0.1704 -0.3296
  161SAPE  H11A18009   2.977   4.337   6.384 -0.3896  0.6115  1.2371
  161SAPE  H11B18010   3.094   4.446   6.482 -1.4155  0.6385 -0.4498
  161SAPE     P18011   3.140   4.164   6.529  0.0886  0.3336  0.2397
  161SAPE   O1318012   3.004   4.103   6.512 -0.5045 -0.5885 -0.6279
  161SAPE   O1418013   3.247   4.066   6.546 -0.0615 -0.2681 -0.2727
  161SAPE   O1218014   3.164   4.261   6.403 -0.0017  0.0320  0.2429
  161SAPE   O1118015   3.139   4.262   6.651  0.0316  0.1130  0.6708
  161SAPE    C118016   3.261   4.324   6.694  0.9364  0.0430  0.5244
  161SAPE    HA18017   3.332   4.357   6.615  0.7124 -1.9233 -0.5796
  161SAPE    HB18018   3.237   4.415   6.752  0.6553  0.1340  0.2620
  161SAPE    C218019   3.335   4.238   6.797  0.2228  0.7134 -0.5921
  161SAPE    HS18020   3.373   4.145   6.749  0.7840  0.9646 -0.6373
  161SAPE   O2118021   3.243   4.219   6.908  0.1001  0.6494 -0.4209
  161SAPE   C2118022   3.262   4.103   6.973  0.0142  0.3884  0.4894
  161SAPE   O2218023   3.342   4.014   6.943  0.2801 -0.4815 -0.1954
  161SAPE   C2218024   3.181   4.096   7.104  0.3606 -0.0621 -0.2050
  161SAPE   H2R18025   3.236   4.153   7.182 -0.0708  3.8975 -2.5174
  161SAPE   H2S18026   3.092   4.161   7.094  0.6646  0.1546 -1.7765
  161SAPE    C318027   3.456   4.311   6.846  0.3356 -0.6308  0.3964
  161SAPE    HX18028   3.410   4.407   6.877 -2.3612 -1.7367  0.0432
  161SAPE    HY18029   3.524   4.332   6.761  1.1617  1.9888  1.5814
  161SAPE   O3118030   3.526   4.248   6.957 -0.5572  1.0236 -0.3803
  161SAPE   C3118031   3.598   4.329   7.037 -0.0499 -0.7261 -0.0750
  161SAPE   O3218032   3.615   4.450   7.017  0.3006 -0.6011  0.2866
  161SAPE   C3218033   3.658   4.248   7.150  0.7106 -0.2112  0.1714
  161SAPE   H2X18034   3.687   4.148   7.113 -1.0684 -0.6604 -0.0696
  161SAPE   H2Y18035   3.584   4.228   7.230  0.1911  0.3744 -0.1448
  161SAPE   C2318036   3.142   3.957   7.159  0.0850 -0.2781  0.4293
  161SAPE   H3R18037   3.230   3.890   7.156  1.3043  1.2541  0.5220
  161SAPE   H3S18038   3.067   3.914   7.090 -0.0000 -0.6889  0.7762
  161SAPE   C2418039   3.087   3.955   7.306  0.0335 -0.2047 -0.2928
  161SAPE   H4R18040   3.153   4.020   7.367  0.0581 -0.3316 -0.1820
  161SAPE   H4S18041   3.097   3.858   7.359 -0.8882  0.3162  0.8852
  161SAPE   C2518042   2.948   4.006   7.323  0.5586 -0.1046 -0.9307
  161SAPE   H5R18043   2.888   4.004   7.231 -1.4505 -2.4031  0.3049
  161SAPE   C2618044   2.888   4.031   7.444 -0.5139 -0.7223  0.1658
  161SAPE   H6R18045   2.782   4.056   7.461 -0.0486  1.1280  0.6268
  161SAPE   C2718046   2.944   4.019   7.580  0.7422 -0.0958  0.0888
  161SAPE   H7R18047   2.876   4.082   7.641 -1.6722 -1.4096 -1.1334
  161SAPE   H7S18048   3.040   4.074   7.596  0.8708 -0.3764  0.2906
  161SAPE   C2818049   2.942   3.880   7.639  0.0627 -0.0541  0.5942
  161SAPE   H8R18050   2.937   3.802   7.562  1.1948  1.1271 -0.7337
  161SAPE   C2918051   2.989   3.855   7.764  0.8037 -0.2805  0.3053
  161SAPE   H9R18052   2.967   3.753   7.800  1.0393 -0.9934 -1.4575
  161SAPE  C21018053   3.036   3.966   7.860 -0.2002 -0.4971 -0.0481
  161SAPE  H10R18054   3.082   4.056   7.815  1.1332  0.3582  2.7991
  161SAPE  H10S18055   3.117   3.913   7.915 -1.0270 -1.9090 -0.1281
  161SAPE  C21118056   2.922   4.016   7.948  0.6016  0.1975 -0.2450
  161SAPE  H11R18057   2.822   3.993   7.908  0.9259 -0.7088 -0.5876
  161SAPE  C21218058   2.928   4.074   8.065  0.0420 -0.0916  0.4900
  161SAPE  H12R18059   2.831   4.107   8.105 -0.5437 -0.7573 -0.3534
  161SAPE  C21318060   3.046   4.104   8.153 -0.5685  0.5768  0.4107
  161SAPE  H13R18061   3.142   4.068   8.112 -0.8783 -2.2164  1.9139
  161SAPE  H13S18062   3.058   4.058   8.253  1.2695 -0.1314 -0.1016
  161SAPE  C21418063   3.036   4.253   8.167  0.0040 -0.5690 -0.4351
  161SAPE  H14R18064   2.958   4.293   8.234 -0.3478  0.0827 -1.2274
  161SAPE  C21518065   3.119   4.337   8.100  0.4207 -0.1195 -0.1900
  161SAPE  H15R18066   3.112   4.446   8.099 -1.2312 -0.1990  0.2540
  161SAPE  C21618067   3.227   4.291   8.003 -0.3045 -0.3299  0.6477
  161SAPE  H16R18068   3.275   4.192   8.015 -0.8912 -0.9853 -1.8392
  161SAPE  H16S18069   3.318   4.349   8.025 -0.6502  1.2551 -1.7594
  161SAPE  C21718070   3.199   4.326   7.856  0.5829 -0.0065  0.6240
  161SAPE  H17R18071   3.187   4.435   7.837  0.4430 -0.1674 -0.2306
  161SAPE  H17S18072   3.106   4.273   7.828  1.6259 -1.1767 -0.7335
  161SAPE  C21818073   3.297   4.270   7.762  0.0605  0.0353  0.4144
  161SAPE  H18R18074   3.312   4.162   7.784 -0.5414 -0.0893  0.2264
  161SAPE  H18S18075   3.396   4.318   7.774 -0.1066  0.0222  2.0756
  161SAPE  C21918076   3.256   4.291   7.616  0.9999  0.1025  0.4650
  161SAPE  H19R18077   3.268   4.398   7.586 -2.9543  0.2105 -1.2558
  161SAPE  H19S18078   3.148   4.272   7.599  1.5152 -2.5336 -0.2359
  161SAPE  C22018079   3.349   4.207   7.528  0.1730 -1.1090 -0.4305
  161SAPE  H20R18080   3.455   4.239   7.544 -0.0762 -0.3875 -0.1782
  161SAPE  H20S18081   3.324   4.224   7.421  1.6842 -0.2217 -0.6866
  161SAPE  H20T18082   3.333   4.100   7.553 -1.3129 -1.2270 -1.7662
  161SAPE   C3318083   3.782   4.327   7.203 -1.1243  0.3868 -0.1565
  161SAPE   H3X18084   3.746   4.423   7.246 -0.9664 -0.2443  1.4462
  161SAPE   H3Y18085   3.857   4.355   7.126 -0.6442 -1.3582 -0.3617
  161SAPE   C3418086   3.863   4.249   7.303  0.0805  0.5947  0.6224
  161SAPE   H4X18087   3.968   4.282   7.295  0.3197 -0.3878 -0.3804
  161SAPE   H4Y18088   3.872   4.140   7.284 -0.7812  0.5500  0.4280
  161SAPE   C3518089   3.805   4.274   7.444  0.8270 -0.0287 -0.3269
  161SAPE   H5X18090   3.698   4.247   7.453  0.8522 -0.4293 -1.1485
  161SAPE   H5Y18091   3.810   4.383   7.460 -1.2090  0.3489 -1.9860
  161SAPE   C3618092   3.873   4.193   7.556 -0.4274  0.7106 -0.1179
  161SAPE   H6X18093   3.973   4.163   7.516 -0.5858  0.6058 -0.4435
  161SAPE   H6Y18094   3.824   4.093   7.559  2.8090 -1.0805 -1.3171
  161SAPE   C3718095   3.878   4.254   7.695  0.0377 -0.2547 -0.0680
  161SAPE   H7X18096   3.783   4.304   7.724  0.3986  1.3162 -1.4255
  161SAPE   H7Y18097   3.953   4.336   7.698  0.7696 -0.8663 -0.8585
  161SAPE   C3818098   3.910   4.152   7.799  1.1182  0.2271  0.1938
  161SAPE   H8X18099   4.014   4.117   7.783  1.1038  0.2004  0.1560
  161SAPE   H8Y18100   3.845   4.064   7.781 -0.1599  0.8788  1.4044
  161SAPE   C3918101   3.889   4.193   7.946 -0.0072  0.1029 -0.1097
  161SAPE   H9X18102   3.795   4.251   7.960  0.1481  0.3754 -0.1921
  161SAPE   H9Y18103   3.975   4.260   7.968  0.3025 -0.5588  0.7272
  161SAPE  C31018104   3.900   4.075   8.045 -0.0672  0.3934 -0.4682
  161SAPE  H10X18105   3.989   4.022   8.006 -1.7612 -3.6194  0.6010
  161SAPE  H10Y18106   3.814   4.005   8.036 -1.0046  1.0262  2.4033
  161SAPE  C31118107   3.904   4.127   8.193 -0.2885  0.2177  0.0649
  161SAPE  H11X18108   3.801   4.124   8.237 -0.0351  0.6570  0.7070
  161SAPE  H11Y18109   3.931   4.234   8.198 -1.8776  0.7397 -1.6060
  161SAPE  C31218110   4.002   4.062   8.295 -0.3828  0.1063 -0.1084
  161SAPE  H12X18111   3.992   3.951   8.297 -2.3425  0.2400 -0.2529
  161SAPE  H12Y18112   3.975   4.100   8.396 -2.2144 -0.9452 -0.1433
  161SAPE  C31318113   4.151   4.100   8.266  0.1860 -0.3433  0.4948
  161SAPE  H13X18114   4.150   4.211   8.271 -1.4540 -0.3763  1.2921
  161SAPE  H13Y18115   4.185   4.060   8.168  0.2607  2.0746 -0.5259
  161SAPE  C31418116   4.248   4.044   8.373 -0.2761 -0.0463 -0.1693
  161SAPE  H14X18117   4.179   4.019   8.456  0.1827  2.0367  0.8841
  161SAPE  H14Y18118   4.309   4.133   8.397  0.1063  0.1106 -1.5886
  161SAPE  C31518119   4.328   3.931   8.316 -0.8272  0.1111  0.4803
  161SAPE  H15X18120   4.391   3.973   8.235 -0.7230  0.6424  0.8367
  161SAPE  H15Y18121   4.267   3.859   8.257  1.6233 -0.9871 -0.8456
  161SAPE  C31618122   4.416   3.857   8.414  0.5047  0.2157  0.0037
  161SAPE  H16X18123   4.482   3.929   8.467 -0.2052  0.5547  0.4512
  161SAPE  H16Y18124   4.491   3.800   8.355  0.1578 -0.7339  0.4552
  161SAPE  C31718125   4.341   3.777   8.523  0.1961  0.2620 -0.0024
  161SAPE  H17X18126   4.263   3.717   8.471 -1.1732  0.1865  2.0300
  161SAPE  H17Y18127   4.275   3.845   8.580  2.2234  1.5057  0.9734
  161SAPE  C31818128   4.437   3.689   8.608 -0.5980  0.2434  0.0631
  161SAPE  H18X18129   4.471   3.746   8.697 -0.4042  0.1111  0.0725
  161SAPE  H18Y18130   4.521   3.659   8.542  0.9253  0.9776  1.5751
  161SAPE  H18Z18131   4.379   3.604   8.649 -1.8981 -0.0005 -2.1050
  162SAPE     N18132   3.612   6.528   5.777  0.0845 -0.5502 -0.7698
  162SAPE   HN118133   3.606   6.567   5.681  1.3688 -0.2733 -0.7529
  162SAPE   HN218134   3.629   6.605   5.844 -1.0471 -0.0320 -1.0585
  162SAPE   HN318135   3.703   6.480   5.791  1.1060  0.9858 -1.8285
  162SAPE   C1218136   3.495   6.437   5.818  0.2184  0.7960  0.3459
  162SAPE  H12A18137   3.477   6.360   5.740 -2.2455  0.2896  1.3368
  162SAPE  H12B18138   3.405   6.502   5.818 -2.5294 -2.6446 -1.2201
  162SAPE   C1118139   3.514   6.358   5.953 -0.1175 -0.0507 -0.1142
  162SAPE  H11A18140   3.609   6.301   5.948  0.7866  1.2708  1.0041
  162SAPE  H11B18141   3.430   6.286   5.965 -0.5746  0.3415 -0.9285
  162SAPE     P18142   3.533   6.409   6.210  0.0252  0.4000 -0.2631
  162SAPE   O1318143   3.397   6.393   6.273 -0.2345  0.2241 -0.1949
  162SAPE   O1418144   3.626   6.294   6.201 -0.4010  0.1206 -0.0636
  162SAPE   O1218145   3.510   6.457   6.062 -0.2766  0.1426 -0.0540
  162SAPE   O1118146   3.606   6.534   6.274  0.3375 -0.2362  0.3184
  162SAPE    C118147   3.529   6.650   6.313  0.1391 -0.4038  0.1187
  162SAPE    HA18148   3.533   6.719   6.227  1.2881 -0.5479  0.0335
  162SAPE    HB18149   3.423   6.625   6.333 -0.6021  1.9639 -0.5186
  162SAPE    C218150   3.605   6.726   6.429 -0.0874  0.1690 -0.2978
  162SAPE    HS18151   3.707   6.747   6.393  0.2151 -0.8984 -0.0958
  162SAPE   O2118152   3.612   6.646   6.551  0.2938  0.3642 -0.3544
  162SAPE   C2118153   3.717   6.654   6.629 -0.7483 -0.6122 -0.1992
  162SAPE   O2218154   3.802   6.743   6.617 -0.1441  0.3427  0.0333
  162SAPE   C2218155   3.707   6.541   6.731  0.2881  0.0869 -0.0595
  162SAPE   H2R18156   3.600   6.521   6.754 -0.3483  1.5842 -1.4697
  162SAPE   H2S18157   3.761   6.452   6.692 -0.0682 -1.0164  1.8463
  162SAPE    C318158   3.539   6.868   6.457 -0.0511  0.3171 -0.4203
  162SAPE    HX18159   3.533   6.927   6.363  0.1434  0.4114 -0.3737
  162SAPE    HY18160   3.612   6.929   6.515  1.0776 -0.7647 -0.6476
  162SAPE   O3118161   3.414   6.851   6.519  0.1644  0.6098  0.2976
  162SAPE   C3118162   3.403   6.889   6.641  0.5055  0.0334 -0.2377
  162SAPE   O3218163   3.489   6.937   6.712  0.2328 -0.0645  0.0313
  162SAPE   C3218164   3.271   6.845   6.694 -0.1432 -0.3348  0.4978
  162SAPE   H2X18165   3.254   6.740   6.661  1.7498 -0.8833  1.1472
  162SAPE   H2Y18166   3.196   6.895   6.629  0.9017 -0.6096 -0.9374
  162SAPE   C2318167   3.784   6.578   6.864 -0.2595  0.3501 -0.7990
  162SAPE   H3R18168   3.886   6.605   6.829  0.5906 -1.2341  0.3279
  162SAPE   H3S18169   3.790   6.490   6.932  1.9620 -1.1340 -2.7314
  162SAPE   C2418170   3.727   6.704   6.932  0.0406 -0.2184 -1.0563
  162SAPE   H4R18171   3.616   6.699   6.937  0.0561  0.3031  0.7369
  162SAPE   H4S18172   3.751   6.791   6.867 -3.1767  0.3525 -1.6489
  162SAPE   C2518173   3.793   6.721   7.069  0.0947  0.0273  0.6755
  162SAPE   H5R18174   3.901   6.697   7.064  0.2411  0.8711 -1.0018
  162SAPE   C2618175   3.737   6.760   7.186 -0.6644 -0.0772  0.6992
  162SAPE   H6R18176   3.800   6.763   7.276  0.0250 -0.7178  0.2521
  162SAPE   C2718177   3.588   6.794   7.193 -0.3359 -0.4028  0.4165
  162SAPE   H7R18178   3.552   6.766   7.294  4.8767  2.0766  3.3327
  162SAPE   H7S18179   3.520   6.736   7.126  1.2497 -0.2588 -1.4228
  162SAPE   C2818180   3.565   6.941   7.173 -0.7384 -0.1755 -0.5998
  162SAPE   H8R18181   3.594   6.982   7.075  0.0045  0.8632  0.0296
  162SAPE   C2918182   3.535   7.034   7.269 -0.2005  0.0095  0.1057
  162SAPE   H9R18183   3.553   7.138   7.235 -0.3774 -0.5359 -1.7669
  162SAPE  C21018184   3.514   7.008   7.418  0.0322 -0.0070  0.1595
  162SAPE  H10R18185   3.458   6.913   7.429  0.9922 -0.9561 -2.4490
  162SAPE  H10S18186   3.452   7.092   7.456  0.4433  0.5042 -0.2832
  162SAPE  C21118187   3.639   6.999   7.498  0.1651  0.0643  0.0593
  162SAPE  H11R18188   3.734   7.007   7.443  1.1553  2.5248  1.9194
  162SAPE  C21218189   3.640   6.969   7.630  0.4388 -0.8090  0.2020
  162SAPE  H12R18190   3.740   6.976   7.675  0.0958  2.8981  0.7125
  162SAPE  C21318191   3.523   6.939   7.723  0.9006  1.3990 -0.8321
  162SAPE  H13R18192   3.547   6.850   7.785  0.6843  0.1574 -2.4658
  162SAPE  H13S18193   3.427   6.912   7.674 -0.7760  0.6007  2.5828
  162SAPE  C21418194   3.498   7.063   7.809  0.2432 -0.1717 -0.0426
  162SAPE  H14R18195   3.420   7.128   7.764  0.4618  0.2466  0.1771
  162SAPE  C21518196   3.552   7.095   7.927  0.2151  0.3534 -0.7599
  162SAPE  H15R18197   3.507   7.184   7.974  0.4338 -0.6460  1.4569
  162SAPE  C21618198   3.646   7.013   8.014  0.0258 -0.1077 -0.3949
  162SAPE  H16R18199   3.748   7.035   7.974  0.2233 -1.6459 -0.7925
  162SAPE  H16S18200   3.622   6.905   8.010  1.1396 -0.3648 -0.6017
  162SAPE  C21718201   3.637   7.055   8.163 -0.1143 -0.1418 -0.2786
  162SAPE  H17R18202   3.540   7.041   8.214  0.6555  0.5432  1.4644
  162SAPE  H17S18203   3.648   7.165   8.166 -0.2506 -0.1042 -0.9317
  162SAPE  C21818204   3.759   6.995   8.235  0.0159 -0.3065  0.0609
  162SAPE  H18R18205   3.853   7.031   8.188  0.2644  0.2096  0.9353
  162SAPE  H18S18206   3.758   6.884   8.236 -3.2446 -0.3646  0.8941
  162SAPE  C21918207   3.766   7.034   8.384  0.7027 -0.0067 -0.4567
  162SAPE  H19R18208   3.665   7.039   8.430  0.3102 -1.0751 -1.1482
  162SAPE  H19S18209   3.801   7.139   8.384 -2.9313  1.4464 -3.8395
  162SAPE  C22018210   3.859   6.948   8.481 -0.1177  0.4416 -0.2494
  162SAPE  H20R18211   3.843   6.841   8.456 -1.9062  1.1368 -2.4162
  162SAPE  H20S18212   3.820   6.969   8.583 -0.6071  2.6867 -0.8449
  162SAPE  H20T18213   3.968   6.970   8.479  0.3918 -1.9230 -0.9097
  162SAPE   C3318214   3.250   6.869   6.845 -0.5467  0.2666  0.0656
  162SAPE   H3X18215   3.197   6.965   6.860  0.3050  0.9434 -1.0581
  162SAPE   H3Y18216   3.343   6.850   6.903  1.1764  2.0682 -1.9136
  162SAPE   C3418217   3.152   6.763   6.899 -0.1506  0.7435  0.4488
  162SAPE   H4X18218   3.190   6.662   6.871 -3.4494 -0.6845  0.7060
  162SAPE   H4Y18219   3.053   6.770   6.849 -0.2981  1.3168  0.8170
  162SAPE   C3518220   3.135   6.780   7.048 -0.0161 -0.0245  0.5860
  162SAPE   H5X18221   3.218   6.731   7.104 -0.7525 -1.6372  0.3066
  162SAPE   H5Y18222   3.041   6.724   7.070 -0.7396  0.2033 -1.6982
  162SAPE   C3618223   3.124   6.921   7.106 -0.8988  0.0546  0.2977
  162SAPE   H6X18224   3.044   6.973   7.049  0.1523  1.8101  0.3325
  162SAPE   H6Y18225   3.213   6.981   7.075 -1.7567  1.8371  1.1121
  162SAPE   C3718226   3.109   6.914   7.264  0.1469  0.1437  0.4466
  162SAPE   H7X18227   3.211   6.882   7.294  1.6297  1.7940 -2.3486
  162SAPE   H7Y18228   3.036   6.839   7.299  0.8668 -3.2805 -4.3810
  162SAPE   C3818229   3.087   7.048   7.323 -0.0960 -1.0763 -0.1928
  162SAPE   H8X18230   2.987   7.082   7.290  0.6988  0.1102 -1.4844
  162SAPE   H8Y18231   3.156   7.127   7.286  2.7061 -3.0530  0.4850
  162SAPE   C3918232   3.096   7.042   7.476  0.1472  1.0315  0.1610
  162SAPE   H9X18233   3.199   7.016   7.508 -0.7492 -0.8881  1.6547
  162SAPE   H9Y18234   3.043   6.952   7.514 -0.3959  1.6098  0.7819
  162SAPE  C31018235   3.057   7.160   7.567 -0.2920  0.1043 -0.2965
  162SAPE  H10X18236   2.949   7.181   7.551 -0.4457  0.5833  1.2181
  162SAPE  H10Y18237   3.118   7.248   7.536  1.2762 -0.8429  0.0180
  162SAPE  C31118238   3.069   7.136   7.715 -0.5727  0.4270 -0.4506
  162SAPE  H11X18239   3.174   7.142   7.752 -1.3291 -1.0929  2.1498
  162SAPE  H11Y18240   3.027   7.037   7.742 -0.6321  0.5651 -0.0271
  162SAPE  C31218241   3.008   7.253   7.801  0.5347  0.6439 -0.2319
  162SAPE  H12X18242   2.899   7.248   7.781  0.6542  0.9848 -0.9903
  162SAPE  H12Y18243   3.034   7.356   7.768  0.5533  0.7391  0.0819
  162SAPE  C31318244   3.035   7.246   7.954  0.6814  0.5968 -0.1968
  162SAPE  H13X18245   3.142   7.269   7.974  1.2891 -2.0402 -0.1415
  162SAPE  H13Y18246   3.003   7.140   7.965 -2.8383  1.0825 -3.5009
  162SAPE  C31418247   2.935   7.327   8.041 -0.1404 -0.0610 -0.2941
  162SAPE  H14X18248   2.833   7.287   8.021  0.5286 -1.0860 -1.8150
  162SAPE  H14Y18249   2.947   7.435   8.020 -2.2230  0.7383  2.0568
  162SAPE  C31518250   2.959   7.319   8.191 -0.5775 -0.2228 -0.3736
  162SAPE  H15X18251   3.008   7.413   8.222 -1.0123 -0.6649  1.9021
  162SAPE  H15Y18252   3.020   7.227   8.206 -0.7443 -0.1271  1.0638
  162SAPE  C31618253   2.830   7.296   8.273 -0.6497 -0.4158  0.2138
  162SAPE  H16X18254   2.784   7.197   8.254  0.6472 -0.8157 -0.9854
  162SAPE  H16Y18255   2.755   7.370   8.238 -0.8363 -1.2553 -1.2500
  162SAPE  C31718256   2.855   7.316   8.424 -0.0109  0.7694  0.8031
  162SAPE  H17X18257   2.947   7.263   8.457  0.1933  2.4634  3.1692
  162SAPE  H17Y18258   2.769   7.266   8.473 -0.4591 -1.1504 -1.6928
  162SAPE  C31818259   2.873   7.462   8.470  0.3818  0.0520  0.2523
  162SAPE  H18X18260   2.780   7.514   8.438  0.3860 -0.7226 -1.1134
  162SAPE  H18Y18261   2.958   7.502   8.412 -0.5052  1.7953  0.0938
  162SAPE  H18Z18262   2.891   7.473   8.579  1.1976 -0.3608  0.1626
  163SAPE     N18263   1.404   6.062   6.834  0.2182  0.2397  0.0168
  163SAPE   HN118264   1.368   5.967   6.813 -0.3683  0.6078 -0.6794
  163SAPE   HN218265   1.324   6.107   6.882  0.2507 -1.2158  1.5533
  163SAPE   HN318266   1.428   6.113   6.746  2.3771  0.4889  0.6719
  163SAPE   C1218267   1.527   6.049   6.916  0.0397  0.4097 -0.0869
  163SAPE  H12A18268   1.492   6.009   7.013  0.1142 -1.2134 -0.6971
  163SAPE  H12B18269   1.567   6.151   6.935 -0.9042  0.5068  1.5933
  163SAPE   C1118270   1.636   5.962   6.851 -0.0225  0.4304  0.7468
  163SAPE  H11A18271   1.737   5.996   6.883  0.5875 -0.9878  0.3899
  163SAPE  H11B18272   1.633   5.974   6.740 -0.5720 -0.6517  0.6337
  163SAPE     P18273   1.513   5.735   6.795  0.1716  0.5386  0.0134
  163SAPE   O1318274   1.379   5.801   6.795 -0.6520  1.1828 -0.6282
  163SAPE   O1418275   1.572   5.721   6.658  0.1377  0.0937 -0.2637
  163SAPE   O1218276   1.613   5.821   6.891 -0.2756 -0.6492  0.5612
  163SAPE   O1118277   1.505   5.586   6.850  0.0440 -0.1784 -0.2628
  163SAPE    C118278   1.471   5.567   6.982  0.5627 -0.0877 -0.5166
  163SAPE    HA18279   1.431   5.659   7.029  0.5086 -0.9122  1.0977
  163SAPE    HB18280   1.387   5.495   6.992 -0.2008  1.0873  2.6822
  163SAPE    C218281   1.592   5.514   7.062  0.0250  0.0147  0.3210
  163SAPE    HS18282   1.542   5.468   7.150 -2.1191  1.1921 -0.2109
  163SAPE   O2118283   1.685   5.616   7.092  0.3891  0.2074 -0.5519
  163SAPE   C2118284   1.644   5.707   7.176  0.6351 -0.4062 -0.7620
  163SAPE   O2218285   1.543   5.710   7.249  0.1462 -0.2719  0.5460
  163SAPE   C2218286   1.757   5.809   7.190  0.0862  0.8212 -0.4478
  163SAPE   H2R18287   1.832   5.756   7.254  0.4487  0.5871 -1.0614
  163SAPE   H2S18288   1.794   5.831   7.088 -0.1108  0.0112 -0.7022
  163SAPE    C318289   1.659   5.390   6.995 -0.0813  0.3020 -0.0132
  163SAPE    HX18290   1.749   5.368   7.057 -0.8278  2.6190  2.0388
  163SAPE    HY18291   1.708   5.422   6.900 -1.4255 -0.5485 -1.0278
  163SAPE   O3118292   1.569   5.282   6.966  0.4285  0.3859 -0.6441
  163SAPE   C3118293   1.554   5.212   7.077  0.4336 -0.1755 -0.7717
  163SAPE   O3218294   1.606   5.226   7.183 -0.2615 -0.1316 -0.1015
  163SAPE   C3218295   1.456   5.094   7.056  0.2746  0.2231 -0.5095
  163SAPE   H2X18296   1.479   5.058   6.954 -1.0114 -0.9755 -0.4070
  163SAPE   H2Y18297   1.349   5.120   7.044  0.5120  0.7894 -1.5456
  163SAPE   C2318298   1.711   5.945   7.239 -0.2599 -0.0411 -0.1382
  163SAPE   H3R18299   1.692   5.939   7.349 -1.7143 -0.8524 -0.4068
  163SAPE   H3S18300   1.610   5.970   7.198 -0.6866  0.7552  1.3106
  163SAPE   C2418301   1.797   6.068   7.215 -0.1783 -0.0997 -0.0635
  163SAPE   H4R18302   1.760   6.162   7.261  0.6955  0.3462 -0.2595
  163SAPE   H4S18303   1.793   6.076   7.104  1.9266 -2.5468 -0.4090
  163SAPE   C2518304   1.945   6.066   7.239  0.0401  0.6126 -0.2727
  163SAPE   H5R18305   2.010   6.056   7.151 -3.5104 -0.3107 -3.0889
  163SAPE   C2618306   1.992   6.061   7.364 -0.2430  0.1336  0.8569
  163SAPE   H6R18307   2.101   6.057   7.378 -0.1354  0.3497  0.1338
  163SAPE   C2718308   1.920   6.061   7.497 -0.0748  0.6518  0.3783
  163SAPE   H7R18309   1.833   6.129   7.483 -0.3843 -0.2317 -2.7683
  163SAPE   H7S18310   1.980   6.120   7.569 -0.7455  0.0946  1.4138
  163SAPE   C2818311   1.894   5.922   7.553 -0.0594  0.3555  0.7606
  163SAPE   H8R18312   1.787   5.900   7.568  0.2984 -1.5696  0.8161
  163SAPE   C2918313   1.979   5.825   7.591 -0.6666  0.5342 -0.5459
  163SAPE   H9R18314   1.923   5.736   7.623 -1.1969  1.7642  2.2447
  163SAPE  C21018315   2.131   5.824   7.601 -0.3902  0.6930 -0.6120
  163SAPE  H10R18316   2.164   5.927   7.577 -0.7163  1.0866  0.5816
  163SAPE  H10S18317   2.170   5.756   7.522  0.0570 -1.3573  1.2779
  163SAPE  C21118318   2.190   5.772   7.734 -0.2991  0.6345  0.3285
  163SAPE  H11R18319   2.123   5.733   7.813  2.7947 -2.0549  1.9109
  163SAPE  C21218320   2.314   5.782   7.780  0.1769 -0.2621  0.2408
  163SAPE  H12R18321   2.332   5.728   7.874  0.0876  1.5289  1.3504
  163SAPE  C21318322   2.437   5.838   7.705 -0.5255  0.0961  0.0540
  163SAPE  H13R18323   2.479   5.934   7.742  1.2008 -0.7875  0.5057
  163SAPE  H13S18324   2.401   5.872   7.606 -0.9324  1.4585  0.6402
  163SAPE  C21418325   2.542   5.724   7.698  0.3609  0.3590 -0.4832
  163SAPE  H14R18326   2.513   5.649   7.623 -0.5881 -2.0607  2.1451
  163SAPE  C21518327   2.649   5.708   7.782  0.3632 -0.3658  0.2586
  163SAPE  H15R18328   2.709   5.615   7.777  0.4521 -0.2990  0.0664
  163SAPE  C21618329   2.679   5.785   7.908 -0.3068 -0.6148 -0.1630
  163SAPE  H16R18330   2.603   5.864   7.926 -0.8266 -1.3596  1.0691
  163SAPE  H16S18331   2.776   5.839   7.902  0.8085 -2.0624  2.5510
  163SAPE  C21718332   2.696   5.687   8.022 -0.6354 -0.2788  0.0266
  163SAPE  H17R18333   2.701   5.581   7.992  0.7043 -0.3755  0.5123
  163SAPE  H17S18334   2.605   5.706   8.083 -0.1515  1.5120  0.2765
  163SAPE  C21818335   2.814   5.734   8.115  0.2625  0.0042  0.1462
  163SAPE  H18R18336   2.905   5.767   8.061 -0.3763 -1.2523 -1.8019
  163SAPE  H18S18337   2.839   5.651   8.184 -0.8993  0.0155  0.6029
  163SAPE  C21918338   2.774   5.849   8.202  0.1544 -0.1551 -0.3297
  163SAPE  H19R18339   2.708   5.811   8.284 -0.9010  1.4679 -0.3631
  163SAPE  H19S18340   2.706   5.918   8.147 -0.3972  0.8996  1.5725
  163SAPE  C22018341   2.882   5.929   8.273  0.3707 -0.1878 -0.5261
  163SAPE  H20R18342   2.971   5.872   8.308  0.9985  1.1998  0.2289
  163SAPE  H20S18343   2.847   5.987   8.361  0.8942 -0.6419 -0.0092
  163SAPE  H20T18344   2.913   6.009   8.203  3.7945 -0.3278  0.6411
  163SAPE   C3318345   1.468   4.971   7.159 -0.2569 -0.0285  0.2595
  163SAPE   H3X18346   1.569   4.926   7.167  0.1501  0.3133 -2.0467
  163SAPE   H3Y18347   1.397   4.893   7.122 -1.3238  1.3013 -0.5913
  163SAPE   C3418348   1.424   4.986   7.301 -0.1686 -0.8119  0.0909
  163SAPE   H4X18349   1.473   5.075   7.346  1.3225 -0.4186 -2.1812
  163SAPE   H4Y18350   1.457   4.899   7.362  0.1857 -1.4108 -0.9435
  163SAPE   C3518351   1.273   5.005   7.317 -0.4440 -0.0268 -0.2677
  163SAPE   H5X18352   1.231   4.911   7.276 -0.3180 -0.3209  0.2609
  163SAPE   H5Y18353   1.244   5.093   7.257 -0.6525  0.6300  0.7791
  163SAPE   C3618354   1.232   4.998   7.464 -0.4136 -0.9805 -0.1120
  163SAPE   H6X18355   1.296   4.925   7.517 -0.4446 -0.4763  0.6375
  163SAPE   H6Y18356   1.126   4.963   7.468 -0.8784  0.4276  0.8410
  163SAPE   C3718357   1.230   5.137   7.522 -0.3368 -0.6490 -0.0033
  163SAPE   H7X18358   1.165   5.205   7.463  1.1874  0.3297 -0.5992
  163SAPE   H7Y18359   1.336   5.165   7.539 -0.4574 -1.1378  1.8187
  163SAPE   C3818360   1.171   5.130   7.662  0.3307  0.6752 -0.0011
  163SAPE   H8X18361   1.222   5.051   7.721 -0.0959  0.8955  0.6752
  163SAPE   H8Y18362   1.068   5.088   7.654  0.6939 -0.1772 -0.2652
  163SAPE   C3918363   1.182   5.253   7.746  0.7808  0.3116  0.6660
  163SAPE   H9X18364   1.164   5.338   7.677  1.5850 -0.6962 -0.8463
  163SAPE   H9Y18365   1.287   5.269   7.780  0.1171 -0.0820  3.0963
  163SAPE  C31018366   1.081   5.270   7.861 -0.8763  0.2989  0.0076
  163SAPE  H10X18367   0.981   5.230   7.834 -0.9592  0.8760 -0.5593
  163SAPE  H10Y18368   1.082   5.380   7.881  1.4805  0.3408 -0.0668
  163SAPE  C31118369   1.123   5.197   7.993 -0.1656 -0.1134  0.1282
  163SAPE  H11X18370   1.160   5.096   7.965  1.6335  1.0387 -1.9459
  163SAPE  H11Y18371   1.042   5.195   8.069 -0.7429 -1.1592 -0.4833
  163SAPE  C31218372   1.251   5.261   8.057  0.6531  0.1311  0.0268
  163SAPE  H12X18373   1.222   5.359   8.101  1.2735  0.2624  0.1560
  163SAPE  H12Y18374   1.332   5.282   7.983  1.3951  0.3892  0.8949
  163SAPE  C31318375   1.304   5.179   8.177 -0.6861  0.3936 -0.7330
  163SAPE  H13X18376   1.224   5.177   8.255 -0.8651  0.0278 -0.9258
  163SAPE  H13Y18377   1.385   5.228   8.235 -0.8411 -1.2042  0.9377
  163SAPE  C31418378   1.346   5.037   8.138 -0.1806  0.2172 -0.5474
  163SAPE  H14X18379   1.418   5.057   8.055  1.7852  2.9684  1.6232
  163SAPE  H14Y18380   1.269   4.967   8.100  0.5466 -0.5995 -0.5396
  163SAPE  C31518381   1.435   4.973   8.251  0.0367  0.3122  0.2773
  163SAPE  H15X18382   1.464   5.050   8.324 -3.5173  1.4254  0.6830
  163SAPE  H15Y18383   1.519   4.916   8.205 -1.0463 -1.8025  0.7641
  163SAPE  C31618384   1.362   4.865   8.328 -0.2641 -0.2895 -0.1743
  163SAPE  H16X18385   1.333   4.779   8.262 -2.5793  0.0914  0.2373
  163SAPE  H16Y18386   1.266   4.901   8.371  1.3772 -0.0706  3.6912
  163SAPE  C31718387   1.442   4.818   8.453  0.4241 -1.3235 -0.0308
  163SAPE  H17X18388   1.436   4.889   8.538  0.5915 -2.1081  0.6436
  163SAPE  H17Y18389   1.545   4.833   8.415 -0.3283  3.2050 -0.8964
  163SAPE  C31818390   1.398   4.690   8.502 -0.2990 -0.4881  0.3367
  163SAPE  H18X18391   1.289   4.681   8.524 -0.4484  1.3833  0.5288
  163SAPE  H18Y18392   1.453   4.657   8.593 -1.8491 -0.6682  1.2430
  163SAPE  H18Z18393   1.417   4.617   8.421 -1.5632  0.9830 -1.3611
  164SAPE     N18394   6.435   2.071   6.441  0.2226 -0.4844  0.1417
  164SAPE   HN118395   6.360   2.000   6.455 -0.0688 -0.8851 -2.8416
  164SAPE   HN218396   6.507   2.045   6.511 -1.6608 -0.1342  2.3241
  164SAPE   HN318397   6.399   2.166   6.467 -1.8245 -0.9882 -0.6815
  164SAPE   C1218398   6.470   2.072   6.292 -0.0678 -0.7056 -1.2525
  164SAPE  H12A18399   6.576   2.039   6.303  1.2757  3.2227 -0.7736
  164SAPE  H12B18400   6.464   2.179   6.262 -1.9853  0.9797  4.0069
  164SAPE   C1118401   6.372   1.984   6.218 -0.1321  0.0346  0.1805
  164SAPE  H11A18402   6.348   1.889   6.269 -2.8920 -0.5693 -2.0069
  164SAPE  H11B18403   6.415   1.944   6.124 -1.8119 -0.6018 -0.3535
  164SAPE     P18404   6.116   2.012   6.156  0.0326  0.0379 -0.1643
  164SAPE   O1318405   6.016   2.077   6.238 -0.5443 -0.3572 -0.3521
  164SAPE   O1418406   6.091   2.008   6.009  0.6193 -0.3942  0.1434
  164SAPE   O1218407   6.261   2.064   6.188  0.3877 -0.2638  0.2688
  164SAPE   O1118408   6.130   1.861   6.201 -0.8284 -0.3422  0.4470
  164SAPE    C118409   6.012   1.808   6.269 -0.2898  0.7869 -0.9534
  164SAPE    HA18410   5.917   1.836   6.218 -0.9593  1.6218  0.6691
  164SAPE    HB18411   6.023   1.698   6.269 -0.9239  0.7115  0.6790
  164SAPE    C218412   5.999   1.846   6.419  0.3821 -0.0351  0.9151
  164SAPE    HS18413   6.043   1.948   6.423  0.0854  0.1992 -0.8260
  164SAPE   O2118414   6.077   1.749   6.487 -0.6414  0.2076  0.1973
  164SAPE   C2118415   6.197   1.780   6.516 -0.0176  0.7206 -0.1400
  164SAPE   O2218416   6.254   1.886   6.497 -0.0890 -0.3150  0.0176
  164SAPE   C2218417   6.259   1.658   6.587 -0.8722 -0.5460  0.3388
  164SAPE   H2R18418   6.177   1.624   6.654 -1.2331 -0.8099 -0.2325
  164SAPE   H2S18419   6.275   1.594   6.499  0.1977  1.7962 -1.2747
  164SAPE    C318420   5.854   1.837   6.473 -0.2345 -0.0313  0.8853
  164SAPE    HX18421   5.809   1.735   6.481  0.5742 -0.5442 -0.6393
  164SAPE    HY18422   5.791   1.875   6.390  1.6366  0.7295 -0.2504
  164SAPE   O3118423   5.834   1.919   6.586 -0.2900  0.1594  0.1773
  164SAPE   C3118424   5.844   1.854   6.706  0.7119  0.3831  0.7765
  164SAPE   O3218425   5.863   1.735   6.712 -0.1956  0.2598  0.2323
  164SAPE   C3218426   5.823   1.942   6.821 -0.3535 -0.3320 -0.4659
  164SAPE   H2X18427   5.768   2.034   6.789  0.2753  0.5313  0.8596
  164SAPE   H2Y18428   5.915   1.977   6.872 -1.4666 -0.9091  2.0979
  164SAPE   C2318429   6.387   1.681   6.663 -0.3984  0.3165 -0.2887
  164SAPE   H3R18430   6.456   1.752   6.612  0.5157 -0.5988 -0.3544
  164SAPE   H3S18431   6.437   1.584   6.681 -1.5835  0.0461  1.9356
  164SAPE   C2418432   6.358   1.732   6.811  0.0035 -0.1106  0.3438
  164SAPE   H4R18433   6.452   1.732   6.870 -0.8292  0.6841  1.7162
  164SAPE   H4S18434   6.289   1.654   6.849 -1.0460 -0.0777 -1.3605
  164SAPE   C2518435   6.306   1.876   6.815  0.1265  0.1893 -0.3301
  164SAPE   H5R18436   6.352   1.948   6.746  3.3855 -0.0447  1.3762
  164SAPE   C2618437   6.210   1.918   6.906 -0.5230 -1.1136 -0.4450
  164SAPE   H6R18438   6.176   2.021   6.888  2.9689 -0.4136 -4.8059
  164SAPE   C2718439   6.152   1.838   7.023 -0.7928 -0.0053  0.0389
  164SAPE   H7R18440   6.221   1.757   7.057  0.1994  1.0857  0.6826
  164SAPE   H7S18441   6.058   1.788   6.990 -0.5984  0.1510 -0.7724
  164SAPE   C2818442   6.128   1.939   7.134 -0.8050 -0.2438 -0.1236
  164SAPE   H8R18443   6.070   2.027   7.103 -0.4776  0.0448  0.0825
  164SAPE   C2918444   6.172   1.940   7.265 -0.2865  0.6135  0.3331
  164SAPE   H9R18445   6.149   2.023   7.333  0.7006  0.0263  1.4319
  164SAPE  C21018446   6.243   1.819   7.319 -0.1806  0.1613 -0.6022
  164SAPE  H10R18447   6.252   1.730   7.253 -1.4689 -0.9077  0.6006
  164SAPE  H10S18448   6.189   1.773   7.405 -1.2028  0.0330 -1.3046
  164SAPE  C21118449   6.381   1.870   7.357 -0.1247  0.0061 -0.1479
  164SAPE  H11R18450   6.441   1.897   7.269 -0.2898  0.0481 -0.2489
  164SAPE  C21218451   6.427   1.897   7.480 -1.0362 -0.4231 -0.1856
  164SAPE  H12R18452   6.524   1.949   7.486 -1.1284 -0.2005 -0.5898
  164SAPE  C21318453   6.358   1.881   7.615 -1.1379  0.8002  0.4528
  164SAPE  H13R18454   6.438   1.860   7.690 -0.4273  1.3949 -0.1215
  164SAPE  H13S18455   6.307   1.783   7.615  2.4099 -1.2715 -2.1319
  164SAPE  C21418456   6.272   1.999   7.649  1.1241  0.4221 -0.5403
  164SAPE  H14R18457   6.207   2.037   7.569  2.2634  0.0937 -1.6608
  164SAPE  C21518458   6.259   2.056   7.768 -0.0854  0.6774 -0.7156
  164SAPE  H15R18459   6.179   2.132   7.775  1.1787  2.2052 -2.0165
  164SAPE  C21618460   6.328   2.012   7.904 -0.0225 -0.3705  0.5067
  164SAPE  H16R18461   6.414   1.946   7.880  1.2347  0.5537  2.3074
  164SAPE  H16S18462   6.261   1.955   7.972 -1.0784  0.3154  0.0613
  164SAPE  C21718463   6.382   2.144   7.970 -0.2031 -0.0688  0.0861
  164SAPE  H17R18464   6.440   2.117   8.060 -1.6739  0.6519  1.2911
  164SAPE  H17S18465   6.293   2.197   8.011 -0.2558 -0.4372  0.4424
  164SAPE  C21818466   6.451   2.246   7.877 -0.3317  0.0344 -0.0494
  164SAPE  H18R18467   6.374   2.288   7.809 -0.4421 -0.5392 -0.2803
  164SAPE  H18S18468   6.519   2.183   7.816 -0.2242  1.1012 -1.0682
  164SAPE  C21918469   6.541   2.350   7.936  0.3562 -0.6606 -0.1766
  164SAPE  H19R18470   6.629   2.303   7.986 -0.3624 -1.7317  0.1087
  164SAPE  H19S18471   6.482   2.415   8.005 -1.8999 -0.2795 -2.3549
  164SAPE  C22018472   6.610   2.440   7.825 -0.3528 -0.1101  0.8184
  164SAPE  H20R18473   6.530   2.479   7.758 -0.0233 -0.3306  0.2979
  164SAPE  H20S18474   6.679   2.376   7.767  2.6319  1.5997  2.2568
  164SAPE  H20T18475   6.673   2.523   7.865  0.8968 -0.4524 -0.3534
  164SAPE   C3318476   5.740   1.884   6.940  0.2966  0.1660  0.4042
  164SAPE   H3X18477   5.781   1.942   7.025  0.4990 -0.7443  0.9441
  164SAPE   H3Y18478   5.767   1.776   6.945  5.3616  1.1176 -0.5073
  164SAPE   C3418479   5.589   1.914   6.936 -0.2500 -0.1190 -1.4535
  164SAPE   H4X18480   5.547   1.862   6.847 -0.5303 -0.8169 -0.9174
  164SAPE   H4Y18481   5.558   2.021   6.936  0.0191 -0.0388 -0.7625
  164SAPE   C3518482   5.538   1.854   7.065 -0.3938  0.9519 -0.2163
  164SAPE   H5X18483   5.585   1.906   7.151 -1.5869  1.2724  0.2708
  164SAPE   H5Y18484   5.574   1.749   7.072 -1.7029  0.5623  1.4597
  164SAPE   C3618485   5.386   1.857   7.090  0.3568 -0.0543  0.1497
  164SAPE   H6X18486   5.335   1.809   7.004  0.3364  0.6888 -0.2660
  164SAPE   H6Y18487   5.360   1.965   7.091 -2.5896 -0.6723 -0.3179
  164SAPE   C3718488   5.336   1.785   7.214  0.5296  0.6119 -0.3298
  164SAPE   H7X18489   5.378   1.683   7.199 -0.0170  0.2645  0.4441
  164SAPE   H7Y18490   5.226   1.787   7.206  0.4793  0.0841  0.1837
  164SAPE   C3818491   5.396   1.836   7.347  0.2333 -0.2293  0.4758
  164SAPE   H8X18492   5.358   1.938   7.370 -3.4498 -0.2629 -3.9799
  164SAPE   H8Y18493   5.507   1.833   7.349  0.2516 -0.2959 -0.2396
  164SAPE   C3918494   5.350   1.746   7.465  0.0054  0.3587 -0.7041
  164SAPE   H9X18495   5.384   1.643   7.441  1.8176  1.2674 -2.2995
  164SAPE   H9Y18496   5.241   1.737   7.486  0.2593 -3.8876 -0.3522
  164SAPE  C31018497   5.442   1.779   7.591  0.2210  0.0357 -0.0889
  164SAPE  H10X18498   5.415   1.880   7.631 -0.6492  0.3643 -1.4183
  164SAPE  H10Y18499   5.549   1.776   7.562  0.0085 -0.6087 -0.8224
  164SAPE  C31118500   5.419   1.681   7.709  0.4222 -0.0731 -0.6214
  164SAPE  H11X18501   5.426   1.575   7.679 -1.2914 -0.2959 -0.3408
  164SAPE  H11Y18502   5.310   1.701   7.722  0.1399 -1.6042 -0.5282
  164SAPE  C31218503   5.509   1.722   7.822 -0.3145  0.4007  0.0063
  164SAPE  H12X18504   5.476   1.826   7.838  0.5620  1.4252 -3.8991
  164SAPE  H12Y18505   5.617   1.724   7.793 -0.1952  2.4422  0.4400
  164SAPE  C31318506   5.486   1.641   7.945  0.0633  0.5138  0.3274
  164SAPE  H13X18507   5.527   1.539   7.929 -1.0465  0.2661 -1.1503
  164SAPE  H13Y18508   5.375   1.631   7.954  0.0255  0.9625  0.3971
  164SAPE  C31418509   5.535   1.706   8.075  0.3570  0.7061  0.4564
  164SAPE  H14X18510   5.488   1.807   8.079 -1.1251  0.0276  1.2928
  164SAPE  H14Y18511   5.644   1.692   8.084  0.4737  0.6618 -0.8797
  164SAPE  C31518512   5.469   1.648   8.201  0.3238  0.2212  0.8971
  164SAPE  H15X18513   5.477   1.538   8.192  0.2594  0.3396 -1.2148
  164SAPE  H15Y18514   5.365   1.682   8.183 -0.4122 -1.0802  2.4992
  164SAPE  C31618515   5.531   1.710   8.323 -0.2863 -0.7758  0.5987
  164SAPE  H16X18516   5.461   1.693   8.408 -1.1964  1.0003  0.2454
  164SAPE  H16Y18517   5.536   1.820   8.315 -2.2841 -0.7616 -1.7346
  164SAPE  C31718518   5.672   1.655   8.369 -0.4054 -0.4999 -0.4009
  164SAPE  H17X18519   5.744   1.674   8.286  0.4141 -1.3504  0.0909
  164SAPE  H17Y18520   5.659   1.546   8.381 -0.4419 -0.4701 -0.1825
  164SAPE  C31818521   5.732   1.693   8.504 -0.1167  0.4502 -0.0698
  164SAPE  H18X18522   5.646   1.682   8.574 -1.6042  0.6911 -1.8052
  164SAPE  H18Y18523   5.769   1.798   8.496  2.2897 -0.3461 -0.3054
  164SAPE  H18Z18524   5.823   1.633   8.528  0.5416  2.0100  1.5999
  165SAPE     N18525   4.761   4.374   6.727 -0.6808  0.2128 -0.7184
  165SAPE   HN118526   4.720   4.420   6.811  1.2049  0.7204 -0.0389
  165SAPE   HN218527   4.687   4.322   6.674 -0.2562 -2.2285  0.8884
  165SAPE   HN318528   4.826   4.304   6.767  1.7616  1.2823 -2.6001
  165SAPE   C1218529   4.835   4.468   6.642  0.7301  0.2185  0.2201
  165SAPE  H12A18530   4.869   4.409   6.555 -0.7212 -0.9942  0.4253
  165SAPE  H12B18531   4.929   4.484   6.699 -0.3344  1.6761  1.6784
  165SAPE   C1118532   4.754   4.600   6.631 -0.6000  0.5653 -0.7722
  165SAPE  H11A18533   4.817   4.685   6.599 -2.8329  2.8001  0.4093
  165SAPE  H11B18534   4.718   4.639   6.728  0.0410  0.0639 -0.3224
  165SAPE     P18535   4.603   4.633   6.419  0.1398 -0.2699  0.3894
  165SAPE   O1318536   4.729   4.685   6.360  0.2502 -0.3641  0.0377
  165SAPE   O1418537   4.529   4.532   6.337 -0.1320 -0.1121 -0.2120
  165SAPE   O1218538   4.634   4.577   6.559  0.0077  0.2872 -0.1356
  165SAPE   O1118539   4.513   4.756   6.451  0.6179  0.0607 -0.5270
  165SAPE    C118540   4.418   4.751   6.561  0.3438 -0.0630  0.3799
  165SAPE    HA18541   4.318   4.771   6.517  0.3576 -0.7850 -0.0086
  165SAPE    HB18542   4.416   4.658   6.622  0.2928 -0.3388 -0.0326
  165SAPE    C218543   4.438   4.869   6.677  0.0457 -0.7278  0.0238
  165SAPE    HS18544   4.462   4.961   6.618  3.3041 -1.4620  0.0139
  165SAPE   O2118545   4.553   4.836   6.754  0.5448 -0.7032  0.4990
  165SAPE   C2118546   4.593   4.937   6.826 -0.4964  0.3400 -0.1870
  165SAPE   O2218547   4.557   5.053   6.819 -0.1623 -0.0283  0.2389
  165SAPE   C2218548   4.709   4.892   6.922 -0.8640  0.0939  0.5525
  165SAPE   H2R18549   4.666   4.797   6.958 -1.5574  0.2007  0.0242
  165SAPE   H2S18550   4.789   4.854   6.854 -1.4663 -2.0487  0.9671
  165SAPE    C318551   4.313   4.869   6.763  0.4790  0.6234  0.1370
  165SAPE    HX18552   4.227   4.885   6.694  0.0290  3.2635  1.2099
  165SAPE    HY18553   4.298   4.948   6.839 -0.5282  1.2015 -0.6344
  165SAPE   O3118554   4.291   4.741   6.828 -0.9971  1.3390 -0.3636
  165SAPE   C3118555   4.360   4.729   6.943  0.3833 -0.4607 -0.1791
  165SAPE   O3218556   4.397   4.827   7.008 -0.6006  0.5830 -0.0139
  165SAPE   C3218557   4.381   4.575   6.975 -0.3453 -0.1421  0.6356
  165SAPE   H2X18558   4.486   4.570   7.011  0.4722  1.8340 -1.2437
  165SAPE   H2Y18559   4.378   4.521   6.878  0.7774  1.0779 -0.1051
  165SAPE   C2318560   4.751   4.985   7.035 -0.3559 -0.0061 -0.3586
  165SAPE   H3R18561   4.772   5.088   7.001  0.0973  0.5371  1.4480
  165SAPE   H3S18562   4.844   4.945   7.082  0.3441 -1.0868 -2.5626
  165SAPE   C2418563   4.648   4.986   7.151  0.6136 -0.7337  0.2215
  165SAPE   H4R18564   4.640   4.881   7.189 -1.5600  0.0317  2.1127
  165SAPE   H4S18565   4.546   4.999   7.110  1.5222  0.6254 -1.7247
  165SAPE   C2518566   4.678   5.086   7.264 -0.0938  0.3792 -0.3507
  165SAPE   H5R18567   4.742   5.170   7.230 -0.2386  0.2198 -1.0366
  165SAPE   C2618568   4.637   5.091   7.384  0.8491  0.1003  0.2529
  165SAPE   H6R18569   4.662   5.173   7.453  1.6795  0.1764 -0.1387
  165SAPE   C2718570   4.541   4.992   7.443 -0.6080 -0.5702 -0.0981
  165SAPE   H7R18571   4.486   4.925   7.373  1.3593 -2.1621 -0.2148
  165SAPE   H7S18572   4.463   5.046   7.501  0.0577  1.1439 -0.7244
  165SAPE   C2818573   4.624   4.906   7.538  0.6314  0.6025  0.9462
  165SAPE   H8R18574   4.690   4.836   7.486 -0.5411  0.7083 -0.7730
  165SAPE   C2918575   4.622   4.896   7.675 -0.4960  0.4614 -0.8010
  165SAPE   H9R18576   4.680   4.817   7.726  2.3625  1.1977 -2.6842
  165SAPE  C21018577   4.529   4.971   7.770  0.9892  0.8698  0.0567
  165SAPE  H10R18578   4.448   4.897   7.785  0.6205  0.3305 -3.6567
  165SAPE  H10S18579   4.489   5.065   7.726 -4.5141 -0.4062  1.6035
  165SAPE  C21118580   4.584   5.015   7.899 -0.2183  0.0498  0.3166
  165SAPE  H11R18581   4.615   5.121   7.905  0.1837 -0.0536  0.1227
  165SAPE  C21218582   4.608   4.943   8.012  0.1055 -0.5070 -0.2147
  165SAPE  H12R18583   4.658   5.000   8.092  1.2247 -2.2449  0.3833
  165SAPE  C21318584   4.579   4.804   8.039 -0.4238  0.4876 -0.3790
  165SAPE  H13R18585   4.672   4.751   8.069 -1.5022 -1.7146 -0.7726
  165SAPE  H13S18586   4.540   4.747   7.952  1.6787  1.1791 -1.8556
  165SAPE  C21418587   4.476   4.801   8.148 -0.3493 -0.0365 -0.3104
  165SAPE  H14R18588   4.373   4.822   8.115 -0.2343 -0.5438 -1.0182
  165SAPE  C21518589   4.504   4.782   8.280  0.6032 -0.6296  0.8321
  165SAPE  H15R18590   4.423   4.787   8.355  2.1039 -1.4586  2.5943
  165SAPE  C21618591   4.642   4.765   8.339 -0.8439  0.6076  0.2490
  165SAPE  H16R18592   4.716   4.806   8.267 -0.6395 -0.3510 -0.0939
  165SAPE  H16S18593   4.668   4.657   8.349  0.1134  0.6682 -1.3499
  165SAPE  C21718594   4.660   4.832   8.474  0.7286  0.6348 -0.2123
  165SAPE  H17R18595   4.629   4.938   8.465 -2.7314 -0.2379  0.1920
  165SAPE  H17S18596   4.767   4.832   8.503 -0.0472 -1.7542  3.1428
  165SAPE  C21818597   4.588   4.757   8.589 -0.5850 -0.3358 -0.6043
  165SAPE  H18R18598   4.631   4.655   8.598  0.2090  0.1126  1.0286
  165SAPE  H18S18599   4.482   4.726   8.582 -1.3884  1.6545  1.4888
  165SAPE  C21918600   4.600   4.836   8.723 -0.3750  0.2162 -0.1120
  165SAPE  H19R18601   4.536   4.776   8.791  0.1434 -0.2242 -0.0110
  165SAPE  H19S18602   4.545   4.933   8.719 -2.0127 -0.7111 -1.4880
  165SAPE  C22018603   4.732   4.829   8.787 -0.7289 -0.2410 -0.0933
  165SAPE  H20R18604   4.784   4.736   8.757  0.9685  0.7057 -0.1813
  165SAPE  H20S18605   4.731   4.818   8.898 -0.7538  0.3594 -0.0268
  165SAPE  H20T18606   4.798   4.913   8.757 -0.9494  0.7108  1.8746
  165SAPE   C3318607   4.285   4.508   7.071 -0.0075 -0.1220  0.1423
  165SAPE   H3X18608   4.280   4.397   7.065 -0.8707 -0.0692 -0.3300
  165SAPE   H3Y18609   4.184   4.541   7.040  0.4298  0.2372 -0.9286
  165SAPE   C3418610   4.316   4.555   7.214  0.0243 -0.1988  0.7121
  165SAPE   H4X18611   4.342   4.663   7.211  0.4358 -0.3182 -1.6369
  165SAPE   H4Y18612   4.405   4.494   7.242 -1.3506 -1.3798  2.8228
  165SAPE   C3518613   4.216   4.510   7.324  0.3291 -0.0666  1.1822
  165SAPE   H5X18614   4.197   4.403   7.305 -1.2965 -0.2230  3.2316
  165SAPE   H5Y18615   4.117   4.556   7.300  1.3398  0.8483 -1.6625
  165SAPE   C3618616   4.277   4.529   7.460 -0.4460  0.0263 -0.4109
  165SAPE   H6X18617   4.329   4.625   7.483 -0.3236 -0.5047  1.7500
  165SAPE   H6Y18618   4.366   4.464   7.459 -0.1271  0.4580 -0.5372
  165SAPE   C3718619   4.184   4.483   7.573  0.0027 -0.9645  0.0212
  165SAPE   H7X18620   4.158   4.375   7.561 -0.5692 -1.0008  1.3852
  165SAPE   H7Y18621   4.082   4.524   7.556  0.3926 -0.8068 -2.3364
  165SAPE   C3818622   4.252   4.518   7.703 -0.1909 -0.0508 -0.5250
  165SAPE   H8X18623   4.304   4.617   7.703  1.8404 -1.0613  0.3370
  165SAPE   H8Y18624   4.329   4.446   7.737  0.6071 -0.4994 -3.1062
  165SAPE   C3918625   4.153   4.511   7.826  0.8022  1.0011  0.0422
  165SAPE   H9X18626   4.134   4.401   7.825  1.2421  0.9230  0.1095
  165SAPE   H9Y18627   4.052   4.555   7.811 -0.9566 -2.6826 -0.0671
  165SAPE  C31018628   4.216   4.553   7.958 -0.8187 -0.8696 -0.7082
  165SAPE  H10X18629   4.243   4.660   7.941 -2.5173 -0.0659  1.2557
  165SAPE  H10Y18630   4.316   4.507   7.975 -0.4427  0.8123  2.5349
  165SAPE  C31118631   4.119   4.542   8.076  0.0808 -0.4761 -0.6342
  165SAPE  H11X18632   4.077   4.440   8.069  1.3567 -1.0698  0.0300
  165SAPE  H11Y18633   4.045   4.625   8.080  1.9233  1.2162  0.7802
  165SAPE  C31218634   4.193   4.557   8.212 -0.5097 -0.4529 -0.2951
  165SAPE  H12X18635   4.216   4.663   8.232  1.1631 -0.8607  0.1168
  165SAPE  H12Y18636   4.287   4.499   8.202 -0.5016 -0.2688 -1.4970
  165SAPE  C31318637   4.118   4.496   8.337 -0.4433 -0.6065 -0.0514
  165SAPE  H13X18638   4.118   4.386   8.323  1.0331 -0.6874  0.4667
  165SAPE  H13Y18639   4.016   4.542   8.336  0.3527  1.3606  2.0456
  165SAPE  C31418640   4.201   4.519   8.463 -0.0790  0.0868 -0.5024
  165SAPE  H14X18641   4.209   4.629   8.478 -0.3700  0.3304 -1.9205
  165SAPE  H14Y18642   4.308   4.491   8.457 -0.0258  0.0973  0.3471
  165SAPE  C31518643   4.146   4.453   8.594 -0.1300 -0.3869 -0.7736
  165SAPE  H15X18644   4.036   4.470   8.601 -0.1496 -1.0870  2.2056
  165SAPE  H15Y18645   4.184   4.514   8.679 -0.7615  0.8146 -1.3344
  165SAPE  C31618646   4.158   4.305   8.619  0.3090  1.2408 -1.2433
  165SAPE  H16X18647   4.261   4.276   8.590  0.4479 -0.2011  0.5783
  165SAPE  H16Y18648   4.088   4.253   8.550  0.8588 -1.5295  0.1575
  165SAPE  C31718649   4.131   4.251   8.764 -0.3874  0.1533 -0.3362
  165SAPE  H17X18650   4.226   4.265   8.820 -1.7783 -0.0597  2.2878
  165SAPE  H17Y18651   4.130   4.140   8.762  1.6284  0.1010 -0.0139
  165SAPE  C31818652   4.009   4.314   8.837  0.3276 -0.5924  0.2888
  165SAPE  H18X18653   3.921   4.297   8.771  1.2073  0.6629 -1.2791
  165SAPE  H18Y18654   4.017   4.424   8.835 -2.1023 -0.3494 -2.5426
  165SAPE  H18Z18655   3.989   4.265   8.935  1.7680 -1.8779 -0.0156
  166SAPE     N18656   4.632   1.354   6.073  0.4723  0.0642 -0.1577
  166SAPE   HN118657   4.598   1.262   6.109 -0.1824  1.0118  1.7445
  166SAPE   HN218658   4.586   1.390   5.987  0.9442 -1.0991 -0.9346
  166SAPE   HN318659   4.732   1.341   6.045  0.4016 -0.2237 -0.2862
  166SAPE   C1218660   4.599   1.458   6.184  0.5825 -0.0959  0.6761
  166SAPE  H12A18661   4.621   1.555   6.136  1.7413  0.4060  2.1505
  166SAPE  H12B18662   4.672   1.432   6.264 -1.2469 -2.3475  1.7184
  166SAPE   C1118663   4.459   1.452   6.236  0.2369  0.6537  0.0763
  166SAPE  H11A18664   4.442   1.515   6.326 -0.3953 -0.3408  0.6648
  166SAPE  H11B18665   4.441   1.350   6.275 -0.4189  1.2020  1.2589
  166SAPE     P18666   4.287   1.633   6.145 -0.0893  0.0895 -0.4038
  166SAPE   O1318667   4.386   1.744   6.150  0.0465 -0.4821  0.6160
  166SAPE   O1418668   4.183   1.644   6.043 -0.5561  0.9217 -0.4325
  166SAPE   O1218669   4.368   1.491   6.131  0.3066 -0.1781  0.3949
  166SAPE   O1118670   4.212   1.633   6.292 -0.3457 -0.7036 -0.3245
  166SAPE    C118671   4.192   1.762   6.361 -0.0641  0.0364 -0.3412
  166SAPE    HA18672   4.199   1.850   6.293  0.2832 -0.3865 -0.8628
  166SAPE    HB18673   4.089   1.770   6.404  0.4403  0.8004  0.7744
  166SAPE    C218674   4.296   1.781   6.482  0.5829 -0.2864 -0.0648
  166SAPE    HS18675   4.395   1.772   6.432  0.2684  1.8461 -1.2068
  166SAPE   O2118676   4.264   1.687   6.580  0.1646 -0.2731 -0.2117
  166SAPE   C2118677   4.369   1.629   6.626  0.1487  0.3876 -0.5482
  166SAPE   O2218678   4.484   1.634   6.587  0.8747  0.3626 -0.9674
  166SAPE   C2218679   4.322   1.560   6.756 -0.2473 -0.4033  0.7563
  166SAPE   H2R18680   4.262   1.629   6.818  1.4097  0.8256  1.0810
  166SAPE   H2S18681   4.264   1.475   6.716 -1.1366  0.4253  0.2394
  166SAPE    C318682   4.284   1.924   6.550 -0.1306  0.5520 -0.3022
  166SAPE    HX18683   4.176   1.932   6.574 -0.2979  0.7525 -1.1069
  166SAPE    HY18684   4.296   2.007   6.477 -1.9224 -1.1113 -2.6439
  166SAPE   O3118685   4.357   1.930   6.669  0.2624  0.4827 -0.2725
  166SAPE   C3118686   4.479   1.977   6.655  0.5556 -0.9385 -0.3799
  166SAPE   O3218687   4.515   2.039   6.555  0.1021  0.2144 -0.4149
  166SAPE   C3218688   4.542   1.998   6.785 -0.7482  0.2159  0.9108
  166SAPE   H2X18689   4.526   2.106   6.807  0.0525  0.5354 -0.0266
  166SAPE   H2Y18690   4.650   2.001   6.759 -1.0062 -0.6937 -0.3560
  166SAPE   C2318691   4.442   1.522   6.843 -0.0448  0.3628 -0.2494
  166SAPE   H3R18692   4.470   1.617   6.894 -2.4228  2.5994 -2.7635
  166SAPE   H3S18693   4.526   1.496   6.775 -1.8996  0.3102 -2.6466
  166SAPE   C2418694   4.412   1.406   6.941  0.4967 -0.2792 -0.0610
  166SAPE   H4R18695   4.391   1.322   6.872  1.1880  0.1636 -0.8284
  166SAPE   H4S18696   4.316   1.416   6.996  1.3122 -1.4218  1.6399
  166SAPE   C2518697   4.521   1.357   7.039  0.3865 -0.9730 -0.0623
  166SAPE   H5R18698   4.616   1.325   6.993  0.8936 -0.0224  0.2968
  166SAPE   C2618699   4.513   1.349   7.172  0.0302  0.2999 -0.5561
  166SAPE   H6R18700   4.605   1.310   7.218  0.8754  1.1397 -1.4732
  166SAPE   C2718701   4.401   1.390   7.266 -0.9353  0.3727 -0.5523
  166SAPE   H7R18702   4.333   1.303   7.277 -0.7595  0.2028 -0.8040
  166SAPE   H7S18703   4.332   1.461   7.215 -0.3316  0.6839 -0.9540
  166SAPE   C2818704   4.452   1.450   7.400  0.8131 -0.1498  0.4131
  166SAPE   H8R18705   4.537   1.519   7.392  1.6936 -1.2253  0.3218
  166SAPE   C2918706   4.412   1.415   7.522 -0.3438 -0.2790  0.9116
  166SAPE   H9R18707   4.466   1.467   7.603  2.7044  2.0417 -2.3447
  166SAPE  C21018708   4.308   1.308   7.565  0.6488 -0.0356 -0.5499
  166SAPE  H10R18709   4.260   1.250   7.484 -4.6439  1.5214  1.0931
  166SAPE  H10S18710   4.217   1.356   7.607  0.4134 -0.6186 -0.3860
  166SAPE  C21118711   4.375   1.216   7.661 -0.3440 -0.5115 -0.5195
  166SAPE  H11R18712   4.437   1.136   7.618  0.9196  0.7661 -1.1579
  166SAPE  C21218713   4.353   1.204   7.793 -0.1831 -0.3335  0.0140
  166SAPE  H12R18714   4.410   1.131   7.852 -0.2512 -0.8903 -0.6017
  166SAPE  C21318715   4.252   1.276   7.882  0.4486  0.0697 -0.1695
  166SAPE  H13R18716   4.176   1.325   7.817 -1.1482 -2.3154 -0.2135
  166SAPE  H13S18717   4.311   1.346   7.945 -0.2631  0.4698  0.0617
  166SAPE  C21418718   4.196   1.165   7.968  0.1849 -0.2709 -0.1155
  166SAPE  H14R18719   4.118   1.114   7.910  1.4555  0.5574 -2.7339
  166SAPE  C21518720   4.244   1.120   8.086  0.0328 -0.4722 -0.1690
  166SAPE  H15R18721   4.182   1.040   8.128 -0.5283 -0.9699 -1.8422
  166SAPE  C21618722   4.351   1.185   8.166 -0.6916  0.0610  1.0009
  166SAPE  H16R18723   4.374   1.285   8.125 -2.0779 -0.7467 -2.0386
  166SAPE  H16S18724   4.443   1.122   8.169 -0.6068  0.1686  0.6926
  166SAPE  C21718725   4.318   1.177   8.318 -0.5815  0.0359 -0.4609
  166SAPE  H17R18726   4.312   1.071   8.349  0.5332 -0.8387 -2.9556
  166SAPE  H17S18727   4.220   1.227   8.332 -0.6766  0.2704 -1.7918
  166SAPE  C21818728   4.419   1.247   8.413  0.2200 -0.3428  0.1057
  166SAPE  H18R18729   4.413   1.201   8.514 -2.1182 -1.1680 -0.3482
  166SAPE  H18S18730   4.393   1.354   8.427  0.4685 -0.3808  0.9225
  166SAPE  C21918731   4.567   1.231   8.376 -0.2611 -0.3774 -0.3205
  166SAPE  H19R18732   4.577   1.260   8.270  0.8559 -0.5992 -0.2845
  166SAPE  H19S18733   4.585   1.121   8.370  1.4833 -0.0993 -0.7508
  166SAPE  C22018734   4.666   1.312   8.453 -0.4577 -0.0831 -0.3146
  166SAPE  H20R18735   4.763   1.282   8.407  0.6850  3.5975 -0.6078
  166SAPE  H20S18736   4.658   1.289   8.561 -0.1656  2.1611  0.2279
  166SAPE  H20T18737   4.649   1.422   8.455 -0.2597 -0.0575 -0.0338
  166SAPE   C3318738   4.497   1.915   6.904  0.0138  0.1337 -1.0653
  166SAPE   H3X18739   4.528   1.809   6.894 -0.2365  0.1075 -1.5960
  166SAPE   H3Y18740   4.387   1.905   6.918  0.0212  2.3752  1.4743
  166SAPE   C3418741   4.562   1.971   7.037  0.1570 -0.5807 -0.2466
  166SAPE   H4X18742   4.504   2.062   7.062 -2.1708 -1.9667 -0.2931
  166SAPE   H4Y18743   4.670   1.982   7.013  0.1287 -1.6644 -0.9542
  166SAPE   C3518744   4.531   1.870   7.156 -0.0836 -0.0240 -0.3114
  166SAPE   H5X18745   4.577   1.770   7.143  1.9747  1.0396 -1.5976
  166SAPE   H5Y18746   4.421   1.874   7.172  0.1266  2.1250  0.9935
  166SAPE   C3618747   4.593   1.919   7.290  0.1135 -0.1560  0.2272
  166SAPE   H6X18748   4.544   2.016   7.311 -3.2773 -1.9382  1.2756
  166SAPE   H6Y18749   4.704   1.927   7.287  0.0513  0.9622  0.4217
  166SAPE   C3718750   4.553   1.829   7.407 -0.7347  1.0037 -0.6772
  166SAPE   H7X18751   4.594   1.728   7.387 -4.4449 -0.7354 -0.4614
  166SAPE   H7Y18752   4.443   1.817   7.420 -1.0205  2.0848 -1.8441
  166SAPE   C3818753   4.598   1.890   7.537  0.0960  0.0255  0.4802
  166SAPE   H8X18754   4.536   1.981   7.551  2.2092  1.7765 -0.7921
  166SAPE   H8Y18755   4.704   1.923   7.543 -0.2784  1.4628 -0.2419
  166SAPE   C3918756   4.572   1.796   7.659 -0.4899  0.2228 -0.5061
  166SAPE   H9X18757   4.520   1.708   7.613  1.2500 -1.4095  0.5065
  166SAPE   H9Y18758   4.511   1.856   7.730  1.1474  0.7078  0.5344
  166SAPE  C31018759   4.698   1.729   7.719 -0.2759  0.2350  0.2122
  166SAPE  H10X18760   4.759   1.807   7.772  2.1268 -1.7420  0.5436
  166SAPE  H10Y18761   4.765   1.695   7.637 -1.2749 -1.0474 -0.0970
  166SAPE  C31118762   4.686   1.618   7.818  0.1782  0.6846  0.0237
  166SAPE  H11X18763   4.785   1.582   7.852 -0.9711 -1.1973  1.6759
  166SAPE  H11Y18764   4.638   1.534   7.763  2.7096 -1.6830  1.1873
  166SAPE  C31218765   4.608   1.660   7.942 -0.0531  0.5156 -0.1557
  166SAPE  H12X18766   4.502   1.677   7.912  0.0134  1.5877  0.1728
  166SAPE  H12Y18767   4.658   1.748   7.987 -0.5108  0.3635  0.6762
  166SAPE  C31318768   4.598   1.549   8.049  0.4331  0.3620 -0.5255
  166SAPE  H13X18769   4.697   1.525   8.094  0.8668  0.4749 -1.3910
  166SAPE  H13Y18770   4.555   1.461   7.998 -0.9024  0.3767  0.5416
  166SAPE  C31418771   4.481   1.579   8.152  0.2882  0.6670  0.5147
  166SAPE  H14X18772   4.446   1.488   8.207  2.1857 -0.1085  0.5238
  166SAPE  H14Y18773   4.394   1.610   8.090  0.2461 -2.5028 -1.2268
  166SAPE  C31518774   4.527   1.666   8.269  1.0917 -0.1487  0.0427
  166SAPE  H15X18775   4.549   1.772   8.245 -1.1735  1.0265  2.6474
  166SAPE  H15Y18776   4.626   1.633   8.307  1.1574 -0.0382 -0.0339
  166SAPE  C31618777   4.417   1.666   8.371  0.3458 -0.1580 -0.1286
  166SAPE  H16X18778   4.368   1.567   8.382  2.2483 -1.4289 -2.2193
  166SAPE  H16Y18779   4.344   1.734   8.323 -0.3600 -2.5161 -2.6669
  166SAPE  C31718780   4.455   1.700   8.518 -0.7116  0.6042 -0.4527
  166SAPE  H17X18781   4.497   1.802   8.531  1.1420 -0.0394 -1.0915
  166SAPE  H17Y18782   4.544   1.643   8.553 -0.5969  0.4050 -1.0686
  166SAPE  C31818783   4.349   1.670   8.631  0.0505 -0.5792  0.1197
  166SAPE  H18X18784   4.334   1.569   8.675 -3.1630 -0.0018  0.6143
  166SAPE  H18Y18785   4.254   1.713   8.593  0.8815  1.8388  0.5907
  166SAPE  H18Z18786   4.362   1.739   8.717  0.1437  2.4806 -2.1793
  167SAPE     N18787   4.934   0.701   6.368  0.7544 -0.6755  0.2283
  167SAPE   HN118788   4.891   0.698   6.273 -0.7091 -0.3113  0.8582
  167SAPE   HN218789   5.006   0.626   6.375  1.7859  0.1218 -1.2710
  167SAPE   HN318790   4.851   0.677   6.426  1.4962  0.0342  1.6486
  167SAPE   C1218791   4.970   0.829   6.427  0.1263 -0.2615  0.1165
  167SAPE  H12A18792   5.046   0.873   6.359  0.8188 -0.3618  0.8035
  167SAPE  H12B18793   5.030   0.809   6.518  1.7278 -3.5934 -1.4774
  167SAPE   C1118794   4.852   0.916   6.461  0.2260 -0.2570 -0.5187
  167SAPE  H11A18795   4.894   1.005   6.513  0.2874 -1.0087  0.7607
  167SAPE  H11B18796   4.781   0.863   6.528 -0.2499 -1.1621 -1.7192
  167SAPE     P18797   4.655   1.037   6.344  0.0212 -0.0556 -0.0858
  167SAPE   O1318798   4.641   1.120   6.224 -0.5623  0.6129 -0.8709
  167SAPE   O1418799   4.555   0.928   6.348  0.2533 -0.7935  0.2333
  167SAPE   O1218800   4.796   0.979   6.344 -0.4086 -0.0322  0.8042
  167SAPE   O1118801   4.648   1.121   6.469  0.5360  0.1798  0.2164
  167SAPE    C118802   4.711   1.243   6.492 -0.1428  0.5513  0.5689
  167SAPE    HA18803   4.799   1.271   6.430 -0.8715  3.2723  0.6046
  167SAPE    HB18804   4.636   1.323   6.477  1.3734  1.4269 -4.1313
  167SAPE    C218805   4.763   1.248   6.634 -0.1178 -0.2590 -0.7181
  167SAPE    HS18806   4.855   1.185   6.638 -0.3580 -0.6099 -0.7684
  167SAPE   O2118807   4.661   1.199   6.726 -0.0757 -0.4066 -0.7810
  167SAPE   C2118808   4.671   1.074   6.763 -0.1491  0.1166 -0.3402
  167SAPE   O2218809   4.770   1.002   6.755 -0.0716 -0.5063  0.1304
  167SAPE   C2218810   4.531   1.028   6.804 -0.3231  0.4991  0.2801
  167SAPE   H2R18811   4.475   1.109   6.856  0.0808  0.5137  0.6994
  167SAPE   H2S18812   4.483   0.995   6.710  0.2795 -0.8709  0.4305
  167SAPE    C318813   4.805   1.389   6.682  0.3818 -0.5306 -0.3690
  167SAPE    HX18814   4.712   1.448   6.671  1.7016  1.6272 -0.7393
  167SAPE    HY18815   4.886   1.424   6.614 -0.5842 -0.6685 -1.6429
  167SAPE   O3118816   4.852   1.388   6.819  0.1882 -0.4126  0.4429
  167SAPE   C3118817   4.825   1.503   6.888  1.4029  0.3533 -0.2689
  167SAPE   O3218818   4.760   1.594   6.843  0.4186  0.4694  0.3391
  167SAPE   C3218819   4.900   1.505   7.026 -0.1671  0.1817 -0.2535
  167SAPE   H2X18820   5.002   1.530   6.991 -0.5856  0.9087 -1.0019
  167SAPE   H2Y18821   4.891   1.407   7.076 -2.4852  1.2249  1.5738
  167SAPE   C2318822   4.529   0.910   6.905 -0.2340  0.3152 -0.1637
  167SAPE   H3R18823   4.565   0.941   7.006 -0.4529 -1.3300  0.4457
  167SAPE   H3S18824   4.575   0.820   6.860 -1.0933  0.8016 -2.1105
  167SAPE   C2418825   4.379   0.872   6.939  0.4493  0.3668 -0.2429
  167SAPE   H4R18826   4.313   0.877   6.850 -1.0241 -1.2621  0.6939
  167SAPE   H4S18827   4.334   0.954   6.999 -0.7731  0.4664 -1.2523
  167SAPE   C2518828   4.360   0.748   7.011  0.7839  0.3855  0.0529
  167SAPE   H5R18829   4.388   0.659   6.953  0.1465 -0.1524  0.5581
  167SAPE   C2618830   4.306   0.727   7.136  0.0273  0.1733  0.1805
  167SAPE   H6R18831   4.292   0.623   7.168  0.4295 -0.2729 -1.0159
  167SAPE   C2718832   4.249   0.838   7.222 -0.2467  0.4736  0.6864
  167SAPE   H7R18833   4.182   0.783   7.292 -1.7851 -0.8193 -1.6541
  167SAPE   H7S18834   4.167   0.880   7.160  1.4835 -1.6104 -3.3247
  167SAPE   C2818835   4.344   0.942   7.270  0.4229  0.7014 -0.0883
  167SAPE   H8R18836   4.369   1.028   7.206  1.5192 -1.1472 -2.3162
  167SAPE   C2918837   4.400   0.943   7.394  0.1159 -0.1630  0.0679
  167SAPE   H9R18838   4.457   1.033   7.424  0.4507 -0.6557  0.9306
  167SAPE  C21018839   4.380   0.837   7.508 -0.1858 -0.7522 -0.1755
  167SAPE  H10R18840   4.478   0.823   7.559 -0.5866 -0.6931  0.6331
  167SAPE  H10S18841   4.346   0.737   7.474 -1.2068  0.0465 -1.6100
  167SAPE  C21118842   4.268   0.874   7.605  0.2914  0.5372 -0.2491
  167SAPE  H11R18843   4.199   0.951   7.568  0.3084  0.1268 -1.1614
  167SAPE  C21218844   4.224   0.811   7.715 -0.3768 -0.1961  0.1923
  167SAPE  H12R18845   4.135   0.848   7.769 -0.0919 -2.4853  2.4663
  167SAPE  C21318846   4.297   0.696   7.772  0.2961  0.4298  0.1415
  167SAPE  H13R18847   4.314   0.618   7.695 -2.0409 -0.2731  0.2350
  167SAPE  H13S18848   4.229   0.629   7.830 -0.9920  1.0185 -0.6306
  167SAPE  C21418849   4.424   0.727   7.852 -0.2943  0.2852  0.7484
  167SAPE  H14R18850   4.514   0.754   7.796 -0.5172  0.1652  0.3241
  167SAPE  C21518851   4.434   0.713   7.985  0.1940  0.5907  0.2503
  167SAPE  H15R18852   4.527   0.743   8.036  0.5385 -2.7458  1.8471
  167SAPE  C21618853   4.323   0.668   8.080 -0.0639  1.1276 -0.5567
  167SAPE  H16R18854   4.226   0.689   8.030 -0.5704 -0.5762 -0.3490
  167SAPE  H16S18855   4.322   0.727   8.174 -2.7378 -0.2058  0.3480
  167SAPE  C21718856   4.312   0.520   8.120  0.0475  0.0518 -0.0225
  167SAPE  H17R18857   4.407   0.483   8.163  0.0333  1.3091  1.1195
  167SAPE  H17S18858   4.300   0.457   8.029  3.2015  2.1542 -2.0805
  167SAPE  C21818859   4.198   0.483   8.222  0.0151 -0.0556  0.0098
  167SAPE  H18R18860   4.210   0.377   8.252 -0.4780 -1.1837 -3.3529
  167SAPE  H18S18861   4.100   0.504   8.173 -0.2169  1.8060  1.1690
  167SAPE  C21918862   4.206   0.568   8.349  0.7076 -0.1789  0.6309
  167SAPE  H19R18863   4.177   0.673   8.326 -0.2193 -0.5247  0.1761
  167SAPE  H19S18864   4.309   0.575   8.392  0.6598 -0.6830  0.8344
  167SAPE  C22018865   4.106   0.531   8.458 -0.0198  0.4391  0.4205
  167SAPE  H20R18866   4.107   0.420   8.469  0.3838  0.5084  1.1472
  167SAPE  H20S18867   4.006   0.571   8.431 -0.3056  0.4175  1.3966
  167SAPE  H20T18868   4.130   0.573   8.558 -0.2483  2.5066 -0.3519
  167SAPE   C3318869   4.832   1.613   7.112  0.2275 -0.5672 -0.4011
  167SAPE   H3X18870   4.725   1.585   7.122 -0.0891  0.6616 -0.2492
  167SAPE   H3Y18871   4.834   1.706   7.052 -1.0141 -0.0611  0.3115
  167SAPE   C3418872   4.898   1.640   7.245  0.0282 -0.3809  0.5731
  167SAPE   H4X18873   4.859   1.738   7.280  0.2102  0.7604 -2.1738
  167SAPE   H4Y18874   5.005   1.648   7.217 -0.0245 -1.5070 -0.0167
  167SAPE   C3518875   4.892   1.530   7.351  0.3833 -0.0738 -0.1304
  167SAPE   H5X18876   4.917   1.435   7.299  0.7945  0.6525 -1.2738
  167SAPE   H5Y18877   4.788   1.535   7.388  0.6337  0.7973  0.5024
  167SAPE   C3618878   5.000   1.556   7.459  0.2979 -0.2188  0.5991
  167SAPE   H6X18879   4.995   1.656   7.506 -2.1120  0.2766 -0.5930
  167SAPE   H6Y18880   5.102   1.540   7.416 -0.3258  0.2696 -1.1606
  167SAPE   C3718881   4.976   1.472   7.576  0.3145  0.3623 -0.2323
  167SAPE   H7X18882   4.996   1.372   7.532  0.6930  0.1733  0.3500
  167SAPE   H7Y18883   4.872   1.471   7.615 -0.6462 -3.3557 -2.3760
  167SAPE   C3818884   5.076   1.504   7.691 -0.2218  0.1997 -0.3259
  167SAPE   H8X18885   5.055   1.612   7.709 -2.0852  0.0304 -1.2741
  167SAPE   H8Y18886   5.178   1.496   7.649  0.4902 -0.7491  1.4688
  167SAPE   C3918887   5.057   1.423   7.817 -0.0695 -0.0103  0.2271
  167SAPE   H9X18888   5.074   1.317   7.789 -3.7362 -0.8199  0.6179
  167SAPE   H9Y18889   4.951   1.428   7.851  0.6211  2.3408  2.3835
  167SAPE  C31018890   5.138   1.458   7.947 -0.1792 -0.0666 -0.0603
  167SAPE  H10X18891   5.118   1.564   7.977 -0.4811 -0.3030  0.6140
  167SAPE  H10Y18892   5.246   1.438   7.935 -0.3425 -1.1674  0.2367
  167SAPE  C31118893   5.091   1.387   8.077  0.2194 -0.6338 -0.4909
  167SAPE  H11X18894   5.087   1.282   8.043 -0.6029 -0.0127 -2.4481
  167SAPE  H11Y18895   4.992   1.426   8.109  1.3840  1.2506  1.0864
  167SAPE  C31218896   5.183   1.417   8.198  0.1875 -0.3058  0.1839
  167SAPE  H12X18897   5.174   1.523   8.230 -1.2335 -0.6005  0.8399
  167SAPE  H12Y18898   5.289   1.402   8.166  0.0115 -0.8884 -0.1447
  167SAPE  C31318899   5.152   1.330   8.319  0.0547 -0.0302 -0.0715
  167SAPE  H13X18900   5.191   1.230   8.290 -0.4466  0.3260 -2.0841
  167SAPE  H13Y18901   5.043   1.313   8.328  0.2496 -0.4476  2.1008
  167SAPE  C31418902   5.208   1.380   8.452  0.2548  0.1756  0.0150
  167SAPE  H14X18903   5.170   1.322   8.538  1.5624  1.0733  1.2451
  167SAPE  H14Y18904   5.175   1.486   8.458  0.4179  0.2656 -0.6399
  167SAPE  C31518905   5.365   1.383   8.462  0.1369 -0.0206 -0.8170
  167SAPE  H15X18906   5.389   1.435   8.557  0.1049  1.0323 -1.3757
  167SAPE  H15Y18907   5.403   1.425   8.367 -0.2811  2.1981 -0.0699
  167SAPE  C31618908   5.422   1.240   8.486 -0.0095 -0.1747  0.5224
  167SAPE  H16X18909   5.385   1.168   8.409 -4.0317  0.5122  1.5545
  167SAPE  H16Y18910   5.379   1.205   8.582 -0.3912 -1.4808 -0.1028
  167SAPE  C31718911   5.571   1.245   8.501 -0.2134  0.7807  0.3962
  167SAPE  H17X18912   5.609   1.345   8.530  0.1108  0.8684 -0.3224
  167SAPE  H17Y18913   5.630   1.229   8.409 -0.0383 -2.6610  0.9719
  167SAPE  C31818914   5.628   1.144   8.599 -0.6232  0.5158  0.9036
  167SAPE  H18X18915   5.562   1.128   8.687 -1.4140  2.3358  0.6847
  167SAPE  H18Y18916   5.731   1.174   8.627 -0.9418  1.2481  1.3141
  167SAPE  H18Z18917   5.636   1.045   8.550 -0.0641  1.4503 -0.9555
  168SAPE     N18918   6.169   2.697   6.207  0.6968  0.1087  0.4989
  168SAPE   HN118919   6.266   2.664   6.190  0.0390 -0.9936 -1.5299
  168SAPE   HN218920   6.105   2.632   6.157  1.1123  1.8088 -2.5025
  168SAPE   HN318921   6.155   2.797   6.179  0.0925  0.6473  2.5747
  168SAPE   C1218922   6.148   2.689   6.360 -0.5794  1.0656 -0.4426
  168SAPE  H12A18923   6.045   2.717   6.391 -1.6499 -2.8455  0.1741
  168SAPE  H12B18924   6.228   2.755   6.400 -0.8038  1.1151 -0.0660
  168SAPE   C1118925   6.171   2.539   6.398 -0.3922  0.2896  0.1017
  168SAPE  H11A18926   6.094   2.485   6.339  0.3629 -0.4070 -0.2682
  168SAPE  H11B18927   6.148   2.531   6.507 -1.6302  1.7874 -0.0210
  168SAPE     P18928   6.407   2.447   6.467  0.0867 -0.0136  0.0300
  168SAPE   O1318929   6.356   2.317   6.520  0.5788 -0.5201 -0.3064
  168SAPE   O1418930   6.541   2.430   6.401 -0.2217 -0.7830  0.7047
  168SAPE   O1218931   6.304   2.502   6.365 -0.7263  0.2387 -0.4846
  168SAPE   O1118932   6.406   2.558   6.578 -0.0357 -0.0059 -1.0910
  168SAPE    C118933   6.511   2.576   6.676  0.3847  0.3230  0.1267
  168SAPE    HA18934   6.605   2.606   6.625  0.1948  1.0374  0.1950
  168SAPE    HB18935   6.479   2.657   6.745  0.9813 -0.0183  0.8205
  168SAPE    C218936   6.535   2.453   6.776 -0.1690  0.3633 -0.2869
  168SAPE    HS18937   6.549   2.368   6.705  1.6520 -0.5295  1.0460
  168SAPE   O2118938   6.426   2.440   6.865  0.6933  0.0157 -0.2985
  168SAPE   C2118939   6.411   2.317   6.905  0.6110  0.2710 -0.3130
  168SAPE   O2218940   6.462   2.218   6.859 -0.3373  0.7655 -0.4758
  168SAPE   C2218941   6.313   2.323   7.021  0.0210  0.3175 -0.1878
  168SAPE   H2R18942   6.287   2.429   7.041 -0.9321  0.1438 -0.4658
  168SAPE   H2S18943   6.222   2.273   6.981  0.0101 -0.9664  1.3354
  168SAPE    C318944   6.668   2.471   6.858  0.1313 -0.5181 -0.4668
  168SAPE    HX18945   6.660   2.553   6.932  1.5165 -0.7227 -0.0591
  168SAPE    HY18946   6.745   2.513   6.789  0.8437 -0.4463  0.3574
  168SAPE   O3118947   6.710   2.351   6.934 -0.0961 -0.9744  0.0532
  168SAPE   C3118948   6.775   2.267   6.869  0.4206  0.3168 -0.3199
  168SAPE   O3218949   6.806   2.267   6.752 -0.4903  0.1786 -0.1558
  168SAPE   C3218950   6.827   2.160   6.975  0.0967  1.0576  0.6386
  168SAPE   H2X18951   6.880   2.219   7.053  1.4820  0.5980  0.0769
  168SAPE   H2Y18952   6.896   2.091   6.923 -0.5032  1.0861 -0.2148
  168SAPE   C2318953   6.361   2.259   7.147 -0.2480 -0.2052 -0.2449
  168SAPE   H3R18954   6.406   2.159   7.126  0.5920  0.2477 -0.6325
  168SAPE   H3S18955   6.271   2.237   7.210 -1.0666 -1.2337 -1.7212
  168SAPE   C2418956   6.470   2.352   7.214  0.2074  0.4429  0.1055
  168SAPE   H4R18957   6.428   2.453   7.237 -0.4777  0.1600  0.1192
  168SAPE   H4S18958   6.548   2.376   7.138 -0.8765  4.4317 -0.0123
  168SAPE   C2518959   6.518   2.287   7.336 -0.4487  0.2195 -0.0328
  168SAPE   H5R18960   6.608   2.226   7.317 -0.9419 -0.0413 -1.7997
  168SAPE   C2618961   6.463   2.289   7.459  0.6978 -1.1794 -0.3308
  168SAPE   H6R18962   6.523   2.243   7.539  2.5059  0.0184 -0.9619
  168SAPE   C2718963   6.328   2.347   7.490 -0.1976 -0.5397 -0.4124
  168SAPE   H7R18964   6.273   2.286   7.564  1.3897  0.0250  1.3137
  168SAPE   H7S18965   6.268   2.342   7.397  1.5765 -0.1906 -1.6237
  168SAPE   C2818966   6.328   2.493   7.531 -0.9715 -0.6140 -0.3458
  168SAPE   H8R18967   6.406   2.552   7.481 -2.2301 -0.8247 -2.6867
  168SAPE   C2918968   6.252   2.550   7.629 -0.5535  0.5125 -0.8141
  168SAPE   H9R18969   6.287   2.650   7.658  0.2945 -0.2008  0.7306
  168SAPE  C21018970   6.141   2.495   7.720  0.3822 -0.2086  0.2191
  168SAPE  H10R18971   6.128   2.575   7.796  0.7539  0.0379  0.0297
  168SAPE  H10S18972   6.173   2.409   7.782 -0.8428  0.4077  1.7653
  168SAPE  C21118973   6.017   2.460   7.644  0.0280 -0.8585  0.2466
  168SAPE  H11R18974   6.014   2.464   7.534 -2.2009  1.0283  0.3090
  168SAPE  C21218975   5.905   2.409   7.710  0.0660 -0.7781 -0.3057
  168SAPE  H12R18976   5.819   2.394   7.642  1.7013 -0.3308 -2.6010
  168SAPE  C21318977   5.902   2.402   7.862  0.1014 -0.5577  0.6347
  168SAPE  H13R18978   5.797   2.382   7.892 -0.9320 -0.1184 -2.3244
  168SAPE  H13S18979   5.921   2.507   7.892  0.6413 -0.8670  1.3990
  168SAPE  C21418980   5.994   2.308   7.937  0.5763 -0.4555  0.6430
  168SAPE  H14R18981   5.975   2.203   7.911 -0.3375  0.0247 -0.7826
  168SAPE  C21518982   6.076   2.350   8.037  0.2539 -0.2306 -0.1512
  168SAPE  H15R18983   6.141   2.279   8.089  1.5232  1.2872  0.4141
  168SAPE  C21618984   6.098   2.498   8.082  0.0121  1.2015  1.0114
  168SAPE  H16R18985   6.076   2.570   8.001 -2.1252 -0.0471  0.4199
  168SAPE  H16S18986   6.203   2.507   8.118  0.3506 -2.1088  1.1664
  168SAPE  C21718987   5.994   2.515   8.192 -0.6250 -0.0193 -0.5379
  168SAPE  H17R18988   6.015   2.465   8.289 -0.7355 -2.0182 -1.4850
  168SAPE  H17S18989   5.896   2.470   8.165 -0.6840  0.0141 -0.3753
  168SAPE  C21818990   5.961   2.665   8.213 -0.6259 -0.3265 -0.3609
  168SAPE  H18R18991   5.946   2.709   8.112 -1.0000 -0.8903 -0.5615
  168SAPE  H18S18992   6.050   2.705   8.265 -0.1917 -1.9481  0.2208
  168SAPE  C21918993   5.833   2.693   8.295 -0.8763  0.1873 -0.4580
  168SAPE  H19R18994   5.825   2.802   8.316 -1.2459  0.7174 -3.0782
  168SAPE  H19S18995   5.843   2.644   8.394 -1.6040 -0.5026 -0.7208
  168SAPE  C22018996   5.700   2.664   8.217 -1.3054  0.4466 -0.5083
  168SAPE  H20R18997   5.689   2.555   8.198 -0.9339  0.1043  1.0990
  168SAPE  H20S18998   5.692   2.725   8.124  1.1238 -1.1057 -1.8504
  168SAPE  H20T18999   5.612   2.689   8.281 -1.8421 -2.4987  0.0752
  168SAPE   C3319000   6.701   2.076   7.022  0.5237  0.1215 -0.8317
  168SAPE   H3X19001   6.641   2.038   6.936  0.4607 -1.4758 -0.1181
  168SAPE   H3Y19002   6.641   2.140   7.090  0.1309 -0.3878 -0.6942
  168SAPE   C3419003   6.741   1.949   7.100 -0.3481  0.3107 -0.1977
  168SAPE   H4X19004   6.816   1.890   7.043  0.6225  0.3123  1.0284
  168SAPE   H4Y19005   6.655   1.881   7.112  1.1850 -1.9702 -1.3806
  168SAPE   C3519006   6.771   1.972   7.253 -0.6140  0.2430  0.9310
  168SAPE   H5X19007   6.684   2.022   7.302 -0.3585  4.1270 -2.0942
  168SAPE   H5Y19008   6.861   2.037   7.256 -0.5867  0.3270 -0.8203
  168SAPE   C3619009   6.812   1.849   7.329 -0.1807 -0.0182 -0.4752
  168SAPE   H6X19010   6.875   1.786   7.263 -1.1979  0.1992 -1.6855
  168SAPE   H6Y19011   6.722   1.787   7.347 -0.7406  1.3366  1.8307
  168SAPE   C3719012   6.883   1.859   7.464  0.1776  0.0711  0.0482
  168SAPE   H7X19013   6.985   1.903   7.462  0.9021 -1.5962 -1.2606
  168SAPE   H7Y19014   6.880   1.759   7.512 -1.2391  0.6688  1.3152
  168SAPE   C3819015   6.797   1.942   7.563 -0.4703  0.3627  0.2602
  168SAPE   H8X19016   6.698   1.892   7.574 -0.4753  0.6801  1.9616
  168SAPE   H8Y19017   6.778   2.043   7.522 -3.0619 -1.1217 -2.6040
  168SAPE   C3919018   6.866   1.959   7.692  0.1372  0.6944 -0.2539
  168SAPE   H9X19019   6.952   2.030   7.687  1.1921 -0.2570  2.6152
  168SAPE   H9Y19020   6.905   1.857   7.709  1.4576  1.3891  1.1907
  168SAPE  C31019021   6.777   1.999   7.810 -0.1091 -0.2548  0.4128
  168SAPE  H10X19022   6.691   1.929   7.810  0.7293 -1.3214  1.4525
  168SAPE  H10Y19023   6.734   2.102   7.803  0.7206  0.1309  0.8677
  168SAPE  C31119024   6.850   1.990   7.946 -0.1335 -0.5811  0.6453
  168SAPE  H11X19025   6.863   1.886   7.983 -1.4180 -0.8194  0.4640
  168SAPE  H11Y19026   6.785   2.037   8.022 -1.2697  0.7604 -1.0747
  168SAPE  C31219027   6.988   2.066   7.957  0.3964  0.1028  0.5029
  168SAPE  H12X19028   6.977   2.175   7.938 -2.7120 -0.4100 -1.2708
  168SAPE  H12Y19029   7.049   2.007   7.885 -1.7272 -1.6348  0.0152
  168SAPE  C31319030   7.050   2.056   8.096 -0.2300  0.2119 -0.2757
  168SAPE  H13X19031   7.001   1.978   8.159  0.8769 -0.1316  0.1704
  168SAPE  H13Y19032   7.053   2.148   8.159  0.1872 -0.9529  1.4610
  168SAPE  C31419033   7.189   2.012   8.079  0.0443 -0.4279 -0.3715
  168SAPE  H14X19034   7.234   2.062   7.991 -0.7251  2.4953  0.7862
  168SAPE  H14Y19035   7.183   1.905   8.049 -0.1608 -0.3956 -0.4462
  168SAPE  C31519036   7.294   2.029   8.195  0.5776  0.3022 -0.2410
  168SAPE  H15X19037   7.317   2.135   8.216  5.2774 -0.5963  0.1118
  168SAPE  H15Y19038   7.389   1.986   8.158  0.7219  1.9449 -1.9361
  168SAPE  C31619039   7.253   1.955   8.324  0.4507  0.4378 -0.5468
  168SAPE  H16X19040   7.258   1.848   8.294  1.6343  0.7689 -1.6303
  168SAPE  H16Y19041   7.148   1.976   8.354  0.2547 -0.8189 -0.3005
  168SAPE  C31719042   7.335   1.994   8.446 -0.2012 -0.1394  0.4143
  168SAPE  H17X19043   7.325   1.913   8.521 -1.5482  0.3205  0.7445
  168SAPE  H17Y19044   7.287   2.086   8.484  0.6562  0.6815 -0.4405
  168SAPE  C31819045   7.483   2.013   8.418  0.0671  0.1889  1.0762
  168SAPE  H18X19046   7.550   2.038   8.503  1.3139 -0.8557  0.4360
  168SAPE  H18Y19047   7.497   2.097   8.346  1.0142 -2.4921 -2.0822
  168SAPE  H18Z19048   7.533   1.928   8.366  0.6645  0.9118  0.4375
  169SAPE     N19049   6.356   5.605   6.469 -1.0043 -0.4775  0.1591
  169SAPE   HN119050   6.426   5.562   6.405 -1.1972  0.2036 -0.5386
  169SAPE   HN219051   6.263   5.606   6.421 -1.7495  1.6816  1.4746
  169SAPE   HN319052   6.392   5.703   6.471  0.0248 -0.8606  0.7495
  169SAPE   C1219053   6.351   5.541   6.602 -0.4161 -0.1370 -0.4102
  169SAPE  H12A19054   6.261   5.575   6.658 -0.6733 -2.5633  0.8104
  169SAPE  H12B19055   6.441   5.559   6.664 -0.9431  1.1448  0.0099
  169SAPE   C1119056   6.338   5.391   6.581 -1.2021 -0.1894 -0.5178
  169SAPE  H11A19057   6.335   5.334   6.676 -0.5212  1.0894  0.3016
  169SAPE  H11B19058   6.434   5.361   6.533 -0.4988 -0.5493  1.0289
  169SAPE     P19059   6.076   5.348   6.529 -0.0055 -0.1485 -0.2577
  169SAPE   O1319060   6.038   5.482   6.576 -0.1614  0.1803  0.1871
  169SAPE   O1419061   5.995   5.299   6.416  0.3742  0.3412 -0.0850
  169SAPE   O1219062   6.230   5.350   6.490 -0.0383 -0.5729 -0.3405
  169SAPE   O1119063   6.066   5.240   6.644 -0.2378  0.1103  0.4894
  169SAPE    C119064   5.935   5.208   6.702 -0.6625  0.2612 -0.2958
  169SAPE    HA19065   5.898   5.302   6.748 -1.2823 -0.2713  0.3150
  169SAPE    HB19066   5.861   5.167   6.630 -0.8763 -1.0456  0.6351
  169SAPE    C219067   5.947   5.107   6.819  0.0872  0.2512 -0.1507
  169SAPE    HS19068   5.857   5.119   6.883 -0.0943  2.3167 -0.7358
  169SAPE   O2119069   6.068   5.133   6.891 -0.4277  0.0245  0.3175
  169SAPE   C2119070   6.071   5.253   6.961 -0.0281 -0.0693  0.1870
  169SAPE   O2219071   5.975   5.328   6.963  0.1066 -0.0465  0.4009
  169SAPE   C2219072   6.208   5.269   7.026 -0.1960 -0.6331 -0.0543
  169SAPE   H2R19073   6.242   5.180   7.084 -0.5858 -1.0666 -0.4796
  169SAPE   H2S19074   6.287   5.287   6.950 -1.4449 -0.9072 -1.4514
  169SAPE    C319075   5.948   4.959   6.773  0.3813  0.5124  0.2284
  169SAPE    HX19076   6.024   4.948   6.693  0.9487  0.4473  0.7728
  169SAPE    HY19077   5.855   4.947   6.713  0.1990  0.2009  0.5739
  169SAPE   O3119078   5.971   4.869   6.877  0.4714 -0.2774 -0.8356
  169SAPE   C3119079   6.097   4.821   6.892 -0.4838 -0.1366  0.0225
  169SAPE   O3219080   6.184   4.832   6.811  0.1341 -0.0628  0.2646
  169SAPE   C3219081   6.115   4.767   7.032 -1.2944 -0.5214  0.3466
  169SAPE   H2X19082   6.038   4.808   7.101 -1.3118 -1.5829  0.9815
  169SAPE   H2Y19083   6.211   4.817   7.058 -2.6251  3.1298 -1.0682
  169SAPE   C2319084   6.225   5.393   7.122  0.6233 -0.0347 -0.5174
  169SAPE   H3R19085   6.178   5.383   7.222  2.0327  2.1318  0.4552
  169SAPE   H3S19086   6.167   5.476   7.076 -0.0609 -1.2434 -1.9262
  169SAPE   C2419087   6.378   5.430   7.141 -0.8434  0.0148 -0.4799
  169SAPE   H4R19088   6.375   5.522   7.203  2.4487  0.5665 -0.9835
  169SAPE   H4S19089   6.426   5.469   7.049  1.7249 -1.2481  0.2603
  169SAPE   C2519090   6.444   5.313   7.213  0.3290 -0.0934  0.5800
  169SAPE   H5R19091   6.460   5.230   7.143 -1.2678 -0.9145  1.1499
  169SAPE   C2619092   6.450   5.292   7.347 -0.2061 -0.1414  1.0488
  169SAPE   H6R19093   6.493   5.198   7.384 -0.7350 -1.8460 -2.2476
  169SAPE   C2719094   6.409   5.396   7.452  0.1664  0.5487  0.0214
  169SAPE   H7R19095   6.416   5.498   7.410  0.5832  2.2645  3.8042
  169SAPE   H7S19096   6.481   5.410   7.535 -1.3538 -0.0115  1.5014
  169SAPE   C2819097   6.282   5.364   7.527  0.0269 -0.9807  0.0321
  169SAPE   H8R19098   6.205   5.314   7.466 -1.2042 -0.2703  0.9423
  169SAPE   C2919099   6.256   5.387   7.660  0.0633  0.7991  0.4627
  169SAPE   H9R19100   6.153   5.371   7.692  0.3655 -1.9606  0.2236
  169SAPE  C21019101   6.353   5.449   7.763  0.4046  0.1815 -0.6201
  169SAPE  H10R19102   6.285   5.485   7.843 -2.3980  1.7310 -3.5045
  169SAPE  H10S19103   6.409   5.534   7.718  3.0750 -2.8018 -3.4670
  169SAPE  C21119104   6.455   5.356   7.818  0.2257 -0.8739  0.3860
  169SAPE  H11R19105   6.529   5.337   7.738 -0.5441 -0.6835 -0.3905
  169SAPE  C21219106   6.473   5.314   7.940  0.0038 -0.0023  0.2743
  169SAPE  H12R19107   6.555   5.241   7.946  1.2369  1.0674 -2.0234
  169SAPE  C21319108   6.374   5.338   8.055  0.0141  0.2478 -0.9691
  169SAPE  H13R19109   6.372   5.253   8.126  1.1202 -0.2509 -1.5246
  169SAPE  H13S19110   6.270   5.333   8.016 -0.8079  1.3090  0.9355
  169SAPE  C21419111   6.383   5.461   8.140 -0.2098  0.6651  0.3914
  169SAPE  H14R19112   6.428   5.541   8.079 -2.9388  0.6114 -1.8869
  169SAPE  C21519113   6.326   5.505   8.249  0.2814 -0.5780 -0.9467
  169SAPE  H15R19114   6.364   5.599   8.292  1.7675 -2.4417  2.1907
  169SAPE  C21619115   6.224   5.425   8.325 -0.4280 -0.4778 -0.2173
  169SAPE  H16R19116   6.208   5.323   8.284  0.8478 -0.1673 -1.5585
  169SAPE  H16S19117   6.124   5.474   8.320 -0.9543 -1.5192 -0.0727
  169SAPE  C21719118   6.273   5.405   8.472  0.7446  0.1458  0.0760
  169SAPE  H17R19119   6.186   5.373   8.532 -2.0102  2.6350 -2.2661
  169SAPE  H17S19120   6.308   5.500   8.519  1.4062 -1.5453  3.2399
  169SAPE  C21819121   6.386   5.312   8.482 -0.1082 -1.4687  0.1468
  169SAPE  H18R19122   6.472   5.344   8.420 -0.5785  0.6001  0.4971
  169SAPE  H18S19123   6.345   5.220   8.435  1.4240 -1.1775 -1.9046
  169SAPE  C21919124   6.435   5.284   8.623  0.5752 -0.5162 -0.3407
  169SAPE  H19R19125   6.456   5.382   8.672  0.8738 -0.9644  0.4342
  169SAPE  H19S19126   6.526   5.221   8.618 -1.1857 -3.1452 -3.2324
  169SAPE  C22019127   6.326   5.207   8.695  0.3519  0.5737 -0.0950
  169SAPE  H20R19128   6.231   5.264   8.707  0.2904  0.3372  0.5728
  169SAPE  H20S19129   6.358   5.191   8.800  0.5847  1.6275  0.0095
  169SAPE  H20T19130   6.287   5.116   8.644 -2.6403  0.5004  2.0315
  169SAPE   C3319131   6.126   4.613   7.044 -0.0025 -0.1939  0.6947
  169SAPE   H3X19132   6.176   4.573   6.953 -0.5031 -0.3147  0.4715
  169SAPE   H3Y19133   6.020   4.583   7.032 -0.4866  1.0805  1.5704
  169SAPE   C3419134   6.178   4.549   7.170 -0.1086  0.6877 -0.5476
  169SAPE   H4X19135   6.288   4.556   7.183 -0.2391  0.5723  0.7299
  169SAPE   H4Y19136   6.156   4.440   7.166  0.3548  0.5801 -0.2622
  169SAPE   C3519137   6.097   4.600   7.290 -0.3417 -0.0102 -0.4334
  169SAPE   H5X19138   5.989   4.581   7.269 -0.8114  0.2435  1.5196
  169SAPE   H5Y19139   6.118   4.708   7.305 -0.0859 -0.3419  2.0255
  169SAPE   C3619140   6.119   4.524   7.418 -0.1710 -0.2496  0.1566
  169SAPE   H6X19141   6.226   4.531   7.449  0.4468  0.0099 -1.9336
  169SAPE   H6Y19142   6.107   4.415   7.403  0.2269 -0.2402 -0.2463
  169SAPE   C3719143   6.033   4.575   7.537 -0.3182 -0.1687 -0.1826
  169SAPE   H7X19144   5.930   4.540   7.515  0.0386 -1.6937  0.4232
  169SAPE   H7Y19145   6.037   4.686   7.536  1.9735 -0.1526  1.8598
  169SAPE   C3819146   6.084   4.528   7.670  0.5595 -0.2273  0.4435
  169SAPE   H8X19147   6.190   4.556   7.691  0.0110  1.1512  1.5425
  169SAPE   H8Y19148   6.071   4.418   7.672  0.8615 -0.2976 -0.8844
  169SAPE   C3919149   5.986   4.587   7.775 -0.1017  0.2473  0.1556
  169SAPE   H9X19150   5.882   4.556   7.751 -0.9900  1.4670  2.1457
  169SAPE   H9Y19151   5.974   4.697   7.772 -0.8658  0.2347  1.7510
  169SAPE  C31019152   6.012   4.540   7.919  0.4313 -0.1083 -0.5064
  169SAPE  H10X19153   6.118   4.554   7.948  0.0523 -1.9021  2.0820
  169SAPE  H10Y19154   5.992   4.431   7.916  1.4770 -0.2938 -1.0600
  169SAPE  C31119155   5.935   4.613   8.033 -0.4687  0.0531  0.9970
  169SAPE  H11X19156   5.828   4.618   8.005 -0.3803  0.1195  0.6600
  169SAPE  H11Y19157   5.957   4.722   8.033  0.9956 -0.2249  1.1389
  169SAPE  C31219158   5.950   4.534   8.165 -0.7018  0.2681  0.8656
  169SAPE  H12X19159   6.046   4.548   8.220 -0.3016  0.9005  0.0344
  169SAPE  H12Y19160   5.940   4.424   8.150 -1.0154  0.1506  1.8665
  169SAPE  C31319161   5.853   4.564   8.274  0.1845 -0.3676  0.3671
  169SAPE  H13X19162   5.751   4.538   8.237  0.4550 -1.2305  0.2118
  169SAPE  H13Y19163   5.868   4.674   8.284  0.0893 -0.3611  0.4427
  169SAPE  C31419164   5.869   4.477   8.401  0.5366  0.1639 -0.3515
  169SAPE  H14X19165   5.972   4.491   8.441  0.4153 -1.0580  0.4500
  169SAPE  H14Y19166   5.857   4.371   8.371 -1.0210  0.0600  0.5356
  169SAPE  C31519167   5.765   4.523   8.510  0.0447 -0.7364 -0.1990
  169SAPE  H15X19168   5.657   4.501   8.494 -0.1832  0.2604 -0.0582
  169SAPE  H15Y19169   5.766   4.632   8.531 -1.5403 -0.7001 -0.1900
  169SAPE  C31619170   5.803   4.469   8.647  0.5584 -0.9869  0.0326
  169SAPE  H16X19171   5.861   4.374   8.640 -0.8423 -1.9023  0.4186
  169SAPE  H16Y19172   5.703   4.449   8.691  0.5111  0.4472  0.6121
  169SAPE  C31719173   5.877   4.569   8.741 -0.6035  0.2320 -0.2752
  169SAPE  H17X19174   5.876   4.537   8.848 -1.1540  2.4473  0.4361
  169SAPE  H17Y19175   5.821   4.665   8.740  2.5685  2.2289  0.2182
  169SAPE  C31819176   6.018   4.597   8.702 -0.6475  0.0595 -0.5128
  169SAPE  H18X19177   6.065   4.657   8.783  0.6293  0.3263 -1.4150
  169SAPE  H18Y19178   6.029   4.662   8.612  0.5686  0.3453 -0.1764
  169SAPE  H18Z19179   6.072   4.500   8.697 -0.0307  0.3525  0.1507
  170SAPE     N19180   0.284   2.249   6.554  0.7496 -0.4362  0.1074
  170SAPE   HN119181   0.348   2.249   6.472 -0.5457 -2.7678 -1.0012
  170SAPE   HN219182   0.191   2.292   6.534  0.5444 -1.6606 -1.8500
  170SAPE   HN319183   0.323   2.307   6.631 -2.5155 -0.5939  2.0668
  170SAPE   C1219184   0.250   2.107   6.598  0.2986 -0.5365 -0.1257
  170SAPE  H12A19185   0.152   2.087   6.549  0.3289  1.2179 -1.0155
  170SAPE  H12B19186   0.247   2.118   6.708  0.6559 -0.2118 -0.1437
  170SAPE   C1119187   0.358   2.008   6.546  0.5719 -0.6092  0.0238
  170SAPE  H11A19188   0.326   1.916   6.598  1.3766 -0.5676  0.6059
  170SAPE  H11B19189   0.458   2.043   6.579  1.1398  0.0060 -2.1669
  170SAPE     P19190   0.460   1.928   6.319  0.1238  0.4108 -0.1605
  170SAPE   O1319191   0.407   1.798   6.258 -0.3226  0.1727  0.2329
  170SAPE   O1419192   0.502   2.041   6.231  0.2790  0.1690  0.1777
  170SAPE   O1219193   0.347   1.989   6.406  0.1809  0.0505 -0.1118
  170SAPE   O1119194   0.586   1.887   6.409 -0.0806 -0.1083  0.4989
  170SAPE    C119195   0.572   1.785   6.510 -0.2452  0.0627  0.3414
  170SAPE    HA19196   0.466   1.782   6.544 -0.1788  0.2196  0.5662
  170SAPE    HB19197   0.604   1.685   6.473 -1.1893 -0.5161  1.0310
  170SAPE    C219198   0.671   1.814   6.634  0.0004 -1.1382  0.6385
  170SAPE    HS19199   0.678   1.712   6.677 -1.8280 -1.6666 -0.2063
  170SAPE   O2119200   0.611   1.914   6.717 -0.1183  0.5282  0.5253
  170SAPE   C2119201   0.617   1.893   6.857  0.4279  0.1729 -0.0374
  170SAPE   O2219202   0.686   1.805   6.907 -0.3235 -0.0745  0.1074
  170SAPE   C2219203   0.535   1.990   6.929  0.5035 -1.0464 -0.6207
  170SAPE   H2R19204   0.581   2.090   6.923 -2.6076  0.5274 -0.1661
  170SAPE   H2S19205   0.448   2.013   6.863  1.0118  1.2026 -0.5815
  170SAPE    C319206   0.811   1.859   6.586  0.2794  0.7080  0.2307
  170SAPE    HX19207   0.810   1.968   6.567  0.1732  0.6356 -0.1717
  170SAPE    HY19208   0.829   1.807   6.490  1.6530  2.5781 -0.5751
  170SAPE   O3119209   0.916   1.833   6.681  0.8185  0.2045  0.2838
  170SAPE   C3119210   0.979   1.719   6.670  0.4648  0.0772 -0.1433
  170SAPE   O3219211   0.945   1.628   6.600  0.4725  0.1793 -0.5016
  170SAPE   C3219212   1.083   1.697   6.781  0.3725  0.6399  0.1894
  170SAPE   H2X19213   1.117   1.795   6.819  1.5266  1.3343 -2.4366
  170SAPE   H2Y19214   1.170   1.643   6.739  0.0372  0.9244 -0.8982
  170SAPE   C2319215   0.488   1.972   7.074  0.0339  0.2721 -0.0348
  170SAPE   H3R19216   0.555   1.892   7.113 -1.1511  0.3411  2.2761
  170SAPE   H3S19217   0.385   1.933   7.087  0.8012 -1.2430  2.0955
  170SAPE   C2419218   0.510   2.096   7.162  0.0605  0.2121  0.1504
  170SAPE   H4R19219   0.436   2.175   7.136  1.6408  1.8028  0.2929
  170SAPE   H4S19220   0.607   2.147   7.144  0.5832  0.1838  2.5544
  170SAPE   C2519221   0.505   2.058   7.306 -0.2250  0.2187  0.3400
  170SAPE   H5R19222   0.542   1.957   7.329 -1.1999  0.0987  1.4237
  170SAPE   C2619223   0.451   2.128   7.409 -0.1412  0.2457 -0.5250
  170SAPE   H6R19224   0.443   2.078   7.506 -0.4346 -2.1724 -1.7258
  170SAPE   C2719225   0.391   2.273   7.403  0.0304  0.8348 -0.3590
  170SAPE   H7R19226   0.404   2.318   7.302  0.6033 -1.2947 -1.3007
  170SAPE   H7S19227   0.451   2.332   7.474  3.4006 -0.7589 -1.6629
  170SAPE   C2819228   0.245   2.271   7.441 -0.3571 -0.1408  0.9844
  170SAPE   H8R19229   0.169   2.234   7.370 -0.6823 -1.4058  1.9434
  170SAPE   C2919230   0.204   2.314   7.565 -0.4127  0.4069  0.6935
  170SAPE   H9R19231   0.096   2.324   7.582 -0.7261  0.3874 -1.0568
  170SAPE  C21019232   0.289   2.359   7.681  0.6999 -0.2183 -0.6324
  170SAPE  H10R19233   0.394   2.325   7.670  0.7908 -0.0729 -0.2305
  170SAPE  H10S19234   0.255   2.310   7.775  1.8045  2.5470  1.3525
  170SAPE  C21119235   0.268   2.512   7.694 -0.8742  0.4009 -0.2552
  170SAPE  H11R19236   0.282   2.569   7.601  0.2402 -0.6611 -0.7664
  170SAPE  C21219237   0.242   2.578   7.807 -0.4934 -0.2920  1.0724
  170SAPE  H12R19238   0.217   2.685   7.799  0.1319 -0.2404 -0.5509
  170SAPE  C21319239   0.233   2.507   7.942  0.4974 -0.0017 -0.1824
  170SAPE  H13R19240   0.317   2.436   7.952 -0.9162 -1.7972 -0.6033
  170SAPE  H13S19241   0.136   2.453   7.954  1.1886 -1.6126 -1.5450
  170SAPE  C21419242   0.247   2.610   8.042 -0.1575 -0.1700 -0.0393
  170SAPE  H14R19243   0.319   2.691   8.021 -2.6782  1.7074 -2.0015
  170SAPE  C21519244   0.189   2.611   8.163 -0.5843  0.3046 -0.3596
  170SAPE  H15R19245   0.202   2.690   8.238  1.6294  0.1078 -0.4853
  170SAPE  C21619246   0.102   2.502   8.215  0.6193 -0.3712  0.2337
  170SAPE  H16R19247   0.036   2.453   8.140 -2.4988  3.3268  0.2344
  170SAPE  H16S19248   0.021   2.548   8.276 -1.8593 -2.2262 -1.4395
  170SAPE  C21719249   0.181   2.398   8.292  0.5523 -0.0037 -0.0550
  170SAPE  H17R19250   0.244   2.444   8.370  0.9846  0.0125 -0.4118
  170SAPE  H17S19251   0.259   2.352   8.228 -0.3952  0.0354 -1.2830
  170SAPE  C21819252   0.098   2.276   8.337 -0.0389  0.4496  0.3508
  170SAPE  H18R19253   0.088   2.220   8.242  2.0649  1.9920 -0.8768
  170SAPE  H18S19254   0.006   2.312   8.389  1.8130  3.7041  1.6856
  170SAPE  C21919255   0.189   2.182   8.426 -0.3709  0.4573  0.2646
  170SAPE  H19R19256   0.294   2.212   8.408 -1.0659  2.8828 -0.0440
  170SAPE  H19S19257   0.167   2.076   8.399  0.5110  0.0831  0.9728
  170SAPE  C22019258   0.165   2.195   8.577 -0.3367 -0.1714  0.0961
  170SAPE  H20R19259   0.250   2.142   8.626  0.5568  2.0334  1.0287
  170SAPE  H20S19260   0.064   2.173   8.618  0.8856 -2.1672  2.2637
  170SAPE  H20T19261   0.194   2.297   8.608  2.1521 -0.6496 -0.4597
  170SAPE   C3319262   1.010   1.606   6.891 -0.5663 -0.3224  0.0929
  170SAPE   H3X19263   0.922   1.552   6.848 -1.1561  1.0363 -0.4683
  170SAPE   H3Y19264   0.974   1.676   6.970 -0.5413  1.3914 -1.3494
  170SAPE   C3419265   1.106   1.498   6.947 -0.1409 -0.5510  0.4718
  170SAPE   H4X19266   1.167   1.459   6.863  2.3204  3.0266  0.3590
  170SAPE   H4Y19267   1.038   1.418   6.985  1.1923 -0.9209  2.2536
  170SAPE   C3519268   1.206   1.558   7.044 -0.6819 -0.0806 -0.2048
  170SAPE   H5X19269   1.246   1.653   7.003  1.2757 -0.9879 -0.5600
  170SAPE   H5Y19270   1.295   1.490   7.041 -0.2799  0.4449 -3.1988
  170SAPE   C3619271   1.141   1.583   7.176  0.7178  0.0828  0.3981
  170SAPE   H6X19272   1.035   1.548   7.176  0.2375  1.4058 -1.7436
  170SAPE   H6Y19273   1.115   1.687   7.206 -1.4128 -0.0211 -0.8834
  170SAPE   C3719274   1.216   1.527   7.297 -0.0889 -0.1644  0.5264
  170SAPE   H7X19275   1.322   1.561   7.286 -1.0580  2.4776 -2.0873
  170SAPE   H7Y19276   1.214   1.416   7.305 -0.0344 -0.0128  3.7077
  170SAPE   C3819277   1.170   1.574   7.432  1.2293 -0.2611 -0.6658
  170SAPE   H8X19278   1.065   1.539   7.437  1.9539 -2.6175 -0.6171
  170SAPE   H8Y19279   1.175   1.685   7.441  1.1018 -0.3839  1.6109
  170SAPE   C3919280   1.243   1.519   7.555  0.3081 -0.1887  1.0824
  170SAPE   H9X19281   1.349   1.500   7.525 -0.4450  1.2554 -3.2420
  170SAPE   H9Y19282   1.211   1.415   7.574 -2.2239  0.1181 -0.9464
  170SAPE  C31019283   1.220   1.615   7.675 -0.2568  0.2137 -0.5693
  170SAPE  H10X19284   1.114   1.648   7.672 -0.4656 -0.3882  0.1689
  170SAPE  H10Y19285   1.283   1.706   7.662 -1.3335  0.7920 -2.0397
  170SAPE  C31119286   1.265   1.550   7.802 -0.6676 -0.0624  0.1584
  170SAPE  H11X19287   1.374   1.527   7.790 -1.1050 -1.7465 -0.9127
  170SAPE  H11Y19288   1.197   1.462   7.809 -2.6848  1.2925 -1.3584
  170SAPE  C31219289   1.263   1.630   7.932 -0.5690 -0.7939  0.8678
  170SAPE  H12X19290   1.163   1.649   7.977 -1.4279 -0.1286 -1.1803
  170SAPE  H12Y19291   1.323   1.722   7.915  1.1617 -1.5913  2.2826
  170SAPE  C31319292   1.332   1.558   8.044  0.0601  0.0670  0.1097
  170SAPE  H13X19293   1.406   1.488   7.999 -1.5256  0.0665 -2.7050
  170SAPE  H13Y19294   1.249   1.505   8.096 -0.5733 -0.8108 -1.7283
  170SAPE  C31419295   1.406   1.654   8.136  0.2567  0.0112  0.1507
  170SAPE  H14X19296   1.332   1.705   8.201 -0.3434 -0.0414 -0.4692
  170SAPE  H14Y19297   1.469   1.723   8.076  0.2409  0.9706  1.2172
  170SAPE  C31519298   1.500   1.564   8.234  0.3355  0.5895  0.7978
  170SAPE  H15X19299   1.557   1.638   8.294  1.2174  0.1136  0.5669
  170SAPE  H15Y19300   1.574   1.508   8.172 -0.1163  0.2669  0.5446
  170SAPE  C31619301   1.409   1.458   8.317 -0.5186  0.0745  0.4667
  170SAPE  H16X19302   1.391   1.375   8.245 -0.1089  1.0151 -0.7590
  170SAPE  H16Y19303   1.306   1.498   8.324 -0.8768 -0.6909 -0.1881
  170SAPE  C31719304   1.476   1.404   8.449 -0.5563  0.1519  0.6719
  170SAPE  H17X19305   1.519   1.487   8.509  3.5855  0.8602 -2.8226
  170SAPE  H17Y19306   1.570   1.360   8.411 -0.0325  2.2110 -0.5796
  170SAPE  C31819307   1.398   1.302   8.532 -0.0034  0.3915 -0.3445
  170SAPE  H18X19308   1.463   1.254   8.609 -2.3817 -1.9639  0.3336
  170SAPE  H18Y19309   1.365   1.220   8.464  3.2566 -1.9000  0.5872
  170SAPE  H18Z19310   1.311   1.352   8.580  0.9461  2.1130 -0.3441
  171SAPE     N19311   2.112   2.963   6.304 -0.0669 -0.0227  0.2432
  171SAPE   HN119312   2.069   2.929   6.393 -1.4533  1.3456  0.1331
  171SAPE   HN219313   2.209   2.997   6.320 -0.2486 -0.4887  2.7809
  171SAPE   HN319314   2.050   3.032   6.258  1.0037  0.5033 -0.4585
  171SAPE   C1219315   2.121   2.849   6.198  0.1087 -0.3446  0.2623
  171SAPE  H12A19316   2.179   2.887   6.111  0.6819  1.7985  1.4981
  171SAPE  H12B19317   2.020   2.832   6.155  0.5991 -1.9660 -0.3228
  171SAPE   C1119318   2.180   2.726   6.270  0.5212  0.3030 -0.7340
  171SAPE  H11A19319   2.285   2.747   6.301  1.3014 -0.7011 -2.5366
  171SAPE  H11B19320   2.177   2.646   6.193  1.2069  1.4984 -2.0525
  171SAPE     P19321   2.112   2.581   6.470  0.1103  0.2647 -0.7141
  171SAPE   O1319322   2.042   2.468   6.409 -0.2246  0.6271  0.2124
  171SAPE   O1419323   2.250   2.560   6.498 -0.2310  0.0623  0.6450
  171SAPE   O1219324   2.092   2.706   6.384 -0.2473 -0.2868 -0.1144
  171SAPE   O1119325   2.044   2.618   6.603  0.5559  0.5009  0.6310
  171SAPE    C119326   1.907   2.659   6.608  0.2889  0.9789 -0.2795
  171SAPE    HA19327   1.845   2.615   6.527 -0.4393 -1.1727  1.3329
  171SAPE    HB19328   1.873   2.618   6.706  0.7027  0.4829 -0.3403
  171SAPE    C219329   1.883   2.808   6.614 -0.1255  0.1963 -0.0272
  171SAPE    HS19330   1.936   2.855   6.528 -2.0976  0.5207 -1.1302
  171SAPE   O2119331   1.947   2.857   6.734  0.0078 -0.0577 -0.5242
  171SAPE   C2119332   1.957   2.992   6.741 -0.5626 -0.1024  0.9666
  171SAPE   O2219333   1.927   3.064   6.651 -0.6785 -0.4857  0.2806
  171SAPE   C2219334   1.999   3.027   6.884  0.4186  0.2460  0.0136
  171SAPE   H2R19335   1.928   2.980   6.956  0.9539 -0.1433  0.2928
  171SAPE   H2S19336   2.101   2.988   6.902 -0.4178 -3.0759 -1.6800
  171SAPE    C319337   1.734   2.850   6.608 -0.9898  0.1548 -0.4845
  171SAPE    HX19338   1.699   2.820   6.507 -1.6277 -1.0728  0.0839
  171SAPE    HY19339   1.713   2.959   6.619  0.6524  0.3338  1.5152
  171SAPE   O3119340   1.655   2.782   6.708 -1.2087 -0.0362  0.1491
  171SAPE   C3119341   1.627   2.844   6.818 -0.2081  0.6340 -0.2088
  171SAPE   O3219342   1.673   2.949   6.855  0.3452  0.4019 -0.7170
  171SAPE   C3219343   1.542   2.764   6.910  0.6205  0.0910 -0.4668
  171SAPE   H2X19344   1.610   2.700   6.971  0.7797  0.5179 -0.1843
  171SAPE   H2Y19345   1.457   2.707   6.868 -0.5844  1.2170  0.3604
  171SAPE   C2319346   2.001   3.178   6.909 -0.3020 -0.2900 -0.6368
  171SAPE   H3R19347   1.905   3.226   6.880  0.1851  0.6919 -0.6831
  171SAPE   H3S19348   2.076   3.219   6.838  0.4419  1.2260  0.9526
  171SAPE   C2419349   2.046   3.204   7.049  0.0036 -0.2310  1.1309
  171SAPE   H4R19350   1.990   3.135   7.117  0.1959 -1.0717  0.4456
  171SAPE   H4S19351   2.005   3.304   7.078  0.0534 -0.1153  0.8062
  171SAPE   C2519352   2.193   3.202   7.066  0.2045 -0.2483  0.7532
  171SAPE   H5R19353   2.251   3.186   6.974 -0.6840  0.6661  0.0154
  171SAPE   C2619354   2.260   3.216   7.177 -0.6756 -0.1244 -0.4242
  171SAPE   H6R19355   2.369   3.205   7.191 -0.6843  2.0881  2.3083
  171SAPE   C2719356   2.190   3.248   7.315 -0.5732  0.1082  0.1824
  171SAPE   H7R19357   2.080   3.246   7.301 -0.8908  2.1719  1.8614
  171SAPE   H7S19358   2.208   3.355   7.335  1.4297 -0.0464 -0.5644
  171SAPE   C2819359   2.252   3.159   7.426  0.1861  0.1606 -0.2639
  171SAPE   H8R19360   2.208   3.059   7.421 -1.1551  0.7703 -3.6316
  171SAPE   C2919361   2.345   3.181   7.520  0.1533  0.0693  0.2089
  171SAPE   H9R19362   2.378   3.092   7.575  1.2419 -0.2088 -0.8356
  171SAPE  C21019363   2.409   3.311   7.550 -0.3257  0.4144  0.5256
  171SAPE  H10R19364   2.417   3.358   7.450 -0.6036 -2.5123 -1.0026
  171SAPE  H10S19365   2.515   3.296   7.581 -0.3922 -2.0869 -0.1796
  171SAPE  C21119366   2.332   3.397   7.649  0.6849 -0.1170  0.3121
  171SAPE  H11R19367   2.275   3.481   7.606 -0.1340  0.2061  1.9505
  171SAPE  C21219368   2.332   3.376   7.786 -0.5292  0.2560 -0.5211
  171SAPE  H12R19369   2.267   3.430   7.857  0.3294 -0.6868  1.0245
  171SAPE  C21319370   2.395   3.259   7.852 -0.8531  0.1821  0.6468
  171SAPE  H13R19371   2.480   3.291   7.916 -1.6192  0.4361  1.5487
  171SAPE  H13S19372   2.439   3.187   7.780 -1.1790 -2.6644  3.1323
  171SAPE  C21419373   2.299   3.169   7.926 -0.4753  0.5125  0.1576
  171SAPE  H14R19374   2.239   3.096   7.869 -0.5155  0.9508 -0.3684
  171SAPE  C21519375   2.266   3.182   8.051  0.1653  0.7579 -0.0217
  171SAPE  H15R19376   2.199   3.103   8.088  1.1894  1.0614  2.7307
  171SAPE  C21619377   2.328   3.288   8.139 -0.2407 -0.6343  0.4231
  171SAPE  H16R19378   2.259   3.331   8.214  1.2906  1.9688  0.4669
  171SAPE  H16S19379   2.371   3.376   8.086  1.3259 -1.6870 -0.1629
  171SAPE  C21719380   2.437   3.215   8.223  0.4883 -0.0728  0.1145
  171SAPE  H17R19381   2.476   3.287   8.298  2.1187 -0.7932 -0.0065
  171SAPE  H17S19382   2.515   3.189   8.149 -0.8957 -0.9299 -1.1126
  171SAPE  C21819383   2.388   3.090   8.297  0.5801 -0.0532 -0.1958
  171SAPE  H18R19384   2.361   3.013   8.221  1.1447 -0.3288 -0.1220
  171SAPE  H18S19385   2.305   3.111   8.368  1.2154 -0.2106  0.6046
  171SAPE  C21919386   2.510   3.027   8.369  0.2131  0.2051 -0.1592
  171SAPE  H19R19387   2.559   3.100   8.437  2.0127 -0.2496 -0.9006
  171SAPE  H19S19388   2.585   3.016   8.288 -1.4486 -0.9436 -1.6169
  171SAPE  C22019389   2.477   2.890   8.436  0.1134  0.0028 -0.9286
  171SAPE  H20R19390   2.573   2.852   8.477 -2.2073 -0.7766  4.8113
  171SAPE  H20S19391   2.434   2.825   8.357  0.8648  0.4530 -1.7254
  171SAPE  H20T19392   2.403   2.910   8.516 -0.8759 -0.0580 -1.8122
  171SAPE   C3319393   1.485   2.872   7.015  0.7511 -0.2131 -0.7312
  171SAPE   H3X19394   1.466   2.974   6.975  2.0536 -0.0252 -0.9273
  171SAPE   H3Y19395   1.551   2.883   7.104 -1.9346 -0.2229  1.4096
  171SAPE   C3419396   1.356   2.812   7.059  0.4004 -0.0112 -0.3126
  171SAPE   H4X19397   1.379   2.713   7.105 -0.4364 -0.1918 -0.2604
  171SAPE   H4Y19398   1.271   2.800   6.988 -0.1467  0.0105  0.3246
  171SAPE   C3519399   1.281   2.898   7.169 -0.4215  0.2785 -0.5028
  171SAPE   H5X19400   1.180   2.863   7.201 -1.3863  2.8752 -0.4429
  171SAPE   H5Y19401   1.264   2.997   7.121  2.0808  1.6349  1.2046
  171SAPE   C3619402   1.367   2.917   7.293 -0.1844 -0.4396 -0.1630
  171SAPE   H6X19403   1.454   2.981   7.266  0.5484 -0.4650  1.9835
  171SAPE   H6Y19404   1.407   2.818   7.325  0.5605 -0.3305 -0.7189
  171SAPE   C3719405   1.291   2.989   7.411 -0.7350  0.5071  0.1211
  171SAPE   H7X19406   1.186   2.955   7.411 -0.1225 -1.4875  0.1941
  171SAPE   H7Y19407   1.286   3.092   7.370  1.2412  0.6172  0.0355
  171SAPE   C3819408   1.365   2.987   7.542 -0.4121  0.0861 -0.9541
  171SAPE   H8X19409   1.470   3.021   7.531  0.7677 -2.3096  1.4936
  171SAPE   H8Y19410   1.365   2.879   7.567  0.5096 -0.0192 -1.3671
  171SAPE   C3919411   1.311   3.068   7.653  0.2894  0.3246 -1.0417
  171SAPE   H9X19412   1.270   3.167   7.625 -2.5783 -0.0197  1.4434
  171SAPE   H9Y19413   1.379   3.065   7.740  2.7630  0.0895 -2.8830
  171SAPE  C31019414   1.185   2.994   7.715 -0.5808 -0.2551 -0.5298
  171SAPE  H10X19415   1.201   2.891   7.755  1.6655 -0.0703 -0.8016
  171SAPE  H10Y19416   1.108   2.982   7.636 -0.3853 -2.0787 -0.4885
  171SAPE  C31119417   1.135   3.085   7.829  0.8304  0.1861  0.2843
  171SAPE  H11X19418   1.136   3.185   7.781 -1.7492  0.6717  1.0746
  171SAPE  H11Y19419   1.200   3.083   7.919  1.1878 -1.5276  0.0232
  171SAPE  C31219420   0.983   3.066   7.867  0.7274 -0.1223 -0.6275
  171SAPE  H12X19421   0.971   2.959   7.897 -0.7806  0.2413  0.1015
  171SAPE  H12Y19422   0.924   3.091   7.776  0.7524  1.4119 -0.2482
  171SAPE  C31319423   0.940   3.154   7.982  0.2729  0.1989 -0.1756
  171SAPE  H13X19424   0.963   3.261   7.967  0.1135  0.1184 -1.0025
  171SAPE  H13Y19425   1.005   3.121   8.066  1.1164 -3.0011 -1.9323
  171SAPE  C31419426   0.789   3.140   8.017 -0.5599  0.4776  0.1354
  171SAPE  H14X19427   0.726   3.160   7.928 -0.2621 -2.0919 -0.7324
  171SAPE  H14Y19428   0.766   3.214   8.097  1.5612  0.5420  0.7428
  171SAPE  C31519429   0.741   3.007   8.073  0.0331  0.3931  0.3961
  171SAPE  H15X19430   0.794   2.997   8.170  1.8328 -1.8999 -0.7231
  171SAPE  H15Y19431   0.784   2.932   8.004 -0.7200 -0.0006  0.3437
  171SAPE  C31619432   0.588   2.985   8.079 -0.3663  0.1275 -0.3970
  171SAPE  H16X19433   0.555   2.881   8.060 -0.9717  0.6297 -2.3657
  171SAPE  H16Y19434   0.534   3.040   7.999  0.0858  0.9961 -0.1245
  171SAPE  C31719435   0.538   3.015   8.223  0.1744 -0.9275  0.1663
  171SAPE  H17X19436   0.559   3.118   8.260  0.9081 -0.7521 -0.7044
  171SAPE  H17Y19437   0.584   2.939   8.290 -0.9450 -0.7397  1.1991
  171SAPE  C31819438   0.389   2.999   8.247  0.3871  0.4066 -0.4724
  171SAPE  H18X19439   0.356   3.027   8.350 -1.6520 -1.2036 -0.6305
  171SAPE  H18Y19440   0.352   2.895   8.238 -2.1895  0.6046  4.2606
  171SAPE  H18Z19441   0.318   3.056   8.183 -2.5184 -0.6338  1.6117
  172SAPE     N19442   0.952   1.369   6.523 -0.0073  0.2619  0.1655
  172SAPE   HN119443   0.933   1.463   6.565 -1.8045  0.8273 -1.7371
  172SAPE   HN219444   0.862   1.317   6.515  0.1495  0.0818 -0.4593
  172SAPE   HN319445   1.003   1.317   6.597  0.1630  0.6057  0.2951
  172SAPE   C1219446   1.006   1.393   6.386 -0.0998  0.2731  0.7356
  172SAPE  H12A19447   1.036   1.500   6.385 -0.3119  0.3377 -0.2178
  172SAPE  H12B19448   0.928   1.379   6.308  2.2940 -1.8911 -1.4668
  172SAPE   C1119449   1.119   1.295   6.379  0.2944  0.2846 -0.7355
  172SAPE  H11A19450   1.173   1.305   6.475  0.3182  1.4986 -0.8610
  172SAPE  H11B19451   1.196   1.340   6.313 -0.8354 -0.0973 -2.3670
  172SAPE     P19452   1.192   1.042   6.330  0.0770 -0.5853  0.1308
  172SAPE   O1319453   1.194   1.003   6.186 -0.0878 -0.4505 -0.6783
  172SAPE   O1419454   1.316   1.087   6.405  0.2400  0.2191 -0.4375
  172SAPE   O1219455   1.082   1.154   6.351  0.3393  0.1901 -0.6885
  172SAPE   O1119456   1.132   0.920   6.410 -0.1038 -0.7665  0.3134
  172SAPE    C119457   0.996   0.911   6.456  0.6757  0.5288  1.0660
  172SAPE    HA19458   0.924   0.943   6.379  0.9390 -0.5704  0.3435
  172SAPE    HB19459   0.978   0.806   6.486  0.4313 -0.2573 -1.6436
  172SAPE    C219460   0.974   0.995   6.584 -0.5982  0.2226 -0.1121
  172SAPE    HS19461   0.950   1.097   6.548 -1.8887  0.2797  0.8347
  172SAPE   O2119462   1.092   0.990   6.665 -0.1011  0.3030  0.5242
  172SAPE   C2119463   1.133   1.112   6.714 -0.0241  0.3995  0.4511
  172SAPE   O2219464   1.072   1.212   6.700  0.3485 -0.2118 -0.3531
  172SAPE   C2219465   1.274   1.109   6.770  0.6833  0.3625 -0.4654
  172SAPE   H2R19466   1.269   1.103   6.880  0.0848 -0.6511 -0.5269
  172SAPE   H2S19467   1.325   1.013   6.746  2.3987  0.8151  1.1446
  172SAPE    C319468   0.846   0.957   6.668 -0.0779  0.1164 -0.7812
  172SAPE    HX19469   0.869   0.861   6.719  2.5614  0.3674 -1.3496
  172SAPE    HY19470   0.762   0.940   6.598  0.1841 -0.3149 -0.9988
  172SAPE   O3119471   0.798   1.065   6.756 -0.0371 -0.1418 -0.2255
  172SAPE   C3119472   0.754   1.028   6.880  1.3213 -0.1182 -0.1220
  172SAPE   O3219473   0.739   0.914   6.914  0.2852  0.4694  0.2635
  172SAPE   C3219474   0.713   1.161   6.965  0.0462 -0.3629 -0.3071
  172SAPE   H2X19475   0.642   1.130   7.045 -2.1335  2.1496 -1.1261
  172SAPE   H2Y19476   0.655   1.214   6.886 -0.3978  0.2558  0.4226
  172SAPE   C2319477   1.363   1.221   6.723 -0.4068 -0.1866  0.5329
  172SAPE   H3R19478   1.326   1.319   6.758 -0.0043  0.3060 -0.3846
  172SAPE   H3S19479   1.369   1.220   6.612  0.5228 -0.2578  0.5748
  172SAPE   C2419480   1.507   1.197   6.775  0.0976 -0.0704 -0.3604
  172SAPE   H4R19481   1.553   1.110   6.722  0.9988 -0.0002  0.2809
  172SAPE   H4S19482   1.497   1.168   6.882 -1.0731  0.3430 -0.3454
  172SAPE   C2519483   1.586   1.325   6.759 -1.1624  1.1307 -0.6842
  172SAPE   H5R19484   1.610   1.342   6.653 -0.3152 -0.5182 -0.7991
  172SAPE   C2619485   1.622   1.404   6.862 -0.6460 -0.2795  0.4841
  172SAPE   H6R19486   1.682   1.493   6.839 -0.7328 -0.3356  0.0323
  172SAPE   C2719487   1.588   1.390   7.011 -0.5220  0.5964 -0.2084
  172SAPE   H7R19488   1.488   1.341   7.017  0.5454 -2.0881 -2.3114
  172SAPE   H7S19489   1.583   1.495   7.049 -3.1201  0.3103  0.4445
  172SAPE   C2819490   1.689   1.310   7.082 -0.1455 -0.2431  0.1370
  172SAPE   H8R19491   1.748   1.244   7.017 -0.5011  0.1707 -0.6281
  172SAPE   C2919492   1.691   1.286   7.214  0.4335 -0.0531  0.3011
  172SAPE   H9R19493   1.777   1.230   7.253  0.1634 -0.8638 -0.2237
  172SAPE  C21019494   1.589   1.332   7.309  0.6365 -0.5137 -0.8030
  172SAPE  H10R19495   1.517   1.401   7.260  2.1352  1.9099  0.2249
  172SAPE  H10S19496   1.644   1.396   7.381 -2.7231  0.1362  1.4449
  172SAPE  C21119497   1.509   1.231   7.380  0.4619 -0.0372 -0.1535
  172SAPE  H11R19498   1.450   1.174   7.306  1.0870 -0.7392 -0.1186
  172SAPE  C21219499   1.486   1.202   7.510 -0.3105 -0.4365  0.0489
  172SAPE  H12R19500   1.433   1.110   7.541  0.4112 -0.5117  1.0975
  172SAPE  C21319501   1.546   1.269   7.630  0.1061 -0.0603 -0.2902
  172SAPE  H13R19502   1.555   1.378   7.608  3.7361 -0.1998 -0.0832
  172SAPE  H13S19503   1.645   1.226   7.656  0.2445  0.6066  0.3440
  172SAPE  C21419504   1.449   1.267   7.742 -0.1020 -0.1274 -0.4017
  172SAPE  H14R19505   1.350   1.306   7.712 -1.5223 -1.7157  1.8953
  172SAPE  C21519506   1.471   1.222   7.871  0.1952 -0.5709  0.7330
  172SAPE  H15R19507   1.397   1.226   7.952 -0.1636  1.1654  0.3564
  172SAPE  C21619508   1.606   1.174   7.903 -0.0740 -0.0698 -0.2882
  172SAPE  H16R19509   1.686   1.241   7.867 -0.9881 -0.7428 -4.0545
  172SAPE  H16S19510   1.619   1.070   7.865 -1.0975  0.2361 -1.5640
  172SAPE  C21719511   1.623   1.171   8.062 -0.4573 -0.5325  0.3133
  172SAPE  H17R19512   1.594   1.264   8.114 -0.2938 -0.2046 -0.1712
  172SAPE  H17S19513   1.731   1.154   8.081 -0.0593  2.9516  1.7859
  172SAPE  C21819514   1.568   1.043   8.129  0.1479  0.1483  0.3047
  172SAPE  H18R19515   1.620   0.958   8.080  1.4934  1.8996 -1.4981
  172SAPE  H18S19516   1.457   1.049   8.121  0.3360  2.1652 -1.5658
  172SAPE  C21919517   1.582   1.037   8.280  0.1357  0.0079 -0.2512
  172SAPE  H19R19518   1.548   0.937   8.313  2.4585 -0.6251  0.4310
  172SAPE  H19S19519   1.516   1.120   8.313 -1.8504 -0.4838 -2.7394
  172SAPE  C22019520   1.724   1.055   8.331  0.1820  0.7050 -0.0736
  172SAPE  H20R19521   1.785   0.982   8.274  0.8846  0.1059  1.3933
  172SAPE  H20S19522   1.726   1.027   8.438  0.3152  1.7657  0.2076
  172SAPE  H20T19523   1.770   1.155   8.314  1.1832  0.2818  0.1100
  172SAPE   C3319524   0.833   1.236   7.021 -0.6245 -0.3101 -0.1203
  172SAPE   H3X19525   0.794   1.325   7.075  0.7184  0.9114 -1.0846
  172SAPE   H3Y19526   0.905   1.259   6.940  0.6015 -1.1264  0.7164
  172SAPE   C3419527   0.910   1.147   7.122 -0.2996 -0.7204 -0.0247
  172SAPE   H4X19528   1.014   1.120   7.091  1.6521  4.6659  0.7576
  172SAPE   H4Y19529   0.856   1.050   7.126 -2.3117  0.2834 -1.2176
  172SAPE   C3519530   0.923   1.208   7.256  0.2047 -0.0556 -0.3181
  172SAPE   H5X19531   0.829   1.252   7.296  0.9508  1.6115 -0.2792
  172SAPE   H5Y19532   0.985   1.299   7.245 -0.6274  0.6520  0.5984
  172SAPE   C3619533   0.984   1.116   7.372 -0.5627  0.2390  0.2725
  172SAPE   H6X19534   1.091   1.099   7.347 -0.4117  2.1689 -0.5670
  172SAPE   H6Y19535   0.936   1.016   7.367  0.9580 -0.6087  1.7511
  172SAPE   C3719536   0.962   1.162   7.519 -0.3075  0.7832  0.7049
  172SAPE   H7X19537   0.854   1.141   7.534 -0.3017 -0.1776 -0.4309
  172SAPE   H7Y19538   0.978   1.272   7.528  0.0445  0.7743  0.2459
  172SAPE   C3819539   1.049   1.073   7.611  0.3169 -0.0219 -0.0387
  172SAPE   H8X19540   1.157   1.091   7.591  0.3538 -0.3979 -0.1848
  172SAPE   H8Y19541   1.038   0.967   7.581  0.7086  0.6176 -2.6723
  172SAPE   C3919542   1.014   1.093   7.759 -0.0302  0.4835  0.0198
  172SAPE   H9X19543   1.063   1.017   7.824  0.7658  0.2547 -0.8227
  172SAPE   H9Y19544   0.905   1.074   7.764  0.3383 -1.6106  2.5024
  172SAPE  C31019545   1.029   1.236   7.823 -0.2289  0.3674  0.6571
  172SAPE  H10X19546   0.962   1.307   7.770 -0.8144 -0.7253 -0.1010
  172SAPE  H10Y19547   1.135   1.257   7.799 -0.6341 -0.3802 -2.1914
  172SAPE  C31119548   0.996   1.257   7.976  0.4188  0.0728 -0.2615
  172SAPE  H11X19549   0.893   1.217   7.991  0.9040 -0.4970  1.8189
  172SAPE  H11Y19550   0.981   1.366   7.995  0.3602  0.0513 -0.1853
  172SAPE  C31219551   1.092   1.185   8.070 -0.0811  0.5119  0.2832
  172SAPE  H12X19552   1.172   1.263   8.076  0.1981  0.1547  1.6153
  172SAPE  H12Y19553   1.125   1.092   8.019 -1.2048 -0.1248  0.6828
  172SAPE  C31319554   1.031   1.156   8.207  0.0623  0.0449 -0.1793
  172SAPE  H13X19555   0.941   1.091   8.196  0.9495 -1.8059  2.3546
  172SAPE  H13Y19556   1.004   1.255   8.249  0.5153  0.3068 -0.5079
  172SAPE  C31419557   1.134   1.075   8.297 -0.4415  0.2530 -0.6613
  172SAPE  H14X19558   1.218   1.145   8.317 -0.1604 -0.5531  1.1659
  172SAPE  H14Y19559   1.176   0.986   8.244 -0.1716 -0.5651  0.8633
  172SAPE  C31519560   1.079   1.033   8.435 -0.5194 -0.1135 -0.4633
  172SAPE  H15X19561   1.032   1.124   8.480  1.7695 -0.0220  2.0173
  172SAPE  H15Y19562   1.164   1.005   8.500  0.6540  0.3781 -1.7383
  172SAPE  C31619563   0.979   0.917   8.425 -0.6987  0.3760  0.3968
  172SAPE  H16X19564   1.039   0.832   8.388  0.2958 -0.2771  3.2600
  172SAPE  H16Y19565   0.896   0.929   8.351  0.4211 -0.5226 -1.0515
  172SAPE  C31719566   0.916   0.876   8.564  0.5303  0.3352  0.7050
  172SAPE  H17X19567   0.987   0.847   8.644  0.5763 -2.5511 -0.2606
  172SAPE  H17Y19568   0.845   0.790   8.560 -1.1953  1.4787  3.6640
  172SAPE  C31819569   0.822   0.989   8.616  0.5067 -0.0065  0.8008
  172SAPE  H18X19570   0.880   1.077   8.651  0.6260 -0.1688  1.0183
  172SAPE  H18Y19571   0.773   0.963   8.712  0.5173 -1.4884  0.4198
  172SAPE  H18Z19572   0.754   1.023   8.535 -0.3110 -0.0794  1.4404
  173SOPE     N19573   3.585   3.888  11.078  0.4468 -0.9186 -0.6159
  173SOPE   HN119574   3.579   3.946  11.164 -0.2289  3.1413 -3.1326
  173SOPE   HN219575   3.683   3.855  11.071  1.1096  0.4644  1.0816
  173SOPE   HN319576   3.560   3.946  10.996  0.7821 -1.2217 -0.9326
  173SOPE   C1219577   3.508   3.764  11.076 -0.1921  0.0663 -1.1001
  173SOPE  H12A19578   3.536   3.702  11.164 -1.5094  0.1308 -0.6181
  173SOPE  H12B19579   3.508   3.720  10.974 -3.0782  2.1285 -2.1120
  173SOPE   C1119580   3.366   3.806  11.093  0.8669  0.6956  0.2751
  173SOPE  H11A19581   3.359   3.870  11.184 -0.5891  0.5173  0.3112
  173SOPE  H11B19582   3.313   3.714  11.124 -0.5435  1.5073  0.3343
  173SOPE     P19583   3.268   3.997  10.962  0.2257 -0.2398  0.3186
  173SOPE   O1319584   3.384   4.084  10.976  0.6729 -0.1499 -0.4653
  173SOPE   O1419585   3.159   4.009  11.062  0.7006  0.2277 -0.0426
  173SOPE   O1219586   3.315   3.853  10.967 -0.1826  0.3589 -0.0526
  173SOPE   O1119587   3.200   4.010  10.826 -0.4954  0.0215  0.0524
  173SOPE    C119588   3.135   3.890  10.771 -0.1325 -0.5957  0.2486
  173SOPE    HA19589   3.052   3.934  10.712  0.1732  0.1626  0.3711
  173SOPE    HB19590   3.092   3.822  10.847  1.9363 -0.0024  2.0424
  173SOPE    C219591   3.226   3.806  10.678 -0.3739 -0.1095 -0.2932
  173SOPE    HS19592   3.326   3.790  10.723  0.1901  0.0575 -1.4435
  173SOPE   O2119593   3.229   3.872  10.548 -0.1274  0.2908  0.4919
  173SOPE   C2119594   3.332   3.950  10.533  0.2301  0.0009  0.5213
  173SOPE   O2219595   3.422   3.968  10.609  0.0311 -0.0068 -0.8864
  173SOPE   C2219596   3.319   4.018  10.394 -0.4075  0.0292 -0.2570
  173SOPE   H2R19597   3.213   4.051  10.389 -0.1586  1.1926  1.4581
  173SOPE   H2S19598   3.357   3.949  10.315  0.1904  0.5605 -0.4435
  173SOPE    C319599   3.180   3.660  10.649  0.8121 -0.5552 -0.7092
  173SOPE    HX19600   3.092   3.664  10.580  1.7246 -0.7036 -1.9059
  173SOPE    HY19601   3.149   3.604  10.740 -0.4264 -2.0772 -2.0011
  173SOPE   O3119602   3.280   3.584  10.586 -0.2169 -0.5455 -0.2964
  173SOPE   C3119603   3.383   3.540  10.656  1.0433 -0.3420 -0.2632
  173SOPE   O3219604   3.398   3.550  10.782  0.5071 -0.0922  1.0350
  173SOPE   C3219605   3.465   3.451  10.562 -0.2870 -0.3535  0.8942
  173SOPE   H2X19606   3.431   3.347  10.585 -0.7033  0.2866  3.5710
  173SOPE   H2Y19607   3.570   3.469  10.594 -0.2788  2.3183 -0.3816
  173SOPE   C2319608   3.404   4.148  10.390 -0.1561 -0.1733  0.5206
  173SOPE   H3R19609   3.512   4.127  10.397  0.0781  0.2949 -1.1580
  173SOPE   H3S19610   3.369   4.202  10.481 -1.3654 -0.5353  0.2936
  173SOPE   C2419611   3.371   4.248  10.279 -0.5107  0.0733  0.8222
  173SOPE   H4R19612   3.264   4.278  10.282  0.0782  2.3845  0.5563
  173SOPE   H4S19613   3.433   4.340  10.287  0.3132 -0.3770 -0.0900
  173SOPE   C2519614   3.393   4.177  10.149  0.6654 -0.1547  0.1628
  173SOPE   H5R19615   3.487   4.118  10.157  0.4482 -0.6928 -0.9912
  173SOPE   H5S19616   3.315   4.101  10.125 -0.3241  1.6131 -2.6771
  173SOPE   C2619617   3.386   4.282  10.033  0.3287 -0.4154 -0.5230
  173SOPE   H6R19618   3.292   4.340  10.048  1.7342  1.3036  2.2730
  173SOPE   H6S19619   3.475   4.344  10.053  0.8055 -1.5735  1.1392
  173SOPE   C2719620   3.406   4.231   9.890 -0.4105 -0.5567  0.0327
  173SOPE   H7R19621   3.508   4.189   9.895  0.7972  2.3208  2.3386
  173SOPE   H7S19622   3.331   4.150   9.872  0.3437 -1.1396 -0.5261
  173SOPE   C2819623   3.407   4.335   9.774  0.6741  0.0078 -0.0694
  173SOPE   H8R19624   3.464   4.424   9.809 -1.5726  1.6322 -0.2976
  173SOPE   H8S19625   3.462   4.282   9.693 -1.1234 -2.3494  0.1534
  173SOPE   C2919626   3.272   4.391   9.735 -0.2029  0.3697 -0.0393
  173SOPE   H9119627   3.216   4.424   9.824 -1.4053  1.2976 -1.1116
  173SOPE  C21019628   3.211   4.409   9.617 -0.0194  0.1833  0.5413
  173SOPE  H10119629   3.105   4.439   9.617  0.5748  2.5931 -0.6988
  173SOPE  C21119630   3.262   4.379   9.478 -0.5441 -0.4124  0.4497
  173SOPE  H11R19631   3.172   4.393   9.414 -0.9550 -1.8854  0.6726
  173SOPE  H11S19632   3.280   4.270   9.472 -0.2547 -0.4027  1.0971
  173SOPE  C21219633   3.384   4.463   9.438 -0.3204 -0.0847 -0.2397
  173SOPE  H12R19634   3.462   4.455   9.517 -2.5496 -0.7476  2.0126
  173SOPE  H12S19635   3.362   4.570   9.460  1.1782  0.0403  0.8357
  173SOPE  C21319636   3.433   4.454   9.293 -0.5272 -0.3373  0.6866
  173SOPE  H13R19637   3.521   4.522   9.296 -2.5757  2.4938  0.1801
  173SOPE  H13S19638   3.350   4.496   9.232  1.0096  1.5950 -0.1852
  173SOPE  C21419639   3.473   4.317   9.229 -0.5661  0.1175  0.1014
  173SOPE  H14R19640   3.390   4.243   9.239  0.2753 -0.6195  2.1566
  173SOPE  H14S19641   3.564   4.280   9.282 -1.6851 -0.3371  1.7720
  173SOPE  C21519642   3.487   4.339   9.078  0.6986 -0.5335  0.1175
  173SOPE  H15R19643   3.566   4.414   9.054  0.1488  0.7629  2.1421
  173SOPE  H15S19644   3.396   4.393   9.044  2.1860  2.5648  0.6772
  173SOPE  C21619645   3.500   4.214   8.999 -0.4347 -0.5476 -0.1407
  173SOPE  H16R19646   3.405   4.156   9.001 -2.3649  2.3207 -1.9492
  173SOPE  H16S19647   3.580   4.145   9.035 -1.4886 -2.3829 -1.1646
  173SOPE  C21719648   3.502   4.236   8.841 -0.1259 -0.1165 -1.3518
  173SOPE  H17R19649   3.433   4.306   8.791 -1.0844 -0.8008 -1.0244
  173SOPE  H17S19650   3.447   4.147   8.804  0.6814 -1.6777  0.9442
  173SOPE  C21819651   3.646   4.230   8.788 -0.0712 -0.9654  0.1798
  173SOPE  H18R19652   3.655   4.241   8.678  0.4929  0.3528  0.3471
  173SOPE  H18S19653   3.697   4.138   8.823  1.1036 -0.4569 -0.1585
  173SOPE  H18T19654   3.707   4.314   8.827 -0.4736 -0.8836  0.6376
  173SOPE   C3319655   3.442   3.490  10.415  0.2489 -0.3203 -0.5073
  173SOPE   H3X19656   3.445   3.600  10.402 -0.4109 -0.2530 -0.1259
  173SOPE   H3Y19657   3.341   3.457  10.383  1.3786 -3.0608 -1.5717
  173SOPE   C3419658   3.536   3.408  10.329  0.4076 -0.5162 -0.1547
  173SOPE   H4X19659   3.530   3.298  10.336  0.6353 -0.6026 -1.1680
  173SOPE   H4Y19660   3.639   3.433  10.362  0.7468 -0.5559 -1.1508
  173SOPE   C3519661   3.533   3.452  10.185  0.2377  0.6334  0.4835
  173SOPE   H5X19662   3.602   3.539  10.177  0.4914  0.5620  1.7272
  173SOPE   H5Y19663   3.433   3.494  10.162  0.8142  2.3074  0.8813
  173SOPE   C3619664   3.570   3.342  10.085 -0.2300  0.5681 -0.0566
  173SOPE   H6X19665   3.487   3.268  10.083  1.8742 -1.9591  0.6476
  173SOPE   H6Y19666   3.659   3.290  10.125 -0.7196 -1.9713 -1.9784
  173SOPE   C3719667   3.605   3.395   9.946 -0.9302  0.1158  0.3174
  173SOPE   H7X19668   3.644   3.499   9.958 -1.3544  0.2824  0.2713
  173SOPE   H7Y19669   3.513   3.407   9.885 -0.6388  1.2685  0.0722
  173SOPE   C3819670   3.710   3.311   9.868  0.2891 -0.1053 -0.4890
  173SOPE   H8X19671   3.674   3.208   9.847 -1.8749  0.1535  1.5561
  173SOPE   H8Y19672   3.808   3.311   9.921 -0.6235 -0.4514  1.2770
  173SOPE   C3919673   3.743   3.389   9.738 -0.3942  0.5143  0.5846
  173SOPE   H9X19674   3.774   3.492   9.765 -0.9583  0.6474  0.7335
  173SOPE   H9Y19675   3.653   3.385   9.674  1.5440  0.9788 -2.3210
  173SOPE  C31019676   3.856   3.320   9.665  0.1483  0.2950 -0.0061
  173SOPE  H10X19677   3.803   3.225   9.641  0.3109  0.0664  0.5150
  173SOPE  H10Y19678   3.937   3.301   9.739  0.2866  0.5748 -0.0849
  173SOPE  C31119679   3.918   3.391   9.537 -0.3025  0.5933 -0.4983
  173SOPE  H11X19680   4.018   3.347   9.517 -1.3296 -1.0324 -2.4989
  173SOPE  H11Y19681   3.923   3.499   9.563  4.9678  0.9108 -1.7368
  173SOPE  C31219682   3.828   3.370   9.414 -0.5749  0.3014 -0.3635
  173SOPE  H12X19683   3.721   3.396   9.421  0.1033  3.3075 -0.0112
  173SOPE  H12Y19684   3.837   3.261   9.394 -1.2600  0.2238 -0.2497
  173SOPE  C31319685   3.886   3.445   9.284 -0.6187  0.7731 -0.1867
  173SOPE  H13X19686   3.993   3.432   9.257 -0.5860  2.2108 -0.8665
  173SOPE  H13Y19687   3.886   3.555   9.295  0.6384  0.9868 -1.8383
  173SOPE  C31419688   3.809   3.406   9.158  0.0068  0.5355  0.1040
  173SOPE  H14X19689   3.725   3.478   9.152 -1.6848 -1.1858  1.5044
  173SOPE  H14Y19690   3.760   3.308   9.182  0.3580  1.0360  3.2849
  173SOPE  C31519691   3.898   3.417   9.033  0.0564  0.0178  0.4061
  173SOPE  H15X19692   3.928   3.524   9.021 -0.5186  0.2829  1.1737
  173SOPE  H15Y19693   3.847   3.401   8.936  1.1307  0.0429 -0.1771
  173SOPE  C31619694   4.027   3.329   9.026 -0.8057 -0.4602  0.1228
  173SOPE  H16X19695   3.996   3.226   8.998  0.9492 -1.2010  0.7699
  173SOPE  H16Y19696   4.085   3.320   9.120 -2.2777 -1.1156  1.0010
  173SOPE  C31719697   4.129   3.374   8.916  0.3692  0.1361 -0.2742
  173SOPE  H17X19698   4.157   3.480   8.935 -0.7152  0.6937 -1.5828
  173SOPE  H17Y19699   4.074   3.382   8.819  1.7062 -1.4980 -1.2036
  173SOPE  C31819700   4.242   3.270   8.899  0.4209 -0.3620 -0.4502
  173SOPE  H18X19701   4.310   3.269   8.987  0.7309 -0.8611 -0.6955
  173SOPE  H18Y19702   4.300   3.303   8.810  0.0808 -0.8931 -0.8663
  173SOPE  H18Z19703   4.186   3.176   8.886  1.3991 -1.6031  3.2169
  174SOPE     N19704   2.863   4.343  11.182  0.8593 -0.3536 -0.3728
  174SOPE   HN119705   2.879   4.262  11.118 -0.0119 -1.8916  1.2437
  174SOPE   HN219706   2.787   4.313  11.246  1.2602 -0.1307  0.2104
  174SOPE   HN319707   2.845   4.428  11.125 -1.3572  0.0793  0.8836
  174SOPE   C1219708   2.995   4.360  11.250 -0.2448 -0.2873 -0.7809
  174SOPE  H12A19709   3.012   4.269  11.311  2.6671  0.0955 -0.8476
  174SOPE  H12B19710   2.986   4.450  11.315  1.1844 -1.0555  0.5631
  174SOPE   C1119711   3.129   4.372  11.164  0.9736 -0.4368  0.2589
  174SOPE  H11A19712   3.151   4.283  11.101 -2.1693 -0.0069 -1.7239
  174SOPE  H11B19713   3.208   4.394  11.239  0.3597  0.1534  0.7469
  174SOPE     P19714   3.240   4.511  10.966  0.0151 -0.1448 -0.0470
  174SOPE   O1319715   3.379   4.475  10.996 -0.2491 -0.3558  0.2243
  174SOPE   O1419716   3.216   4.644  10.910  0.4345  0.3434  0.3771
  174SOPE   O1219717   3.131   4.485  11.078  0.0224 -0.6941  0.7205
  174SOPE   O1119718   3.198   4.405  10.860 -0.6499 -0.2189  0.4558
  174SOPE    C119719   3.066   4.405  10.800 -0.2266  0.2499  0.8993
  174SOPE    HA19720   3.036   4.506  10.766  1.6497  0.9270  1.1790
  174SOPE    HB19721   2.987   4.373  10.871 -1.6435  1.4210 -0.0787
  174SOPE    C219722   3.069   4.316  10.678  0.2330  0.6232  0.7635
  174SOPE    HS19723   3.147   4.236  10.681  1.9986  2.2575  0.5157
  174SOPE   O2119724   3.096   4.399  10.562 -0.0566  0.1645 -0.4404
  174SOPE   C2119725   3.217   4.433  10.542 -0.3374  0.3851  0.9376
  174SOPE   O2219726   3.321   4.392  10.592  0.2944  0.9860 -0.9897
  174SOPE   C2219727   3.220   4.558  10.450  0.2632  0.2554  0.7017
  174SOPE   H2R19728   3.154   4.640  10.483 -2.0461 -1.0229 -0.5026
  174SOPE   H2S19729   3.163   4.521  10.362 -0.4360  0.5630  1.0218
  174SOPE    C319730   2.941   4.237  10.658 -0.2439  0.0878 -0.1972
  174SOPE    HX19731   2.857   4.306  10.633  1.4062  2.2410 -0.1169
  174SOPE    HY19732   2.912   4.174  10.745  2.7698 -1.8910 -0.4992
  174SOPE   O3119733   2.964   4.154  10.541 -0.3350  0.4475  0.0775
  174SOPE   C3119734   2.866   4.114  10.466  0.4506  0.7121  0.2025
  174SOPE   O3219735   2.742   4.111  10.495  0.7536 -0.5377 -0.4600
  174SOPE   C3219736   2.923   4.060  10.329 -0.6513  0.0064  0.2403
  174SOPE   H2X19737   2.953   3.958  10.360  0.1122  0.5259  1.2950
  174SOPE   H2Y19738   3.011   4.123  10.305  0.4943 -1.0795  1.4368
  174SOPE   C2319739   3.366   4.615  10.431  0.2541 -0.4030  0.4854
  174SOPE   H3R19740   3.444   4.542  10.398  0.0483 -0.3861 -0.0330
  174SOPE   H3S19741   3.388   4.648  10.535 -1.4363 -1.8294  1.3581
  174SOPE   C2419742   3.367   4.728  10.321 -0.0374  1.0412 -0.9252
  174SOPE   H4R19743   3.303   4.810  10.360 -1.9697 -1.1959  0.9469
  174SOPE   H4S19744   3.469   4.758  10.291  0.7480 -1.9394 -1.4964
  174SOPE   C2519745   3.309   4.678  10.193 -0.6692  1.0704  0.0410
  174SOPE   H5R19746   3.340   4.572  10.183 -1.6213  0.8013 -0.1376
  174SOPE   H5S19747   3.198   4.683  10.186 -1.1789 -1.4107  3.5205
  174SOPE   C2619748   3.350   4.761  10.071  0.2309  0.1242 -0.5194
  174SOPE   H6R19749   3.306   4.862  10.088 -0.6622 -0.2710 -0.4294
  174SOPE   H6S19750   3.461   4.765  10.069  0.4082 -2.1958  1.2343
  174SOPE   C2719751   3.306   4.697   9.939 -0.8164 -0.2982  0.3715
  174SOPE   H7R19752   3.359   4.741   9.852  2.4904  1.0975  2.8330
  174SOPE   H7S19753   3.341   4.591   9.942 -1.3689 -0.5764 -1.8014
  174SOPE   C2819754   3.156   4.690   9.910  0.0050  0.0602 -0.9054
  174SOPE   H8R19755   3.147   4.615   9.829 -2.5775 -1.1736  0.4102
  174SOPE   H8S19756   3.102   4.654  10.000 -0.5074  4.2370  0.6653
  174SOPE   C2919757   3.082   4.814   9.874  0.0232  0.0571 -0.1966
  174SOPE   H9119758   3.080   4.893   9.951 -0.6637 -0.1136 -0.0278
  174SOPE  C21019759   3.045   4.842   9.749  0.0906  0.1843 -0.2260
  174SOPE  H10119760   2.989   4.935   9.732 -2.3087 -0.5719  2.6542
  174SOPE  C21119761   3.068   4.747   9.633 -0.4916  0.3952 -0.1277
  174SOPE  H11R19762   3.009   4.654   9.650 -0.2286  0.6902  2.9288
  174SOPE  H11S19763   3.172   4.723   9.600 -0.5051  2.6185 -2.0998
  174SOPE  C21219764   3.011   4.812   9.506 -0.0924 -0.3096 -1.0204
  174SOPE  H12R19765   3.069   4.905   9.492 -0.2487  0.1119  0.7785
  174SOPE  H12S19766   2.906   4.845   9.524  0.4103  1.8491 -1.8332
  174SOPE  C21319767   3.009   4.707   9.393 -0.7577 -0.2328 -0.0424
  174SOPE  H13R19768   2.981   4.611   9.441  0.5915 -0.6662 -0.0898
  174SOPE  H13S19769   3.112   4.698   9.353 -0.4880  2.0765 -0.0374
  174SOPE  C21419770   2.914   4.741   9.282 -0.4409  1.1620  0.3765
  174SOPE  H14R19771   2.937   4.840   9.238  0.4739  0.3460 -1.0727
  174SOPE  H14S19772   2.822   4.771   9.335  1.3165  2.8644  2.6774
  174SOPE  C21519773   2.903   4.634   9.176  1.2136 -0.5028  0.1394
  174SOPE  H15R19774   2.820   4.666   9.109  0.0390 -1.0241  1.3053
  174SOPE  H15S19775   2.859   4.546   9.227 -1.3737  0.0500 -0.9619
  174SOPE  C21619776   3.035   4.606   9.102  0.6596 -0.0146 -0.3578
  174SOPE  H16R19777   3.128   4.605   9.163 -0.1240  0.8515  0.8926
  174SOPE  H16S19778   3.051   4.693   9.036  2.1854 -0.7017 -0.9568
  174SOPE  C21719779   3.040   4.485   9.015 -0.0602  0.2659  0.2527
  174SOPE  H17R19780   3.097   4.500   8.921 -0.7708  1.6626  0.0086
  174SOPE  H17S19781   2.938   4.456   8.981  0.4762  0.7975 -1.9693
  174SOPE  C21819782   3.079   4.352   9.098  0.2247  0.0025  0.4198
  174SOPE  H18R19783   3.185   4.371   9.125  0.8405  0.6383 -2.1988
  174SOPE  H18S19784   3.065   4.269   9.025  0.0590 -0.3164  0.8113
  174SOPE  H18T19785   3.037   4.327   9.198  1.1972 -0.8869  0.6198
  174SOPE   C3319786   2.812   4.066  10.221  0.4522 -0.3176 -0.1761
  174SOPE   H3X19787   2.775   4.170  10.208  1.9212  0.1581 -0.6511
  174SOPE   H3Y19788   2.725   4.012  10.265  0.1567 -1.0299 -1.5611
  174SOPE   C3419789   2.846   4.003  10.082  0.0750  0.7226 -0.6122
  174SOPE   H4X19790   2.764   3.983  10.010  1.2033  0.6738 -1.9248
  174SOPE   H4Y19791   2.893   3.908  10.116  2.6479  1.7933 -0.9790
  174SOPE   C3519792   2.945   4.089   9.999 -0.2161 -0.1844  0.1957
  174SOPE   H5X19793   3.046   4.086  10.044 -0.3932  0.2226  0.6312
  174SOPE   H5Y19794   2.912   4.195   9.995  0.8983  0.1734  0.1714
  174SOPE   C3619795   2.958   4.027   9.858 -0.0359  0.4516  1.3942
  174SOPE   H6X19796   2.853   4.031   9.822  0.4567  0.7502 -0.0552
  174SOPE   H6Y19797   2.997   3.923   9.864  0.3108  0.6335  2.6624
  174SOPE   C3719798   3.047   4.114   9.770 -0.4307 -0.2038  0.9385
  174SOPE   H7X19799   3.153   4.088   9.791 -0.7783 -0.9383  1.9033
  174SOPE   H7Y19800   3.031   4.220   9.796  1.6989  0.0828  1.3032
  174SOPE   C3819801   3.018   4.093   9.619 -0.4420 -0.8790  0.0864
  174SOPE   H8X19802   3.065   4.177   9.563  0.1979 -2.7075 -2.2944
  174SOPE   H8Y19803   2.908   4.098   9.603 -0.5003  1.6192  0.8424
  174SOPE   C3919804   3.066   3.962   9.562  0.1896 -0.5003  0.0886
  174SOPE   H9X19805   3.048   3.889   9.644  2.4201 -1.2844 -0.0440
  174SOPE   H9Y19806   3.176   3.953   9.549  0.1374 -2.3946  0.6383
  174SOPE  C31019807   2.990   3.932   9.430 -0.0849  0.3927  0.5114
  174SOPE  H10X19808   2.883   3.947   9.460 -0.0664 -0.4695  1.0363
  174SOPE  H10Y19809   3.008   3.828   9.396  0.4705  0.5970  0.1726
  174SOPE  C31119810   3.027   4.020   9.305  0.3960 -0.7086  0.9915
  174SOPE  H11X19811   3.019   4.129   9.320  0.2311 -0.8136  1.6665
  174SOPE  H11Y19812   2.954   3.996   9.224  1.3165 -0.3504  0.0266
  174SOPE  C31219813   3.161   3.981   9.243  0.5597 -0.8928  0.7037
  174SOPE  H12X19814   3.240   4.001   9.319  2.3992 -0.1953 -1.2683
  174SOPE  H12Y19815   3.167   4.062   9.167  1.0366 -0.7457  0.8948
  174SOPE  C31319816   3.161   3.840   9.176 -0.1498 -0.0079 -0.3650
  174SOPE  H13X19817   3.062   3.820   9.129 -0.7209  2.5116 -0.4055
  174SOPE  H13Y19818   3.161   3.781   9.270 -1.5869  2.2578  1.1764
  174SOPE  C31419819   3.264   3.802   9.066 -0.4733  0.8552 -0.2456
  174SOPE  H14X19820   3.372   3.817   9.090  0.5876 -1.4208 -3.0588
  174SOPE  H14Y19821   3.248   3.890   9.000 -2.3006 -0.7210 -2.0218
  174SOPE  C31519822   3.247   3.658   9.019 -0.3560  0.4033  0.3375
  174SOPE  H15X19823   3.147   3.630   8.980  0.0395  0.4047 -0.7043
  174SOPE  H15Y19824   3.290   3.588   9.093  0.8421 -0.5316 -1.1886
  174SOPE  C31619825   3.335   3.627   8.894  0.0616  0.9305  0.6783
  174SOPE  H16X19826   3.440   3.646   8.926  0.6461  1.6030 -1.4334
  174SOPE  H16Y19827   3.315   3.692   8.807  3.1718  0.1268 -0.8039
  174SOPE  C31719828   3.328   3.473   8.847 -0.1283 -0.0870 -0.0625
  174SOPE  H17X19829   3.233   3.474   8.789 -0.0113  0.6505 -0.2585
  174SOPE  H17Y19830   3.318   3.418   8.942  0.4561 -1.1673 -0.6150
  174SOPE  C31819831   3.453   3.428   8.770  0.4262  0.9403  0.6100
  174SOPE  H18X19832   3.543   3.490   8.786  0.3185  0.7916  1.9364
  174SOPE  H18Y19833   3.437   3.448   8.662  0.1843  0.9693  0.6504
  174SOPE  H18Z19834   3.463   3.318   8.781  0.8663  1.0756  1.7298
  175SOPE     N19835   4.467   6.293  10.679  0.1482 -0.7049  0.2433
  175SOPE   HN119836   4.557   6.344  10.675 -0.2630 -0.0126 -0.7014
  175SOPE   HN219837   4.494   6.196  10.654 -3.3510 -1.7399 -0.0466
  175SOPE   HN319838   4.417   6.328  10.594 -0.8195 -0.6264  0.8331
  175SOPE   C1219839   4.393   6.309  10.819 -0.3815  0.1869  0.2855
  175SOPE  H12A19840   4.411   6.417  10.842 -0.1897 -0.1396  1.8091
  175SOPE  H12B19841   4.444   6.247  10.896 -1.0839  0.4416  0.9749
  175SOPE   C1119842   4.242   6.278  10.815 -0.8595 -0.2327 -0.8162
  175SOPE  H11A19843   4.214   6.299  10.921 -1.6677 -2.7435 -0.4484
  175SOPE  H11B19844   4.236   6.168  10.800  0.1992 -0.6414  1.3208
  175SOPE     P19845   4.019   6.349  10.689  0.0435 -0.0453  0.0791
  175SOPE   O1319846   3.978   6.455  10.595 -0.1607 -0.5857 -0.1125
  175SOPE   O1419847   3.953   6.354  10.819  0.4641 -0.3398 -0.1111
  175SOPE   O1219848   4.173   6.356  10.718 -0.1104  0.0206 -0.2897
  175SOPE   O1119849   3.994   6.209  10.627  0.3671  0.1774 -0.5540
  175SOPE    C119850   4.006   6.170  10.492 -0.2576 -0.4907 -0.1383
  175SOPE    HA19851   4.027   6.257  10.426 -0.1822 -1.6071 -1.6519
  175SOPE    HB19852   3.909   6.134  10.451 -0.0275  1.6457 -2.7898
  175SOPE    C219853   4.113   6.061  10.471 -0.3757 -0.2185  0.0989
  175SOPE    HS19854   4.214   6.102  10.492  0.0317 -1.1561  0.0326
  175SOPE   O2119855   4.104   6.013  10.337  0.4346  0.4429 -0.1980
  175SOPE   C2119856   4.155   6.093  10.245  0.7795  0.0026 -0.2708
  175SOPE   O2219857   4.207   6.200  10.271 -0.3601  0.0986  0.0274
  175SOPE   C2219858   4.143   6.031  10.110  0.0989  0.3067  0.3274
  175SOPE   H2R19859   4.054   5.964  10.116  0.3147  0.0861  1.1830
  175SOPE   H2S19860   4.236   5.976  10.085  0.7940  2.5295 -2.4137
  175SOPE    C319861   4.087   5.946  10.562 -0.1585 -0.0349 -0.1513
  175SOPE    HX19862   3.977   5.932  10.558 -0.2140 -0.2695  1.6362
  175SOPE    HY19863   4.100   5.972  10.669 -1.7682  1.2356 -0.2262
  175SOPE   O3119864   4.171   5.833  10.527  0.5020  0.0773 -0.1711
  175SOPE   C3119865   4.119   5.717  10.566  0.9735  0.2666 -0.2290
  175SOPE   O3219866   4.024   5.702  10.643  0.4775 -0.1874  0.2465
  175SOPE   C3219867   4.205   5.598  10.525  1.2308 -0.7750 -0.1651
  175SOPE   H2X19868   4.180   5.519  10.598  1.9028 -0.8224  0.0187
  175SOPE   H2Y19869   4.312   5.624  10.532  0.6416  1.6871  0.7240
  175SOPE   C2319870   4.130   6.139   9.999  0.1151 -0.7075  1.1102
  175SOPE   H3R19871   4.221   6.201  10.011 -1.1495  1.5988 -0.4778
  175SOPE   H3S19872   4.036   6.198  10.003  0.2826 -0.0836 -2.1082
  175SOPE   C2419873   4.143   6.073   9.865  0.0653  0.8300  0.2297
  175SOPE   H4R19874   4.125   6.159   9.796  0.3298 -1.3865 -2.7944
  175SOPE   H4S19875   4.244   6.031   9.846 -0.7478 -0.5948 -1.1890
  175SOPE   C2519876   4.043   5.964   9.832  0.3427 -0.1248  0.0326
  175SOPE   H5R19877   4.066   5.864   9.874 -2.8520 -1.1319 -0.3454
  175SOPE   H5S19878   3.941   5.989   9.869 -0.1444 -0.5828 -0.9694
  175SOPE   C2619879   4.047   5.953   9.679  0.1447  0.0180 -0.2772
  175SOPE   H6R19880   4.051   6.055   9.636 -0.3809  1.3477  2.6191
  175SOPE   H6S19881   4.140   5.913   9.634  1.0621  1.7674  0.0053
  175SOPE   C2719882   3.926   5.882   9.611 -0.4096  0.2411  0.1758
  175SOPE   H7R19883   3.925   5.780   9.655 -0.8252  0.2813  0.2606
  175SOPE   H7S19884   3.830   5.929   9.640 -1.2194 -0.3118 -1.4715
  175SOPE   C2819885   3.945   5.863   9.451 -0.5742 -0.0168 -0.2521
  175SOPE   H8R19886   3.958   5.961   9.401  1.2119  0.1791  0.5073
  175SOPE   H8S19887   4.030   5.795   9.434 -1.7151 -1.2204 -1.3057
  175SOPE   C2919888   3.817   5.796   9.406  1.4771 -0.4459 -0.0771
  175SOPE   H9119889   3.812   5.691   9.439 -0.7308 -0.4085 -0.1382
  175SOPE  C21019890   3.705   5.844   9.340  0.2764  1.1780  0.3303
  175SOPE  H10119891   3.616   5.778   9.341  2.8110 -2.5656  1.6503
  175SOPE  C21119892   3.683   5.981   9.288  0.1468 -0.2930  0.5485
  175SOPE  H11R19893   3.738   6.052   9.352  2.6361 -1.5542 -0.0589
  175SOPE  H11S19894   3.576   6.010   9.291  0.3422  0.6123 -0.6014
  175SOPE  C21219895   3.723   6.001   9.142  0.5895 -0.4054 -0.4869
  175SOPE  H12R19896   3.828   5.971   9.123  0.8155  0.9025 -1.4615
  175SOPE  H12S19897   3.733   6.109   9.122 -0.5941 -0.4501 -1.4743
  175SOPE  C21319898   3.621   5.938   9.047 -0.2002  0.1616 -0.3129
  175SOPE  H13R19899   3.528   5.998   9.055 -0.7245 -0.7202  0.3455
  175SOPE  H13S19900   3.609   5.835   9.085  0.1089 -0.3323 -1.5117
  175SOPE  C21419901   3.655   5.921   8.894 -0.2711 -0.3027 -0.8404
  175SOPE  H14R19902   3.692   6.016   8.850  0.0770  0.2765  0.6195
  175SOPE  H14S19903   3.563   5.882   8.846  0.7180 -1.1136 -2.1199
  175SOPE  C21519904   3.762   5.805   8.857  0.1026 -0.0634 -0.2430
  175SOPE  H15R19905   3.779   5.809   8.747 -0.2996  0.7602 -0.2786
  175SOPE  H15S19906   3.700   5.716   8.883  0.7188 -1.1091 -2.1640
  175SOPE  C21619907   3.895   5.806   8.935 -0.4922  0.1377  0.7182
  175SOPE  H16R19908   3.879   5.771   9.039  2.0773  1.5337  1.6817
  175SOPE  H16S19909   3.934   5.909   8.948 -1.0522  0.2137  1.8786
  175SOPE  C21719910   3.994   5.712   8.863 -0.3154 -0.2692 -0.1071
  175SOPE  H17R19911   4.086   5.722   8.924 -1.2073  0.8200  1.1155
  175SOPE  H17S19912   4.007   5.733   8.755  2.6953 -1.5944 -0.0877
  175SOPE  C21819913   3.955   5.563   8.886 -0.1326  0.5776 -0.1846
  175SOPE  H18R19914   3.852   5.540   8.849  0.3875 -2.3891  0.0453
  175SOPE  H18S19915   3.955   5.548   8.996  0.0794  4.1988  0.4514
  175SOPE  H18T19916   4.035   5.498   8.844 -2.0210 -3.2426  1.6645
  175SOPE   C3319917   4.164   5.547  10.385 -0.3218 -0.0634 -0.0739
  175SOPE   H3X19918   4.055   5.529  10.379  0.0286 -2.6989  0.1525
  175SOPE   H3Y19919   4.224   5.455  10.369  0.9883  0.7857 -0.2311
  175SOPE   C3419920   4.206   5.637  10.266  0.3520  0.0720  0.3204
  175SOPE   H4X19921   4.317   5.640  10.271  0.4120 -0.3136 -0.6546
  175SOPE   H4Y19922   4.165   5.739  10.285 -0.4858 -0.1414 -0.2854
  175SOPE   C3519923   4.172   5.576  10.133 -0.2755  0.5455 -0.0099
  175SOPE   H5X19924   4.064   5.553  10.130 -0.0322 -0.5175 -1.3204
  175SOPE   H5Y19925   4.215   5.473  10.134  0.2151  0.7349 -0.7685
  175SOPE   C3619926   4.216   5.634  10.001  0.0399  0.4696  0.4837
  175SOPE   H6X19927   4.326   5.624   9.989 -0.1329  0.0704 -1.0640
  175SOPE   H6Y19928   4.204   5.745  10.006 -2.6208  0.2560  0.4069
  175SOPE   C3719929   4.147   5.577   9.871 -0.8502  0.3854  0.3855
  175SOPE   H7X19930   4.051   5.633   9.868 -2.2916 -1.9898 -1.4735
  175SOPE   H7Y19931   4.122   5.469   9.880  0.3686  0.1207  0.7674
  175SOPE   C3819932   4.228   5.603   9.747  0.4825 -0.1300 -0.0241
  175SOPE   H8X19933   4.318   5.542   9.771 -1.3404 -2.8829  0.2115
  175SOPE   H8Y19934   4.249   5.713   9.742  1.8804 -0.2497  1.8227
  175SOPE   C3919935   4.152   5.548   9.632 -0.5924 -0.4414 -0.2076
  175SOPE   H9X19936   4.045   5.573   9.615 -0.1871 -0.0849 -2.4365
  175SOPE   H9Y19937   4.154   5.438   9.641 -1.3804 -0.4399  0.0827
  175SOPE  C31019938   4.217   5.587   9.496 -0.3690  0.0043 -0.4459
  175SOPE  H10X19939   4.327   5.572   9.487 -0.5312 -0.9590 -0.9397
  175SOPE  H10Y19940   4.213   5.696   9.472  0.2723 -0.4980 -3.2252
  175SOPE  C31119941   4.153   5.515   9.382  0.0505 -0.1372 -0.3590
  175SOPE  H11X19942   4.043   5.511   9.391  0.0919  1.0018  1.1001
  175SOPE  H11Y19943   4.181   5.408   9.385 -0.3882 -0.4984 -4.3283
  175SOPE  C31219944   4.186   5.579   9.250 -0.4097 -0.6181  0.4582
  175SOPE  H12X19945   4.195   5.688   9.266 -1.8803 -0.4262  0.0861
  175SOPE  H12Y19946   4.109   5.560   9.173 -0.1155 -1.8571  0.4400
  175SOPE  C31319947   4.326   5.533   9.196  0.6000 -0.3963 -0.6266
  175SOPE  H13X19948   4.329   5.422   9.201  1.2602 -0.3340  0.7193
  175SOPE  H13Y19949   4.401   5.575   9.265  0.6628  0.2268 -1.0667
  175SOPE  C31419950   4.350   5.590   9.061  0.0682  0.2321  1.0684
  175SOPE  H14X19951   4.336   5.699   9.080  3.0140  1.0939 -0.9373
  175SOPE  H14Y19952   4.282   5.559   8.979  1.1220 -0.6452  0.5102
  175SOPE  C31519953   4.495   5.563   9.013  0.3132  0.5383 -0.1108
  175SOPE  H15X19954   4.521   5.456   9.027 -0.0407  0.2972 -1.1522
  175SOPE  H15Y19955   4.564   5.617   9.082 -0.5331 -0.3305  1.4769
  175SOPE  C31619956   4.527   5.601   8.871 -0.6153 -0.6172  0.1262
  175SOPE  H16X19957   4.506   5.707   8.844  3.8447  0.7737  1.1443
  175SOPE  H16Y19958   4.466   5.540   8.802  0.4831 -0.8129 -0.7117
  175SOPE  C31719959   4.678   5.599   8.844 -0.1925  0.7510  0.0611
  175SOPE  H17X19960   4.684   5.567   8.738 -1.3459  0.1690  0.1597
  175SOPE  H17Y19961   4.717   5.513   8.902 -0.9954 -0.3003 -0.9340
  175SOPE  C31819962   4.759   5.733   8.858 -0.0776  0.6425  0.2559
  175SOPE  H18X19963   4.764   5.748   8.968 -0.6901  1.5101  0.1784
  175SOPE  H18Y19964   4.704   5.822   8.820  0.9497  0.9865 -0.4294
  175SOPE  H18Z19965   4.860   5.729   8.813  0.7027  0.9979  1.9023
  176SOPE     N19966   4.385   3.788  11.251  0.0950  0.2183  0.2453
  176SOPE   HN119967   4.431   3.725  11.182 -1.9235  0.8789 -1.8437
  176SOPE   HN219968   4.401   3.889  11.230  0.3655  0.2031  0.3734
  176SOPE   HN319969   4.422   3.762  11.344  1.3172  0.7625 -0.0661
  176SOPE   C1219970   4.243   3.737  11.239 -0.0299  0.6209 -0.0095
  176SOPE  H12A19971   4.185   3.763  11.331 -0.8384 -1.4904  0.1415
  176SOPE  H12B19972   4.253   3.626  11.242 -1.0712  0.4821 -1.0901
  176SOPE   C1119973   4.182   3.782  11.106  0.7908  0.3310  0.4150
  176SOPE  H11A19974   4.226   3.723  11.023  1.2583  1.0039  0.1744
  176SOPE  H11B19975   4.198   3.892  11.100  0.8277  0.2604 -1.0534
  176SOPE     P19976   3.940   3.818  11.018 -0.0864 -0.1303  0.0989
  176SOPE   O1319977   3.941   3.966  11.018  0.1496 -0.5261  0.1863
  176SOPE   O1419978   3.812   3.754  11.032  0.1878 -0.2300 -0.6361
  176SOPE   O1219979   4.044   3.755  11.125 -0.5745 -0.0291  0.3170
  176SOPE   O1119980   4.001   3.763  10.881  0.0447 -0.1439 -0.2071
  176SOPE    C119981   4.080   3.849  10.798  0.6901  0.2223 -0.1004
  176SOPE    HA19982   4.170   3.794  10.764  0.2753 -0.7463  0.3219
  176SOPE    HB19983   4.111   3.942  10.851  0.7656  0.5287 -0.6790
  176SOPE    C219984   4.024   3.885  10.660  0.7099 -0.5051 -0.1548
  176SOPE    HS19985   3.920   3.915  10.682  1.3145  1.6609  0.0044
  176SOPE   O2119986   4.044   3.779  10.561  0.0906 -0.1073  0.1016
  176SOPE   C2119987   3.953   3.682  10.573 -0.3652  0.0367 -1.3522
  176SOPE   O2219988   3.847   3.693  10.640  0.1901 -0.1155  0.2616
  176SOPE   C2219989   3.996   3.554  10.501 -0.2292 -0.1020 -0.5563
  176SOPE   H2R19990   3.928   3.476  10.541  1.2321 -0.8995  0.4394
  176SOPE   H2S19991   4.100   3.524  10.526 -0.1313 -1.3482 -2.2386
  176SOPE    C319992   4.086   4.020  10.616 -0.2188 -0.2731  0.2375
  176SOPE    HX19993   4.196   4.007  10.605  0.3845  3.0986  1.2153
  176SOPE    HY19994   4.076   4.097  10.696 -1.5795  0.4144 -0.5567
  176SOPE   O3119995   4.035   4.089  10.497  0.2078  0.3365 -0.9903
  176SOPE   C3119996   3.910   4.135  10.493  0.3156 -0.0723  0.8085
  176SOPE   O3219997   3.816   4.093  10.555 -0.4920  0.1379 -0.4579
  176SOPE   C3219998   3.915   4.229  10.366 -0.3091  0.4110 -0.5777
  176SOPE   H2X19999   3.973   4.183  10.283  1.0623 -0.1072  0.6227
  176SOPE   H2Y20000   3.972   4.313  10.412  0.2899 -0.0586 -0.4530
  176SOPE   C2320001   3.993   3.552  10.347 -0.6976 -0.7144  0.3477
  176SOPE   H3R20002   3.902   3.592  10.297 -0.6227 -3.0203 -1.8385
  176SOPE   H3S20003   4.000   3.444  10.322  1.4251 -0.1905 -1.6571
  176SOPE   C2420004   4.127   3.615  10.284 -0.3815  0.4257  0.1682
  176SOPE   H4R20005   4.135   3.720  10.321 -0.1680  0.1098  1.0305
  176SOPE   H4S20006   4.210   3.559  10.332 -0.4075 -0.7946 -1.1550
  176SOPE   C2520007   4.144   3.612  10.129  0.0933  0.3874  0.2044
  176SOPE   H5R20008   4.247   3.633  10.092  0.6817 -0.6172  1.2229
  176SOPE   H5S20009   4.127   3.508  10.093 -2.1132  1.7549 -3.2356
  176SOPE   C2620010   4.041   3.706  10.063  0.5264  0.1117 -0.2509
  176SOPE   H6R20011   4.022   3.792  10.131 -3.0211 -1.0719  0.4857
  176SOPE   H6S20012   4.091   3.759   9.979  0.2795  0.2296 -0.3230
  176SOPE   C2720013   3.906   3.656  10.005 -0.2377 -0.4432 -0.8077
  176SOPE   H7R20014   3.922   3.574   9.931 -0.7426 -0.6094 -0.7396
  176SOPE   H7S20015   3.848   3.607  10.087 -2.1752  1.7091 -0.7930
  176SOPE   C2820016   3.827   3.771   9.939  0.1096  0.4769  0.3389
  176SOPE   H8R20017   3.895   3.840   9.884  1.0519 -0.8297 -0.1879
  176SOPE   H8S20018   3.763   3.729   9.859  0.8902  0.2789 -0.1891
  176SOPE   C2920019   3.754   3.854  10.044  0.2417 -0.3077 -0.7433
  176SOPE   H9120020   3.820   3.918  10.104 -0.9468 -0.5635  0.9149
  176SOPE  C21020021   3.619   3.849  10.067 -0.8996  0.0009 -0.1612
  176SOPE  H10120022   3.576   3.910  10.148 -0.8137 -0.2403  0.0661
  176SOPE  C21120023   3.518   3.759  10.007  0.6613 -0.8941 -0.2572
  176SOPE  H11R20024   3.464   3.700  10.084  0.2878 -0.0573  0.1436
  176SOPE  H11S20025   3.573   3.686   9.944  1.1486 -1.4775  0.8307
  176SOPE  C21220026   3.397   3.838   9.936 -0.2197  0.4060 -0.1537
  176SOPE  H12R20027   3.393   3.945   9.966  0.8759  0.5558 -0.4799
  176SOPE  H12S20028   3.301   3.788   9.959 -0.1436  1.0624  1.7494
  176SOPE  C21320029   3.410   3.831   9.781  0.3532 -0.2586 -0.2421
  176SOPE  H13R20030   3.316   3.876   9.742  0.0764 -1.9664 -1.6949
  176SOPE  H13S20031   3.410   3.723   9.755  0.1497 -0.2366 -0.3355
  176SOPE  C21420032   3.529   3.896   9.732  0.3218 -0.4844  0.4853
  176SOPE  H14R20033   3.625   3.845   9.758 -0.4156 -2.8816 -1.2078
  176SOPE  H14S20034   3.540   3.998   9.776 -2.5459 -1.1174  3.0397
  176SOPE  C21520035   3.518   3.916   9.583 -0.3644 -0.5246 -0.3818
  176SOPE  H15R20036   3.569   4.009   9.550  1.8685 -0.5614  2.5823
  176SOPE  H15S20037   3.412   3.933   9.554  0.0993  1.0986 -1.2138
  176SOPE  C21620038   3.582   3.796   9.515  0.6183 -0.2696 -0.1079
  176SOPE  H16R20039   3.529   3.706   9.552  1.3351 -0.5798  0.1728
  176SOPE  H16S20040   3.687   3.799   9.551  0.4543 -0.4834  0.3919
  176SOPE  C21720041   3.575   3.826   9.360 -0.4411  0.1377  0.1085
  176SOPE  H17R20042   3.644   3.910   9.337 -1.1338  0.3008 -1.5031
  176SOPE  H17S20043   3.483   3.876   9.325  0.1424 -0.0415 -1.7767
  176SOPE  C21820044   3.620   3.714   9.267 -0.3818 -0.0549 -0.7896
  176SOPE  H18R20045   3.595   3.740   9.162 -3.1055 -0.9220 -0.4265
  176SOPE  H18S20046   3.569   3.617   9.285 -2.3453  1.1145  0.2374
  176SOPE  H18T20047   3.730   3.697   9.274 -0.4169  0.1274  0.3685
  176SOPE   C3320048   3.778   4.271  10.317 -0.3258  0.0425 -0.4202
  176SOPE   H3X20049   3.746   4.328  10.407  0.8673 -3.6395  2.6098
  176SOPE   H3Y20050   3.715   4.179  10.317  0.5255 -0.6841  2.9364
  176SOPE   C3420051   3.781   4.355  10.181 -0.5464 -0.0442 -0.3271
  176SOPE   H4X20052   3.867   4.425  10.186  0.3797 -1.1313 -0.4553
  176SOPE   H4Y20053   3.683   4.406  10.171 -0.1584  1.1558  1.4747
  176SOPE   C3520054   3.798   4.261  10.065 -0.3921  0.6447 -0.2806
  176SOPE   H5X20055   3.711   4.191  10.064 -0.2889  0.4854  0.6783
  176SOPE   H5Y20056   3.881   4.188  10.078  0.0780  1.0161 -1.1648
  176SOPE   C3620057   3.819   4.333   9.933  0.1680 -0.7554 -0.1751
  176SOPE   H6X20058   3.898   4.410   9.939  0.0849 -0.3405 -2.9464
  176SOPE   H6Y20059   3.729   4.394   9.912  1.3370  1.6795  1.4286
  176SOPE   C3720060   3.850   4.238   9.816 -0.4651  0.3487 -0.3517
  176SOPE   H7X20061   3.771   4.160   9.805 -1.6989  1.2339  1.6685
  176SOPE   H7Y20062   3.939   4.183   9.852 -1.0957  0.9761  2.3339
  176SOPE   C3820063   3.860   4.313   9.684  0.9874  0.0618  0.3037
  176SOPE   H8X20064   3.950   4.377   9.680  0.6361  0.5221 -0.4140
  176SOPE   H8Y20065   3.768   4.376   9.685  1.2619  0.4646  0.5009
  176SOPE   C3920066   3.854   4.233   9.552  0.3878  0.4213  0.5512
  176SOPE   H9X20067   3.766   4.167   9.534  1.0427 -0.7042  1.3437
  176SOPE   H9Y20068   3.941   4.164   9.560  0.6472  0.9059  2.2919
  176SOPE  C31020069   3.868   4.320   9.431  0.1351 -0.0081  0.2632
  176SOPE  H10X20070   3.939   4.403   9.454  3.0972 -2.4953  0.7575
  176SOPE  H10Y20071   3.767   4.366   9.426 -0.3259 -0.4123  3.5574
  176SOPE  C31120072   3.900   4.248   9.294 -0.2587 -0.4531 -0.5102
  176SOPE  H11X20073   4.011   4.244   9.294 -0.2133  0.1616  1.1774
  176SOPE  H11Y20074   3.866   4.311   9.209 -0.9569 -2.0998 -1.4905
  176SOPE  C31220075   3.837   4.110   9.267 -0.0797 -0.4061  0.5770
  176SOPE  H12X20076   3.727   4.116   9.250  0.3984  0.9676 -2.8276
  176SOPE  H12Y20077   3.855   4.036   9.348 -2.8432 -2.4200 -0.4905
  176SOPE  C31320078   3.881   4.044   9.136  0.9447 -0.4853  0.2187
  176SOPE  H13X20079   3.989   4.022   9.145  1.1520 -0.3439 -1.5558
  176SOPE  H13Y20080   3.868   4.116   9.052 -0.2703  0.1108  0.8978
  176SOPE  C31420081   3.813   3.917   9.105  0.1301 -0.2630 -0.1018
  176SOPE  H14X20082   3.703   3.932   9.113  0.0690 -0.2018 -1.0328
  176SOPE  H14Y20083   3.847   3.840   9.177  0.2767 -1.7506 -1.7056
  176SOPE  C31520084   3.851   3.860   8.965 -0.1530  0.2780  0.8195
  176SOPE  H15X20085   3.800   3.917   8.884 -1.5841 -1.9670  0.0463
  176SOPE  H15Y20086   3.808   3.758   8.961 -0.3134  0.3513  0.6671
  176SOPE  C31620087   4.007   3.868   8.946  0.4261 -0.1582  0.1245
  176SOPE  H16X20088   4.043   3.973   8.949  0.0921 -0.0224 -0.5367
  176SOPE  H16Y20089   4.034   3.819   8.851  0.3869  1.7654 -0.9376
  176SOPE  C31720090   4.085   3.798   9.058 -0.1750  0.1155 -0.5912
  176SOPE  H17X20091   4.027   3.707   9.085  1.2027 -1.0414 -1.4266
  176SOPE  H17Y20092   4.095   3.852   9.154 -3.8399 -0.5376  0.3375
  176SOPE  C31820093   4.224   3.769   9.012  0.1130 -0.0821 -0.1651
  176SOPE  H18X20094   4.227   3.710   8.918  0.6613  0.4419 -0.4845
  176SOPE  H18Y20095   4.274   3.717   9.096  0.6317 -0.9822 -1.0096
  176SOPE  H18Z20096   4.285   3.862   9.011  1.5924 -0.8254  3.5143
  177SOPE     N20097   1.981   1.103  11.097  0.0945  0.1628 -0.2134
  177SOPE   HN120098   2.005   1.130  11.194 -0.5690 -2.1154  0.6658
  177SOPE   HN220099   2.003   1.177  11.028  2.2823 -2.1007 -2.1993
  177SOPE   HN320100   1.879   1.087  11.100 -0.1559  1.2487 -1.9812
  177SOPE   C1220101   2.072   0.994  11.053  0.9806 -0.4757 -0.0463
  177SOPE  H12A20102   2.043   0.968  10.949  1.3504  1.2779 -0.6282
  177SOPE  H12B20103   2.068   0.912  11.127  1.6506  0.1677  0.7177
  177SOPE   C1120104   2.224   1.044  11.044 -0.4150 -0.3384 -0.0519
  177SOPE  H11A20105   2.245   1.116  10.962 -1.0402  2.2393  1.9076
  177SOPE  H11B20106   2.283   0.952  11.026  1.5241  1.2922 -2.9269
  177SOPE     P20107   2.422   1.131  11.192  0.1183 -0.0383 -0.0831
  177SOPE   O1320108   2.492   1.002  11.204  0.3017  0.6008 -0.1895
  177SOPE   O1420109   2.429   1.225  11.308  0.8925  0.0960  0.1613
  177SOPE   O1220110   2.267   1.108  11.167 -0.4952  0.4017 -0.6609
  177SOPE   O1120111   2.469   1.204  11.066 -0.6132  0.2472  0.1223
  177SOPE    C120112   2.547   1.136  10.962 -0.2622 -0.1064  0.1149
  177SOPE    HA20113   2.518   1.029  10.954 -1.4305  0.2475 -0.7333
  177SOPE    HB20114   2.654   1.147  10.990 -0.8431 -1.5257  3.2440
  177SOPE    C220115   2.516   1.182  10.814 -0.0168 -0.4433 -0.1876
  177SOPE    HS20116   2.529   1.292  10.818  0.8335 -0.5504  0.5736
  177SOPE   O2120117   2.386   1.151  10.768  0.2243 -0.2646  0.2177
  177SOPE   C2120118   2.337   1.225  10.668 -0.6263 -0.6890 -0.5121
  177SOPE   O2220119   2.389   1.326  10.628 -0.6107 -0.5922 -0.4934
  177SOPE   C2220120   2.199   1.165  10.625 -0.1025 -0.0034  0.3517
  177SOPE   H2R20121   2.135   1.128  10.707 -2.0798 -1.7478 -1.8118
  177SOPE   H2S20122   2.229   1.071  10.573 -0.4101 -0.9810  1.8883
  177SOPE    C320123   2.620   1.126  10.710  0.3446  0.1003  0.2331
  177SOPE    HX20124   2.615   1.015  10.715 -1.8318  0.1622  0.3786
  177SOPE    HY20125   2.718   1.157  10.753 -0.4933  3.3709  0.0662
  177SOPE   O3120126   2.631   1.172  10.580  0.7721 -0.6838 -0.2428
  177SOPE   C3120127   2.552   1.112  10.486  0.2942  0.0399 -0.0159
  177SOPE   O3220128   2.470   1.029  10.508 -0.0431  0.3565 -0.3318
  177SOPE   C3220129   2.577   1.176  10.354 -0.5131  0.0403  0.0778
  177SOPE   H2X20130   2.684   1.208  10.356 -0.6802  0.5995  1.4161
  177SOPE   H2Y20131   2.511   1.265  10.345  0.2219  0.6494  0.5103
  177SOPE   C2320132   2.119   1.251  10.528  0.7206 -0.3136 -0.4744
  177SOPE   H3R20133   2.104   1.354  10.566  0.8152 -0.5928  0.3560
  177SOPE   H3S20134   2.019   1.205  10.512  1.1784 -0.5614 -3.1556
  177SOPE   C2420135   2.180   1.253  10.386 -0.5088 -0.4150 -0.3409
  177SOPE   H4R20136   2.277   1.307  10.376 -0.0929 -1.0662  0.0531
  177SOPE   H4S20137   2.197   1.150  10.348 -3.9615 -1.3469  0.2915
  177SOPE   C2520138   2.080   1.314  10.285 -0.4320  0.4177  0.0189
  177SOPE   H5R20139   1.984   1.260  10.273  0.2193 -0.7349 -0.0747
  177SOPE   H5S20140   2.053   1.417  10.318 -2.4371 -0.1608  0.3220
  177SOPE   C2620141   2.136   1.343  10.145  0.0494  0.6082 -0.4822
  177SOPE   H6R20142   2.214   1.422  10.151  1.1866 -0.5687  0.9419
  177SOPE   H6S20143   2.191   1.252  10.116  3.4355  2.2799  0.1765
  177SOPE   C2720144   2.030   1.389  10.042 -0.1303  0.2419 -1.2475
  177SOPE   H7R20145   1.951   1.312  10.026 -0.3235  0.0465  0.4026
  177SOPE   H7S20146   1.982   1.483  10.077 -0.4798 -0.9725  1.9725
  177SOPE   C2820147   2.086   1.408   9.896  0.1833  0.3154 -0.5695
  177SOPE   H8R20148   2.011   1.461   9.833 -1.4350  0.4091  1.3338
  177SOPE   H8S20149   2.178   1.469   9.900 -0.3833  1.1497  0.1837
  177SOPE   C2920150   2.136   1.279   9.836 -0.4542 -0.2070 -0.0898
  177SOPE   H9120151   2.183   1.214   9.912 -1.7812 -1.8912 -0.6288
  177SOPE  C21020152   2.125   1.233   9.710 -0.2418 -0.0242  1.4681
  177SOPE  H10120153   2.183   1.144   9.682 -1.6742  0.3976 -3.7138
  177SOPE  C21120154   2.065   1.300   9.591 -0.2313  0.5827 -0.0250
  177SOPE  H11R20155   2.131   1.288   9.503  0.4465 -0.2446  0.5846
  177SOPE  H11S20156   2.056   1.411   9.602 -0.1494  0.7082 -1.1244
  177SOPE  C21220157   1.925   1.244   9.547 -0.5848 -0.6000  0.0394
  177SOPE  H12R20158   1.852   1.287   9.619  0.8864  0.8851  0.7025
  177SOPE  H12S20159   1.933   1.135   9.566  0.4580 -0.4091  0.7684
  177SOPE  C21320160   1.868   1.273   9.402 -0.7667 -0.5883 -0.5515
  177SOPE  H13R20161   1.769   1.230   9.377 -0.9749 -1.0789  1.0103
  177SOPE  H13S20162   1.938   1.226   9.330 -1.0295 -0.2392 -1.0364
  177SOPE  C21420163   1.874   1.425   9.384 -0.3483  0.4057 -0.9483
  177SOPE  H14R20164   1.982   1.449   9.384 -0.0906 -0.2855  2.3120
  177SOPE  H14S20165   1.829   1.458   9.480  0.0333 -0.0399 -0.6108
  177SOPE  C21520166   1.805   1.477   9.255  0.1129 -0.2705 -0.8018
  177SOPE  H15R20167   1.776   1.584   9.267  1.6076  0.0165  0.5841
  177SOPE  H15S20168   1.705   1.432   9.236 -1.0023  2.2291 -1.3778
  177SOPE  C21620169   1.892   1.448   9.129  0.0998 -0.2570 -0.0603
  177SOPE  H16R20170   1.918   1.340   9.128  1.9328  0.1515  0.4173
  177SOPE  H16S20171   1.985   1.508   9.141 -0.7673  1.0236  0.5189
  177SOPE  C21720172   1.826   1.489   8.999 -0.3450  0.6832 -0.1766
  177SOPE  H17R20173   1.819   1.599   8.995 -0.3154  0.6561 -1.8297
  177SOPE  H17S20174   1.725   1.443   9.006  1.0438 -2.9445 -1.4960
  177SOPE  C21820175   1.907   1.434   8.880  0.2323 -0.5936  0.5541
  177SOPE  H18R20176   1.872   1.462   8.778 -1.3668  1.5800  1.6262
  177SOPE  H18S20177   1.898   1.326   8.901 -2.1646 -0.3865  0.8914
  177SOPE  H18T20178   2.010   1.476   8.889 -0.1097  0.2713  0.5925
  177SOPE   C3320179   2.553   1.087  10.230  0.4076 -0.4234  0.4225
  177SOPE   H3X20180   2.447   1.055  10.232 -0.3644  1.6793 -2.1612
  177SOPE   H3Y20181   2.626   1.003  10.236  0.0136 -0.9041 -1.1139
  177SOPE   C3420182   2.573   1.167  10.093  0.0855  0.4123  0.2159
  177SOPE   H4X20183   2.683   1.175  10.079 -0.0311  1.4804 -0.1626
  177SOPE   H4Y20184   2.531   1.267  10.115 -0.3742  0.1270  0.6715
  177SOPE   C3520185   2.503   1.110   9.964 -0.2899  0.4724  0.2183
  177SOPE   H5X20186   2.392   1.112   9.964 -0.3715 -0.7434  2.5098
  177SOPE   H5Y20187   2.536   1.004   9.959 -0.7682  0.3403 -0.2793
  177SOPE   C3620188   2.553   1.166   9.833  0.5002 -0.0405  0.5494
  177SOPE   H6X20189   2.663   1.150   9.819  0.0549 -2.7560 -0.5487
  177SOPE   H6Y20190   2.534   1.274   9.821  1.7451  0.1881  0.4681
  177SOPE   C3720191   2.501   1.092   9.702 -0.2434  0.4436 -0.3520
  177SOPE   H7X20192   2.394   1.111   9.682 -1.0056 -2.2716  0.7525
  177SOPE   H7Y20193   2.506   0.986   9.734 -1.1763  1.1363  2.4828
  177SOPE   C3820194   2.573   1.132   9.577 -0.1446 -0.1966  0.2446
  177SOPE   H8X20195   2.526   1.077   9.493  0.7426 -1.3505  0.4780
  177SOPE   H8Y20196   2.680   1.103   9.583 -0.5786 -1.6029  1.7502
  177SOPE   C3920197   2.574   1.284   9.533  0.7282  0.4648  0.0810
  177SOPE   H9X20198   2.619   1.332   9.623  0.2338  0.6294  0.2396
  177SOPE   H9Y20199   2.469   1.319   9.523  0.5079 -0.0965  0.3824
  177SOPE  C31020200   2.664   1.310   9.413  0.0762  0.0922  0.8141
  177SOPE  H10X20201   2.772   1.317   9.440  0.1769  1.4040  0.1350
  177SOPE  H10Y20202   2.633   1.410   9.377 -2.1331 -0.6618  0.4948
  177SOPE  C31120203   2.637   1.203   9.296 -0.5646 -0.0548  0.4622
  177SOPE  H11X20204   2.527   1.198   9.282 -0.4694  0.9235 -0.8881
  177SOPE  H11Y20205   2.663   1.099   9.324 -1.9057 -1.5611 -3.3159
  177SOPE  C31220206   2.718   1.227   9.171  0.1826 -0.4456 -0.1565
  177SOPE  H12X20207   2.822   1.210   9.209 -0.0775 -1.9523 -0.0565
  177SOPE  H12Y20208   2.696   1.327   9.129 -2.1252 -0.9210 -0.1735
  177SOPE  C31320209   2.703   1.126   9.053 -0.6217  0.1193 -0.1491
  177SOPE  H13X20210   2.753   1.155   8.959 -0.7281 -0.2557 -0.3251
  177SOPE  H13Y20211   2.598   1.107   9.023  0.8025 -1.8126 -4.7432
  177SOPE  C31420212   2.754   0.985   9.083 -0.0151 -0.3352 -0.7875
  177SOPE  H14X20213   2.719   0.948   9.182 -1.9298 -2.1918 -2.0709
  177SOPE  H14Y20214   2.864   0.994   9.096  0.0284 -0.5521 -0.9925
  177SOPE  C31520215   2.716   0.872   8.980 -0.2518 -0.1351 -0.1405
  177SOPE  H15X20216   2.770   0.778   9.006  2.7876  1.6949  0.6457
  177SOPE  H15Y20217   2.761   0.906   8.884  1.4733 -3.8510 -0.8434
  177SOPE  C31620218   2.567   0.842   8.973  0.5921  0.7504 -0.4312
  177SOPE  H16X20219   2.513   0.931   8.932  0.1178 -0.6932 -3.1984
  177SOPE  H16Y20220   2.513   0.827   9.069 -0.3895  2.4584 -0.6570
  177SOPE  C31720221   2.542   0.721   8.867  0.4077 -0.1515  0.0165
  177SOPE  H17X20222   2.431   0.715   8.863  0.4253 -0.3764 -0.1198
  177SOPE  H17Y20223   2.572   0.622   8.908  1.5292 -0.5814 -1.7294
  177SOPE  C31820224   2.597   0.758   8.732  0.3821  0.2014  1.1155
  177SOPE  H18X20225   2.531   0.706   8.660 -0.8189  0.5627  1.9252
  177SOPE  H18Y20226   2.701   0.722   8.722  0.1550 -0.0255 -0.5623
  177SOPE  H18Z20227   2.581   0.864   8.702 -1.1258 -0.4201 -0.4401
  178SOPE     N20228   0.326   0.861  10.859  0.2361 -0.2013  1.2508
  178SOPE   HN120229   0.353   0.761  10.852 -1.5618 -0.7261  1.5391
  178SOPE   HN220230   0.224   0.869  10.877 -0.1169 -1.3048 -0.0387
  178SOPE   HN320231   0.327   0.906  10.765  1.2810  0.2786  1.4742
  178SOPE   C1220232   0.391   0.942  10.968  0.4843 -0.3893  0.0774
  178SOPE  H12A20233   0.498   0.915  10.961  0.3210 -0.9271 -0.3739
  178SOPE  H12B20234   0.341   0.913  11.063 -2.6809  0.2311 -1.2702
  178SOPE   C1120235   0.372   1.093  10.944  0.5476 -0.6346 -0.8324
  178SOPE  H11A20236   0.449   1.128  10.873  2.0490 -2.4677 -0.1758
  178SOPE  H11B20237   0.397   1.145  11.039  0.5624  0.0258 -1.1953
  178SOPE     P20238   0.161   1.232  10.969  0.1105  0.2165  0.3010
  178SOPE   O1320239   0.173   1.201  11.112 -0.5748 -0.7868 -0.2669
  178SOPE   O1420240   0.022   1.239  10.918 -0.6631  0.1225 -0.1671
  178SOPE   O1220241   0.240   1.112  10.889 -0.5112  0.0228 -0.1792
  178SOPE   O1120242   0.240   1.361  10.943 -0.1263  0.2314 -0.0509
  178SOPE    C120243   0.188   1.492  10.905  0.1378  0.2225 -0.2586
  178SOPE    HA20244   0.269   1.554  10.948  1.1270 -0.1721 -1.5032
  178SOPE    HB20245   0.097   1.513  10.965  0.7818 -0.1074  0.8536
  178SOPE    C220246   0.171   1.502  10.753 -0.1985 -0.1243  0.4618
  178SOPE    HS20247   0.097   1.426  10.720 -0.2728  0.8315 -1.8228
  178SOPE   O2120248   0.295   1.499  10.674 -0.0350  1.2855 -0.1093
  178SOPE   C2120249   0.303   1.379  10.603 -0.1197 -0.5826 -0.3673
  178SOPE   O2220250   0.221   1.286  10.610 -0.0083 -0.4153  0.1127
  178SOPE   C2220251   0.432   1.381  10.523  0.5804 -0.6998 -0.6157
  178SOPE   H2R20252   0.474   1.288  10.567  1.6111  0.0661  0.0742
  178SOPE   H2S20253   0.491   1.469  10.557  1.6243 -0.9001 -1.8485
  178SOPE    C320254   0.095   1.636  10.718 -0.5003 -1.0035  0.0403
  178SOPE    HX20255   0.154   1.718  10.763 -1.2105 -0.6224  0.2779
  178SOPE    HY20256  -0.003   1.641  10.769 -0.9427 -2.6629 -0.5897
  178SOPE   O3120257   0.077   1.645  10.573  0.2569  0.1668 -0.0380
  178SOPE   C3120258   0.100   1.770  10.525 -0.5225  0.2539 -0.5123
  178SOPE   O3220259   0.122   1.868  10.594 -0.4009 -0.4724  0.1070
  178SOPE   C3220260   0.112   1.756  10.378  0.4790  0.2305 -0.1039
  178SOPE   H2X20261   0.032   1.687  10.342  0.0400  0.8530 -0.3447
  178SOPE   H2Y20262   0.212   1.716  10.350  0.1319 -1.7436  1.2789
  178SOPE   C2320263   0.422   1.355  10.375  0.2843  0.9456 -0.0124
  178SOPE   H3R20264   0.340   1.283  10.354 -0.1803  1.7019 -0.8399
  178SOPE   H3S20265   0.502   1.284  10.345 -0.2360 -0.6758  2.2270
  178SOPE   C2420266   0.402   1.474  10.283  0.1430  0.3654  0.5217
  178SOPE   H4R20267   0.308   1.530  10.297 -1.1281 -1.6676  0.5558
  178SOPE   H4S20268   0.468   1.559  10.310  0.3976  0.6781 -1.0366
  178SOPE   C2520269   0.415   1.436  10.133 -0.8015 -0.5344 -0.9406
  178SOPE   H5R20270   0.520   1.407  10.107 -0.6423  0.5434 -1.5308
  178SOPE   H5S20271   0.347   1.352  10.107  0.1789 -1.8806  0.5878
  178SOPE   C2620272   0.386   1.547  10.026 -0.6527  1.9465 -0.2790
  178SOPE   H6R20273   0.281   1.581  10.041 -0.7482  1.2016  0.8489
  178SOPE   H6S20274   0.450   1.633  10.056 -0.2060  0.4490  3.6273
  178SOPE   C2720275   0.405   1.506   9.886  0.0661 -0.0101 -0.2136
  178SOPE   H7R20276   0.505   1.456   9.882 -0.2252 -0.8253  1.6627
  178SOPE   H7S20277   0.329   1.429   9.859  0.0487  0.1408 -0.6074
  178SOPE   C2820278   0.396   1.614   9.785 -0.5963  0.2786 -1.3494
  178SOPE   H8R20279   0.299   1.668   9.796 -0.0132  1.0362  0.6071
  178SOPE   H8S20280   0.473   1.692   9.805 -0.7977  0.1017  0.2778
  178SOPE   C2920281   0.413   1.571   9.645 -0.3971 -0.1868  0.6326
  178SOPE   H9120282   0.477   1.483   9.629 -2.6106 -1.5026 -1.8078
  178SOPE  C21020283   0.365   1.628   9.532  0.3429  0.4874  0.9399
  178SOPE  H10120284   0.388   1.579   9.437  0.4567 -0.9873  1.7019
  178SOPE  C21120285   0.278   1.749   9.515 -0.2206 -0.4184  0.7397
  178SOPE  H11R20286   0.215   1.793   9.596  0.4275  1.2888  0.3574
  178SOPE  H11S20287   0.208   1.731   9.431  1.9008  0.5201 -1.3136
  178SOPE  C21220288   0.362   1.869   9.459  1.0798  0.3317 -0.2073
  178SOPE  H12R20289   0.436   1.901   9.535  0.1219  0.9337  0.4956
  178SOPE  H12S20290   0.295   1.958   9.458  1.4068  0.6067 -2.3448
  178SOPE  C21320291   0.404   1.855   9.307  0.2649  0.4644  0.7891
  178SOPE  H13R20292   0.339   1.778   9.261  2.6016 -1.5584  0.6463
  178SOPE  H13S20293   0.508   1.816   9.306 -0.3599 -1.2868  0.9590
  178SOPE  C21420294   0.386   1.988   9.227 -0.3238 -0.0745 -0.0463
  178SOPE  H14R20295   0.433   2.062   9.295  1.7487 -3.5340  2.6301
  178SOPE  H14S20296   0.276   2.007   9.224 -0.2780  0.6159  1.8000
  178SOPE  C21520297   0.442   1.991   9.085  0.1377  0.0426  0.5023
  178SOPE  H15R20298   0.407   1.898   9.033  2.7327 -1.2319  0.8562
  178SOPE  H15S20299   0.553   1.985   9.080  0.2865  2.1455  0.7406
  178SOPE  C21620300   0.400   2.124   9.008  0.0778  0.0958  0.4502
  178SOPE  H16R20301   0.430   2.217   9.060  1.4212 -0.5773  0.9146
  178SOPE  H16S20302   0.289   2.113   9.003  0.2388 -1.5518 -0.0509
  178SOPE  C21720303   0.457   2.116   8.871 -0.2779 -0.1700  0.4039
  178SOPE  H17R20304   0.417   2.039   8.802 -0.6930  0.4828 -0.1060
  178SOPE  H17S20305   0.567   2.108   8.881  0.0926  2.6062 -0.4565
  178SOPE  C21820306   0.425   2.251   8.808 -0.0164  0.0038  0.2111
  178SOPE  H18R20307   0.454   2.331   8.880 -0.9532 -0.7271  1.4275
  178SOPE  H18S20308   0.315   2.259   8.804 -0.0150  0.0074  0.1791
  178SOPE  H18T20309   0.470   2.266   8.707  0.2622  0.1353  0.3538
  178SOPE   C3320310   0.107   1.896  10.319 -0.5698  0.3273  0.2720
  178SOPE   H3X20311   0.179   1.967  10.365 -2.0583  1.9120  0.2608
  178SOPE   H3Y20312   0.018   1.956  10.348  0.7805  1.5442  2.0832
  178SOPE   C3420313   0.125   1.891  10.163  0.6662  0.5010 -1.0296
  178SOPE   H4X20314   0.051   1.815  10.130  2.4124 -1.0746 -1.4695
  178SOPE   H4Y20315   0.226   1.855  10.131  1.4584  3.5964 -2.3518
  178SOPE   C3520316   0.114   2.015  10.091 -0.7084  0.3643 -0.6515
  178SOPE   H5X20317   0.194   2.086  10.123 -1.9280  0.7559  1.7602
  178SOPE   H5Y20318   0.016   2.066  10.100 -0.1654  1.3412 -0.0539
  178SOPE   C3620319   0.126   1.983   9.943  0.3774 -0.0644  0.4246
  178SOPE   H6X20320   0.034   1.934   9.905 -0.9731  2.7148 -0.1244
  178SOPE   H6Y20321   0.228   1.940   9.933  0.6600  0.6958 -0.0143
  178SOPE   C3720322   0.138   2.118   9.864  0.1239 -0.4331 -0.3907
  178SOPE   H7X20323   0.235   2.158   9.900 -0.9838  1.6926  0.4864
  178SOPE   H7Y20324   0.056   2.192   9.878 -1.8910 -2.1039 -2.4914
  178SOPE   C3820325   0.161   2.107   9.710 -0.3399  0.5121 -0.1050
  178SOPE   H8X20326   0.086   2.041   9.662 -0.7490  0.8350  0.0751
  178SOPE   H8Y20327   0.255   2.051   9.696 -0.0709  0.2277  2.3884
  178SOPE   C3920328   0.165   2.243   9.625 -0.1855  0.3806 -0.3320
  178SOPE   H9X20329   0.231   2.323   9.662 -0.1246  1.1212 -1.9339
  178SOPE   H9Y20330   0.064   2.291   9.630 -1.9158 -2.8022 -1.4307
  178SOPE  C31020331   0.197   2.226   9.484 -0.0874  0.7670 -0.7659
  178SOPE  H10X20332   0.129   2.154   9.436  1.7466 -1.0153 -0.8248
  178SOPE  H10Y20333   0.301   2.203   9.453 -0.0894 -2.4543  1.2009
  178SOPE  C31120334   0.185   2.368   9.415 -0.7521 -0.0981  0.3682
  178SOPE  H11X20335   0.256   2.440   9.460 -1.9803  0.7189  1.0314
  178SOPE  H11Y20336   0.082   2.406   9.431 -1.0428 -0.5124 -0.4241
  178SOPE  C31220337   0.201   2.361   9.258 -0.5224  0.4398  0.0540
  178SOPE  H12X20338   0.159   2.267   9.216  2.0514 -0.4845 -0.6726
  178SOPE  H12Y20339   0.309   2.345   9.237 -0.8023 -0.1092 -1.0131
  178SOPE  C31320340   0.145   2.483   9.186  0.1717 -0.3199  0.5322
  178SOPE  H13X20341   0.184   2.578   9.227  0.8191 -0.9001  1.2818
  178SOPE  H13Y20342   0.034   2.487   9.193  0.2662  0.0623  2.0731
  178SOPE  C31420343   0.179   2.472   9.038 -0.4834 -0.1477  0.9296
  178SOPE  H14X20344   0.152   2.373   8.993 -2.7277  0.4527  0.8651
  178SOPE  H14Y20345   0.289   2.479   9.024 -0.8114  0.4939 -1.9537
  178SOPE  C31520346   0.117   2.580   8.951  0.2977 -0.1216  0.4872
  178SOPE  H15X20347   0.163   2.678   8.976 -0.6365  0.5586 -0.3581
  178SOPE  H15Y20348   0.008   2.588   8.973 -0.0238  0.1947 -1.0887
  178SOPE  C31620349   0.127   2.546   8.808  0.8169 -0.6433  1.0235
  178SOPE  H16X20350   0.098   2.444   8.776  4.4742 -0.5635 -3.7841
  178SOPE  H16Y20351   0.232   2.546   8.773  0.2423  2.3785 -1.0728
  178SOPE  C31720352   0.056   2.658   8.725  0.1297  0.3440  0.3921
  178SOPE  H17X20353   0.086   2.647   8.619 -0.4590 -0.3905  0.2965
  178SOPE  H17Y20354   0.085   2.760   8.759 -1.5753  1.1944 -0.5741
  178SOPE  C31820355  -0.099   2.673   8.728 -0.2272  0.2603  0.0449
  178SOPE  H18X20356  -0.134   2.758   8.665 -1.6504 -0.6609 -0.4459
  178SOPE  H18Y20357  -0.132   2.696   8.832  1.2397 -0.0041  0.5877
  178SOPE  H18Z20358  -0.146   2.578   8.697  2.1227 -0.9916  0.1580
  179SOPE     N20359   5.316   3.763   6.432 -0.2810  0.7261  0.3703
  179SOPE   HN120360   5.242   3.702   6.471 -1.8515  3.0635  1.2442
  179SOPE   HN220361   5.390   3.699   6.396 -0.1647  1.5837 -0.9883
  179SOPE   HN320362   5.362   3.825   6.503  0.9974  1.1404 -0.7646
  179SOPE   C1220363   5.259   3.846   6.322  0.0963  0.0334 -0.2418
  179SOPE  H12A20364   5.220   3.770   6.252  0.2828  0.9068 -1.3269
  179SOPE  H12B20365   5.343   3.894   6.267  1.4472 -0.3015  1.4493
  179SOPE   C1120366   5.158   3.943   6.379 -0.0836  0.6494 -0.2740
  179SOPE  H11A20367   5.097   3.987   6.298 -1.4245 -1.4677 -0.4793
  179SOPE  H11B20368   5.210   4.025   6.433 -1.6350  2.0319 -0.8069
  179SOPE     P20369   4.972   3.972   6.556  0.1729 -0.4725 -0.0770
  179SOPE   O1320370   4.846   3.904   6.565 -0.2082  0.0835 -0.5074
  179SOPE   O1420371   4.966   4.110   6.494  0.2612 -0.1596 -0.9544
  179SOPE   O1220372   5.067   3.881   6.465  1.1634  0.1091  0.3827
  179SOPE   O1120373   5.044   3.971   6.695 -0.8612  0.6996 -0.3204
  179SOPE    C120374   5.062   3.842   6.760  0.6690 -0.3549 -0.0094
  179SOPE    HA20375   5.159   3.832   6.814  1.3379 -1.0837 -1.3088
  179SOPE    HB20376   5.067   3.754   6.692  0.7705 -0.5091  0.1944
  179SOPE    C220377   4.941   3.812   6.857  0.0287  0.4003 -0.8672
  179SOPE    HS20378   4.856   3.823   6.785  1.2370  0.8014 -2.2836
  179SOPE   O2120379   4.955   3.903   6.969 -0.5013 -0.1649  0.3758
  179SOPE   C2120380   4.838   3.967   6.983 -0.6640  0.2170 -0.1061
  179SOPE   O2220381   4.736   3.939   6.925  0.5801  0.6095 -0.2344
  179SOPE   C2220382   4.858   4.066   7.101  0.0860  0.3599  0.1044
  179SOPE   H2R20383   4.815   4.165   7.076  1.4149  0.7187 -0.8914
  179SOPE   H2S20384   4.968   4.079   7.110 -0.0996  1.1346  1.4756
  179SOPE    C320385   4.948   3.663   6.899  0.2998 -0.0487 -0.3220
  179SOPE    HX20386   5.039   3.638   6.959  1.8207  2.3524 -1.4853
  179SOPE    HY20387   4.955   3.611   6.802  1.1655  2.0140 -1.4333
  179SOPE   O3120388   4.831   3.628   6.966  0.2574 -0.0152 -0.4518
  179SOPE   C3120389   4.750   3.536   6.911 -0.3049 -1.3567 -0.2710
  179SOPE   O3220390   4.773   3.449   6.830 -0.2392 -0.0375  0.4410
  179SOPE   C3220391   4.612   3.541   6.994  0.7334 -0.2164 -0.4756
  179SOPE   H2X20392   4.590   3.440   7.036  2.5388 -0.6694 -0.4984
  179SOPE   H2Y20393   4.534   3.563   6.918 -1.6057 -0.6662  1.6893
  179SOPE   C2320394   4.794   4.012   7.229 -0.5334 -0.1886 -0.3763
  179SOPE   H3R20395   4.837   3.910   7.241 -2.2788 -1.4086 -3.4639
  179SOPE   H3S20396   4.684   3.998   7.222 -0.9901 -2.2682  5.4506
  179SOPE   C2420397   4.843   4.092   7.359  0.2557  0.0379 -0.3919
  179SOPE   H4R20398   4.954   4.091   7.358  0.3984  3.3328 -2.0041
  179SOPE   H4S20399   4.814   4.200   7.356  1.2176  0.3487  0.8190
  179SOPE   C2520400   4.776   4.041   7.491  0.1146 -0.7464 -0.1421
  179SOPE   H5R20401   4.669   4.067   7.475 -0.9879 -4.1124  1.0421
  179SOPE   H5S20402   4.789   3.932   7.502  2.4520 -0.4921  0.0955
  179SOPE   C2620403   4.826   4.100   7.617 -0.2474  0.7581  0.4418
  179SOPE   H6R20404   4.792   4.206   7.622 -0.1890  0.7389  1.7348
  179SOPE   H6S20405   4.774   4.046   7.699 -0.7834  1.3510  0.5062
  179SOPE   C2720406   4.978   4.077   7.647  0.3012 -0.1710  0.3323
  179SOPE   H7R20407   5.009   3.971   7.632 -0.3542 -0.7174  2.5234
  179SOPE   H7S20408   5.036   4.147   7.583 -0.2095 -2.6562 -3.1857
  179SOPE   C2820409   4.992   4.104   7.797  1.1109  1.0092 -0.9075
  179SOPE   H8R20410   4.958   4.209   7.807 -0.7938  0.3884 -0.6121
  179SOPE   H8S20411   4.917   4.041   7.849  1.3590  0.8846 -0.6906
  179SOPE   C2920412   5.131   4.086   7.843  0.3027  0.8618  0.5518
  179SOPE   H9120413   5.203   4.114   7.766 -1.3957 -0.5154 -1.6561
  179SOPE  C21020414   5.173   4.047   7.963 -0.0543  0.1322  0.9318
  179SOPE  H10120415   5.281   4.031   7.972  0.1589  2.2811  3.3187
  179SOPE  C21120416   5.085   4.024   8.083  0.6998 -0.1481 -0.0143
  179SOPE  H11R20417   4.974   4.029   8.075  0.5284  2.9177  2.3597
  179SOPE  H11S20418   5.115   4.103   8.156 -0.2430  2.5644 -2.3633
  179SOPE  C21220419   5.113   3.877   8.138  0.2412 -0.6024  0.1970
  179SOPE  H12R20420   5.220   3.848   8.130  0.3068 -0.0316 -1.2495
  179SOPE  H12S20421   5.059   3.812   8.066 -1.6901  0.4521  0.5992
  179SOPE  C21320422   5.064   3.847   8.271  0.0935 -0.6387 -0.1400
  179SOPE  H13R20423   5.049   3.741   8.301  1.0829 -0.3844  1.3202
  179SOPE  H13S20424   4.964   3.895   8.278  0.3363 -0.1001 -0.3598
  179SOPE  C21420425   5.169   3.891   8.370  0.4622  1.1420  0.0997
  179SOPE  H14R20426   5.194   3.997   8.347  2.6675  0.6340 -0.0714
  179SOPE  H14S20427   5.251   3.820   8.345 -0.0806  0.1822  1.0044
  179SOPE  C21520428   5.127   3.877   8.520 -0.4219 -0.5407  0.1274
  179SOPE  H15R20429   5.224   3.887   8.572  2.8350 -3.9365 -4.5080
  179SOPE  H15S20430   5.070   3.784   8.539  0.9018 -1.2499  0.7489
  179SOPE  C21620431   5.032   4.001   8.541  0.6511  0.1176 -0.0219
  179SOPE  H16R20432   4.950   4.026   8.471 -0.2602 -1.0160  0.5952
  179SOPE  H16S20433   5.096   4.092   8.548  0.7198  0.1163 -0.6534
  179SOPE  C21720434   4.963   3.980   8.676  0.0606 -0.5913  0.4297
  179SOPE  H17R20435   4.952   4.080   8.723  2.1482 -0.4469  0.7191
  179SOPE  H17S20436   5.025   3.919   8.745 -1.5561 -1.3924  1.2398
  179SOPE  C21820437   4.829   3.918   8.652  0.7319 -0.1883 -0.1518
  179SOPE  H18R20438   4.818   3.835   8.579  0.2901 -0.5493  0.3146
  179SOPE  H18S20439   4.767   4.003   8.614  0.0502  0.0727  1.4436
  179SOPE  H18T20440   4.773   3.887   8.743 -1.6141  0.6952 -1.1905
  179SOPE   C3320441   4.625   3.648   7.108  0.0657  0.2174 -0.2255
  179SOPE   H3X20442   4.637   3.747   7.060  0.8117 -0.1216 -0.7535
  179SOPE   H3Y20443   4.716   3.624   7.167  0.8311 -2.1582 -2.1519
  179SOPE   C3420444   4.514   3.635   7.218 -0.0805  0.1983  0.2337
  179SOPE   H4X20445   4.528   3.532   7.257  0.1589  1.3745  3.5741
  179SOPE   H4Y20446   4.409   3.631   7.184 -0.4810 -4.0914  1.3801
  179SOPE   C3520447   4.542   3.720   7.344 -0.1300 -0.5130 -0.3739
  179SOPE   H5X20448   4.511   3.826   7.333 -0.3399 -0.5485 -0.1348
  179SOPE   H5Y20449   4.653   3.726   7.353 -0.1094 -2.4459  1.4510
  179SOPE   C3620450   4.498   3.664   7.481 -0.0845  0.1108 -0.2700
  179SOPE   H6X20451   4.512   3.554   7.488  0.8801  0.2744  0.5927
  179SOPE   H6Y20452   4.389   3.677   7.495 -0.7316 -2.3095 -2.4731
  179SOPE   C3720453   4.581   3.728   7.597  0.0016 -0.0425 -0.0795
  179SOPE   H7X20454   4.563   3.838   7.599 -0.3634 -0.0206 -2.1484
  179SOPE   H7Y20455   4.689   3.710   7.583 -0.3805 -1.9710 -0.8200
  179SOPE   C3820456   4.535   3.680   7.729 -0.0034  0.2130 -0.6816
  179SOPE   H8X20457   4.501   3.575   7.741  0.9799  0.0763  1.3765
  179SOPE   H8Y20458   4.452   3.738   7.773 -0.5744 -1.2910  0.2887
  179SOPE   C3920459   4.660   3.687   7.822  0.2621 -0.5136  0.5571
  179SOPE   H9X20460   4.684   3.792   7.846  1.4321 -0.8701  1.0174
  179SOPE   H9Y20461   4.744   3.640   7.766  1.5139  1.5856  0.5839
  179SOPE  C31020462   4.637   3.616   7.955  0.0902 -0.3113  0.7026
  179SOPE  H10X20463   4.635   3.505   7.949  1.7932 -0.4789  2.1487
  179SOPE  H10Y20464   4.539   3.649   7.995 -0.0089  3.4821 -2.1677
  179SOPE  C31120465   4.751   3.641   8.050 -0.0504 -0.1411 -0.6692
  179SOPE  H11X20466   4.757   3.751   8.066 -1.2900  0.0445 -1.4092
  179SOPE  H11Y20467   4.849   3.616   8.004  1.6754  3.4291  0.6547
  179SOPE  C31220468   4.732   3.569   8.186 -0.4908  0.1528 -0.1232
  179SOPE  H12X20469   4.643   3.604   8.241  1.0204  1.3221  1.6994
  179SOPE  H12Y20470   4.811   3.606   8.255  1.7107 -0.2665 -2.2388
  179SOPE  C31320471   4.748   3.422   8.176 -0.9260 -0.2638  0.4036
  179SOPE  H13X20472   4.829   3.388   8.109 -0.2191 -0.9691  1.5719
  179SOPE  H13Y20473   4.652   3.384   8.134 -0.2517  1.0921 -2.6287
  179SOPE  C31420474   4.773   3.346   8.315  0.1246 -0.2525  0.2524
  179SOPE  H14X20475   4.882   3.355   8.335  0.1907  0.0585 -0.2247
  179SOPE  H14Y20476   4.754   3.236   8.310  0.8698 -0.4102  0.7509
  179SOPE  C31520477   4.702   3.413   8.434 -0.1177 -0.0449  0.1365
  179SOPE  H15X20478   4.595   3.440   8.424  0.0041  0.4494  0.1285
  179SOPE  H15Y20479   4.750   3.511   8.452 -0.5815 -0.0048  1.1924
  179SOPE  C31620480   4.696   3.328   8.556  1.0089 -0.3148 -0.6498
  179SOPE  H16X20481   4.801   3.299   8.577  0.6245 -0.4605  1.2924
  179SOPE  H16Y20482   4.641   3.235   8.530 -0.5954 -0.3044  2.2976
  179SOPE  C31720483   4.643   3.396   8.690  0.3429 -0.1976  0.3425
  179SOPE  H17X20484   4.538   3.429   8.676  0.8478  0.8436 -1.1961
  179SOPE  H17Y20485   4.697   3.491   8.710 -1.3765  1.3367 -1.8714
  179SOPE  C31820486   4.668   3.311   8.815  0.6395 -0.4173  0.2233
  179SOPE  H18X20487   4.636   3.373   8.902  2.1869  0.9504 -0.1239
  179SOPE  H18Y20488   4.778   3.291   8.818  0.7407  0.0557 -0.2047
  179SOPE  H18Z20489   4.622   3.210   8.826  0.2728 -0.0961  1.9186
  180SOPE     N20490   3.679   2.952   6.248 -0.2314 -0.8184 -0.0051
  180SOPE   HN120491   3.727   2.927   6.159 -0.6118  3.5910 -1.7139
  180SOPE   HN220492   3.685   2.871   6.314  0.7118 -1.6451 -1.0708
  180SOPE   HN320493   3.578   2.971   6.232  0.0674 -0.3441 -1.4115
  180SOPE   C1220494   3.751   3.071   6.314  0.3893  0.1703 -0.1766
  180SOPE  H12A20495   3.687   3.105   6.399  1.9529 -0.1154  1.1669
  180SOPE  H12B20496   3.788   3.149   6.245  3.0699  0.7160  1.7196
  180SOPE   C1120497   3.887   3.027   6.385  0.2934 -0.2279 -0.8945
  180SOPE  H11A20498   3.858   2.964   6.472  2.1145  0.2396  0.0984
  180SOPE  H11B20499   3.925   3.118   6.434  1.3725 -2.0318  1.8480
  180SOPE     P20500   4.108   3.029   6.244  0.0869  0.0322 -0.2771
  180SOPE   O1320501   4.068   3.164   6.196  0.7244 -0.2414 -0.2101
  180SOPE   O1420502   4.165   2.925   6.155 -0.5327  0.4498  0.1257
  180SOPE   O1220503   3.980   2.961   6.298 -0.6505  0.3881 -0.4317
  180SOPE   O1120504   4.192   3.045   6.377  0.1169  0.5911 -0.0200
  180SOPE    C120505   4.235   2.930   6.456 -0.3897  0.5394  0.1272
  180SOPE    HA20506   4.341   2.944   6.488  1.1215 -1.0274 -3.5897
  180SOPE    HB20507   4.226   2.830   6.409 -1.3291  0.8888 -0.4603
  180SOPE    C220508   4.157   2.923   6.589  0.9810 -0.3735  0.0087
  180SOPE    HS20509   4.059   2.876   6.571  1.2966 -0.6333 -1.0723
  180SOPE   O2120510   4.139   3.053   6.640  0.2485  0.3526 -0.0003
  180SOPE   C2120511   4.030   3.073   6.713  0.1044  0.5131  0.5072
  180SOPE   O2220512   3.939   2.989   6.729 -0.4682 -0.3286  0.2688
  180SOPE   C2220513   4.037   3.208   6.778 -0.1615 -0.4011 -0.8409
  180SOPE   H2R20514   3.944   3.229   6.835  0.9110  4.7812 -0.5320
  180SOPE   H2S20515   4.043   3.283   6.696 -3.8105 -0.9399 -1.8008
  180SOPE    C320516   4.233   2.832   6.695 -0.4179 -0.0890  0.2480
  180SOPE    HX20517   4.319   2.887   6.739 -0.8402 -0.7474  1.9655
  180SOPE    HY20518   4.273   2.747   6.634  1.8054  0.3214  1.0424
  180SOPE   O3120519   4.141   2.781   6.795 -0.1879 -0.2573 -0.7217
  180SOPE   C3120520   4.204   2.696   6.870  0.5391 -0.3235  0.0147
  180SOPE   O3220521   4.314   2.645   6.850 -0.0747  0.3470 -0.6089
  180SOPE   C3220522   4.119   2.670   6.995  0.5346  0.3348 -0.2870
  180SOPE   H2X20523   4.178   2.612   7.069 -3.2989 -2.8327  0.6147
  180SOPE   H2Y20524   4.032   2.609   6.963  1.2258 -0.2860 -1.0196
  180SOPE   C2320525   4.169   3.223   6.868 -0.2583 -0.0963  0.4599
  180SOPE   H3R20526   4.169   3.323   6.918  0.4786 -0.5268  1.3492
  180SOPE   H3S20527   4.260   3.220   6.805 -3.0152  0.1092 -3.9107
  180SOPE   C2420528   4.183   3.133   6.987  0.2630 -0.1720  0.0707
  180SOPE   H4R20529   4.076   3.117   7.010  0.5024 -0.5607  0.9318
  180SOPE   H4S20530   4.231   3.038   6.955 -0.6435 -0.6187  0.0140
  180SOPE   C2520531   4.258   3.187   7.101 -0.6058  0.8155 -0.7253
  180SOPE   H5R20532   4.362   3.197   7.064 -0.7086  1.4047 -0.8706
  180SOPE   H5S20533   4.231   3.293   7.122  2.4926  1.4810  0.4670
  180SOPE   C2620534   4.249   3.107   7.232 -0.0859  0.2387  0.2999
  180SOPE   H6R20535   4.141   3.082   7.244 -0.8893  1.9363 -2.3992
  180SOPE   H6S20536   4.287   3.004   7.220 -0.1197  0.1839  0.6512
  180SOPE   C2720537   4.323   3.182   7.350  1.1419 -0.0778  0.0860
  180SOPE   H7R20538   4.434   3.180   7.350  1.1444 -0.2269  0.8868
  180SOPE   H7S20539   4.292   3.288   7.346  1.7637  0.0827 -1.3860
  180SOPE   C2820540   4.283   3.118   7.484  0.1472 -0.3099 -0.2485
  180SOPE   H8R20541   4.172   3.130   7.488  0.0070 -0.9797 -1.4308
  180SOPE   H8S20542   4.300   3.009   7.481 -1.4693 -0.5703 -1.5458
  180SOPE   C2920543   4.346   3.197   7.596 -0.0126  0.2380 -0.1358
  180SOPE   H9120544   4.429   3.266   7.576  1.0260 -0.7621  0.5818
  180SOPE  C21020545   4.299   3.194   7.722 -0.8390  0.4474  0.9029
  180SOPE  H10120546   4.329   3.275   7.790  2.7087  0.0454  0.0509
  180SOPE  C21120547   4.188   3.105   7.767 -0.2424  0.2910  0.5493
  180SOPE  H11R20548   4.174   3.010   7.711 -1.4809 -0.5488  2.1911
  180SOPE  H11S20549   4.089   3.155   7.762 -1.0652 -1.4051 -1.6058
  180SOPE  C21220550   4.227   3.054   7.909  0.8502 -0.0062  0.1533
  180SOPE  H12R20551   4.134   3.003   7.940 -0.2737  0.7259 -1.8526
  180SOPE  H12S20552   4.232   3.146   7.972  1.5339  1.1091 -1.4615
  180SOPE  C21320553   4.356   2.973   7.916  0.0479  0.2970 -0.7802
  180SOPE  H13R20554   4.448   3.017   7.871 -0.3332 -0.0526 -1.9288
  180SOPE  H13S20555   4.347   2.878   7.861  0.7886  0.0240 -0.4416
  180SOPE  C21420556   4.377   2.921   8.062 -0.4288 -0.2634  0.3516
  180SOPE  H14R20557   4.284   2.883   8.109 -1.1851  0.7751 -0.2749
  180SOPE  H14S20558   4.397   3.006   8.131 -1.3954 -0.0081  0.3313
  180SOPE  C21520559   4.498   2.826   8.085 -0.0508 -0.9224 -0.2718
  180SOPE  H15R20560   4.577   2.868   8.020 -0.0172 -2.2086 -1.0958
  180SOPE  H15S20561   4.470   2.737   8.024 -0.2913 -0.4417 -0.8707
  180SOPE  C21620562   4.543   2.812   8.227  0.0679 -0.0085 -0.3483
  180SOPE  H16R20563   4.611   2.725   8.239 -1.9875 -1.5232  1.1176
  180SOPE  H16S20564   4.463   2.786   8.300  0.1546  2.3852  0.6969
  180SOPE  C21720565   4.622   2.938   8.286 -0.2129 -0.0608 -0.3231
  180SOPE  H17R20566   4.577   3.035   8.254  1.8841  0.9750 -0.3320
  180SOPE  H17S20567   4.718   2.928   8.231  1.8326 -2.1936  3.1968
  180SOPE  C21820568   4.637   2.937   8.433 -0.0767  0.0376  0.5754
  180SOPE  H18R20569   4.688   2.851   8.482  1.1495  2.5023  3.9467
  180SOPE  H18S20570   4.539   2.935   8.487 -0.3264  0.0179  0.1295
  180SOPE  H18T20571   4.687   3.030   8.465 -0.0902 -0.1576  1.1813
  180SOPE   C3320572   4.075   2.802   7.076 -0.3687  0.1261 -0.1460
  180SOPE   H3X20573   3.999   2.860   7.019 -1.8005 -1.6101 -0.1073
  180SOPE   H3Y20574   4.160   2.870   7.098 -0.7463  0.1704  1.2484
  180SOPE   C3420575   4.028   2.781   7.221 -0.3553  0.0970  0.1799
  180SOPE   H4X20576   3.938   2.717   7.239 -1.4216  0.9881 -1.7135
  180SOPE   H4Y20577   3.990   2.880   7.255  1.1688  1.1703 -1.1159
  180SOPE   C3520578   4.128   2.740   7.326 -0.4871  0.2979 -0.1438
  180SOPE   H5X20579   4.212   2.811   7.306  0.9289 -1.7902 -2.1244
  180SOPE   H5Y20580   4.164   2.640   7.293  0.2968  0.6616 -0.4235
  180SOPE   C3620581   4.091   2.749   7.474 -0.4157  0.2843  0.5475
  180SOPE   H6X20582   3.980   2.742   7.471 -0.4099  0.4800 -0.4763
  180SOPE   H6Y20583   4.116   2.852   7.509 -1.1425 -0.3177  3.0670
  180SOPE   C3720584   4.151   2.654   7.578 -0.4508  0.3917 -0.0897
  180SOPE   H7X20585   4.262   2.644   7.569 -0.4087 -1.2249  1.5932
  180SOPE   H7Y20586   4.108   2.555   7.551  1.0250 -0.7952  1.5982
  180SOPE   C3820587   4.124   2.684   7.727 -0.4578  0.1484  0.3879
  180SOPE   H8X20588   4.014   2.687   7.739 -0.7780 -1.5167 -1.5548
  180SOPE   H8Y20589   4.163   2.783   7.758 -1.5565  1.2630 -1.5746
  180SOPE   C3920590   4.180   2.573   7.828 -0.1315 -0.1133  0.4214
  180SOPE   H9X20591   4.286   2.561   7.798 -0.0300  0.3674  0.5911
  180SOPE   H9Y20592   4.114   2.484   7.815 -1.3400  0.5993  1.4376
  180SOPE  C31020593   4.157   2.615   7.971 -1.0588 -0.3616 -0.4386
  180SOPE  H10X20594   4.046   2.612   7.982 -1.0466  1.3911  0.7151
  180SOPE  H10Y20595   4.185   2.722   7.986 -1.2624 -0.2051 -1.1461
  180SOPE  C31120596   4.230   2.525   8.074 -0.6492  0.0337  0.2959
  180SOPE  H11X20597   4.338   2.524   8.050 -0.9768  2.8442 -1.8756
  180SOPE  H11Y20598   4.183   2.425   8.068 -1.5849  0.2273  2.9918
  180SOPE  C31220599   4.216   2.577   8.220  0.4103  0.1030  0.2772
  180SOPE  H12X20600   4.109   2.596   8.245 -0.0454  0.5994 -1.8393
  180SOPE  H12Y20601   4.263   2.677   8.232  1.6803 -0.4326 -0.0543
  180SOPE  C31320602   4.288   2.474   8.316  0.6101 -0.3892  0.7591
  180SOPE  H13X20603   4.388   2.457   8.270  0.5267  0.3799  0.2675
  180SOPE  H13Y20604   4.236   2.376   8.306 -1.0353  0.6102 -1.1055
  180SOPE  C31420605   4.300   2.507   8.458 -0.1217 -0.7805  0.3137
  180SOPE  H14X20606   4.362   2.594   8.488  1.3708 -1.5207 -0.5195
  180SOPE  H14Y20607   4.348   2.427   8.518  2.1591 -0.1866 -0.5981
  180SOPE  C31520608   4.163   2.547   8.528 -0.4443  0.2380 -0.0691
  180SOPE  H15X20609   4.085   2.474   8.500 -0.7788  0.0923  1.1588
  180SOPE  H15Y20610   4.148   2.646   8.481  0.8808  1.6099  2.1723
  180SOPE  C31620611   4.171   2.564   8.678  0.1031 -0.3254 -0.2347
  180SOPE  H16X20612   4.222   2.661   8.694 -0.9977  0.2261  0.0159
  180SOPE  H16Y20613   4.232   2.479   8.716 -1.4990 -0.8921  1.1984
  180SOPE  C31720614   4.028   2.566   8.736 -1.0653  0.0048 -0.4439
  180SOPE  H17X20615   3.958   2.630   8.678  0.0641  2.2672  0.5564
  180SOPE  H17Y20616   4.028   2.615   8.836  1.1448 -0.0819 -0.3402
  180SOPE  C31820617   3.969   2.426   8.749  0.1632 -0.6054 -0.2520
  180SOPE  H18X20618   4.037   2.364   8.811  1.6319  2.8417  1.9180
  180SOPE  H18Y20619   3.955   2.393   8.644  0.7705 -0.1401 -0.4817
  180SOPE  H18Z20620   3.867   2.443   8.790  0.3974  1.5394 -0.4187
  181SOPE     N20621   4.097   6.724   6.278 -0.1385  0.0002 -0.1803
  181SOPE   HN120622   4.158   6.640   6.284 -1.7581 -1.1702  0.6871
  181SOPE   HN220623   4.003   6.681   6.282 -0.0402 -0.1654  0.6354
  181SOPE   HN320624   4.119   6.782   6.194 -0.4789  1.1645  0.5156
  181SOPE   C1220625   4.122   6.813   6.405  0.2472  0.0788  0.4686
  181SOPE  H12A20626   4.221   6.863   6.398  0.8625 -0.6238  2.9831
  181SOPE  H12B20627   4.112   6.742   6.490 -1.2911  0.7553  0.8749
  181SOPE   C1120628   4.019   6.928   6.406  0.7378  0.5208  0.0771
  181SOPE  H11A20629   4.028   6.993   6.495  0.4909 -0.1292  0.5848
  181SOPE  H11B20630   3.917   6.885   6.424  0.7883  0.9497  1.4983
  181SOPE     P20631   3.920   7.119   6.249  0.7950 -0.1032  0.4743
  181SOPE   O1320632   3.788   7.053   6.229  0.4033  0.1577 -0.4685
  181SOPE   O1420633   3.970   7.206   6.142 -0.0268 -0.3467 -0.2647
  181SOPE   O1220634   4.026   7.010   6.289  0.5234 -0.0326  0.0924
  181SOPE   O1120635   3.910   7.204   6.377  0.0609 -0.3564 -0.2162
  181SOPE    C120636   3.797   7.289   6.404  0.0669  0.4067 -0.3716
  181SOPE    HA20637   3.702   7.239   6.377 -0.8153  1.1407  1.2766
  181SOPE    HB20638   3.809   7.386   6.352  1.3043  0.3206 -0.2767
  181SOPE    C220639   3.789   7.323   6.558 -0.6513  0.3121 -0.4058
  181SOPE    HS20640   3.871   7.397   6.566  0.1070 -0.1643 -3.0210
  181SOPE   O2120641   3.803   7.199   6.638 -0.0051  0.2053  0.6219
  181SOPE   C2120642   3.900   7.198   6.726  0.6245  0.1830 -0.5011
  181SOPE   O2220643   3.981   7.286   6.743  0.1087  0.0717  0.1309
  181SOPE   C2220644   3.897   7.076   6.819 -0.4760 -0.7909 -0.0952
  181SOPE   H2R20645   3.996   7.031   6.839  0.1598  0.7644  0.3454
  181SOPE   H2S20646   3.828   7.003   6.769 -0.9012 -2.0305  2.1832
  181SOPE    C320647   3.656   7.389   6.602 -0.7774  0.0107  0.4174
  181SOPE    HX20648   3.572   7.318   6.590 -0.1304 -0.6845 -0.0798
  181SOPE    HY20649   3.634   7.468   6.527  1.5469 -0.9950 -1.4741
  181SOPE   O3120650   3.671   7.441   6.735 -0.2893 -0.3007  0.1830
  181SOPE   C3120651   3.721   7.564   6.739 -0.1122 -0.5677 -0.2883
  181SOPE   O3220652   3.774   7.618   6.645 -0.7262  0.0290 -0.2187
  181SOPE   C3220653   3.710   7.621   6.880  0.0732 -0.4297 -0.3541
  181SOPE   H2X20654   3.672   7.721   6.853  1.4305 -0.6452 -3.4976
  181SOPE   H2Y20655   3.815   7.618   6.918  0.9578 -2.3053 -2.6482
  181SOPE   C2320656   3.817   7.116   6.949  0.5045  0.6579 -0.2190
  181SOPE   H3R20657   3.767   7.036   7.008  1.1163  1.3052  1.2423
  181SOPE   H3S20658   3.738   7.190   6.923 -0.3269 -0.6118 -1.4491
  181SOPE   C2420659   3.912   7.184   7.053  0.1935  0.0735  0.1095
  181SOPE   H4R20660   3.979   7.099   7.076 -0.9658 -1.1075 -0.7701
  181SOPE   H4S20661   3.971   7.266   7.008 -1.1333  2.3119  2.1834
  181SOPE   C2520662   3.833   7.237   7.173  0.3870 -0.1842  0.3530
  181SOPE   H5R20663   3.787   7.328   7.130  2.4109 -0.0141 -1.6494
  181SOPE   H5S20664   3.759   7.162   7.209 -0.0354 -0.0013 -0.1240
  181SOPE   C2620665   3.924   7.270   7.295 -0.0787 -0.0573 -0.3856
  181SOPE   H6R20666   3.967   7.173   7.331 -0.5199 -0.0958  0.0442
  181SOPE   H6S20667   4.010   7.324   7.251  0.6326 -0.4525  0.4866
  181SOPE   C2720668   3.859   7.353   7.405 -0.0478 -0.7170 -0.1799
  181SOPE   H7R20669   3.812   7.442   7.358  2.3796  1.2548  0.8819
  181SOPE   H7S20670   3.770   7.307   7.452  0.8795 -1.2384  1.1147
  181SOPE   C2820671   3.961   7.405   7.500  0.1008  0.1669 -0.1210
  181SOPE   H8R20672   4.033   7.449   7.428 -0.8235  0.8543 -0.6543
  181SOPE   H8S20673   3.922   7.486   7.566  0.6112  0.0169  0.3758
  181SOPE   C2920674   4.019   7.290   7.578  0.2649  0.0745  0.1651
  181SOPE   H9120675   4.102   7.246   7.521 -1.6571 -0.5138 -2.3480
  181SOPE  C21020676   3.982   7.253   7.698  0.1501 -0.1605  0.2560
  181SOPE  H10120677   4.029   7.161   7.738  1.4580  0.4784  0.2351
  181SOPE  C21120678   3.873   7.303   7.787  0.1449  0.9040 -0.0676
  181SOPE  H11R20679   3.808   7.223   7.829 -1.3578  1.7000 -0.8067
  181SOPE  H11S20680   3.808   7.370   7.727  0.3741 -0.0665 -1.4425
  181SOPE  C21220681   3.942   7.386   7.895  0.2478  0.6285 -0.2181
  181SOPE  H12R20682   3.981   7.481   7.852  1.3705 -0.7770 -2.4690
  181SOPE  H12S20683   4.036   7.347   7.940  0.0115  2.0507  1.6661
  181SOPE  C21320684   3.845   7.417   8.012  0.7966 -0.6275  0.5174
  181SOPE  H13R20685   3.822   7.322   8.064  1.8057 -0.5052  1.2165
  181SOPE  H13S20686   3.754   7.460   7.965  0.6578 -2.7444 -1.3006
  181SOPE  C21420687   3.916   7.516   8.103  0.6113 -0.9146 -0.7168
  181SOPE  H14R20688   3.923   7.620   8.065  2.6129 -0.1847  1.4515
  181SOPE  H14S20689   4.017   7.473   8.117  1.0987  0.2448 -0.6547
  181SOPE  C21520690   3.846   7.519   8.238  0.4640 -0.9136 -0.5550
  181SOPE  H15R20691   3.837   7.413   8.271 -0.2152 -1.5318 -2.6045
  181SOPE  H15S20692   3.746   7.567   8.244  0.0892 -1.8101  1.1096
  181SOPE  C21620693   3.934   7.602   8.331  0.4342  0.5545  0.4643
  181SOPE  H16R20694   3.972   7.694   8.281 -2.7245  0.8036 -1.8244
  181SOPE  H16S20695   4.018   7.533   8.354  0.3289 -0.1744 -1.2091
  181SOPE  C21720696   3.893   7.627   8.474  1.5474  0.0954  0.0362
  181SOPE  H17R20697   3.857   7.541   8.534  2.7955 -0.7429 -0.3944
  181SOPE  H17S20698   3.799   7.686   8.459  1.7391  0.5641  0.6355
  181SOPE  C21820699   4.004   7.705   8.551 -0.3636  0.0028 -0.3077
  181SOPE  H18R20700   3.965   7.730   8.652 -3.1576 -1.9601 -0.7979
  181SOPE  H18S20701   4.034   7.794   8.491 -0.3416 -2.0010 -3.4735
  181SOPE  H18T20702   4.096   7.643   8.548 -0.2331  0.1377  0.5545
  181SOPE   C3320703   3.613   7.543   6.973 -0.8069  0.0008  0.0283
  181SOPE   H3X20704   3.639   7.435   6.978  1.1788  0.3965 -0.8334
  181SOPE   H3Y20705   3.507   7.545   6.940 -0.8960 -1.9718  0.0966
  181SOPE   C3420706   3.603   7.595   7.116  0.5495  1.0542 -0.7516
  181SOPE   H4X20707   3.560   7.697   7.114 -3.3672 -0.4301 -1.7189
  181SOPE   H4Y20708   3.709   7.593   7.149  0.2498  1.0843  0.2429
  181SOPE   C3520709   3.514   7.504   7.204 -0.7101 -0.2981 -0.0988
  181SOPE   H5X20710   3.535   7.395   7.193  0.0940 -0.0306 -1.4044
  181SOPE   H5Y20711   3.411   7.524   7.169 -0.4172 -2.0306 -2.1528
  181SOPE   C3620712   3.519   7.552   7.353  0.1545 -0.6021 -0.4946
  181SOPE   H6X20713   3.510   7.663   7.356 -2.5109 -0.7543 -0.1251
  181SOPE   H6Y20714   3.615   7.518   7.395 -0.5365 -1.2758  0.5881
  181SOPE   C3720715   3.407   7.490   7.427 -0.0495 -0.5333 -0.3662
  181SOPE   H7X20716   3.411   7.379   7.420 -1.3144 -0.5527 -1.0028
  181SOPE   H7Y20717   3.316   7.537   7.384  0.5796  2.5591  1.4232
  181SOPE   C3820718   3.421   7.522   7.579 -0.1804  0.5230 -1.1812
  181SOPE   H8X20719   3.316   7.513   7.615  0.2387  2.5309  0.7811
  181SOPE   H8Y20720   3.466   7.624   7.587 -1.5696  1.0107  1.1589
  181SOPE   C3920721   3.510   7.425   7.657  0.1997  0.2729  0.0977
  181SOPE   H9X20722   3.613   7.426   7.613 -0.6422  0.1545 -1.9984
  181SOPE   H9Y20723   3.469   7.322   7.656  2.2813 -0.6265 -0.6046
  181SOPE  C31020724   3.533   7.462   7.800  0.0798 -0.2172  0.8711
  181SOPE  H10X20725   3.564   7.568   7.810  0.4639 -0.3162  0.7329
  181SOPE  H10Y20726   3.613   7.391   7.830  1.5378  2.1698  2.9127
  181SOPE  C31120727   3.410   7.446   7.895  0.1856 -0.0789  0.9570
  181SOPE  H11X20728   3.351   7.358   7.864 -0.0579  0.0665  1.0028
  181SOPE  H11Y20729   3.341   7.532   7.884 -0.5423 -0.7703 -0.0384
  181SOPE  C31220730   3.460   7.446   8.041  0.7371 -0.2060 -0.3236
  181SOPE  H12X20731   3.504   7.547   8.059 -0.3657 -0.0065  1.4677
  181SOPE  H12Y20732   3.541   7.371   8.051 -0.0129 -1.2156 -1.4820
  181SOPE  C31320733   3.349   7.421   8.139  0.3787  0.1348 -0.1881
  181SOPE  H13X20734   3.310   7.317   8.139  1.9391 -0.4743 -0.0714
  181SOPE  H13Y20735   3.262   7.482   8.107 -1.5310 -2.1191  0.4349
  181SOPE  C31420736   3.384   7.463   8.281 -0.0814 -0.3081 -0.3886
  181SOPE  H14X20737   3.295   7.472   8.347  0.1575  0.8258 -0.2026
  181SOPE  H14Y20738   3.410   7.571   8.274 -2.1758  0.4531  1.9081
  181SOPE  C31520739   3.497   7.385   8.347  0.2529  0.2242  0.1098
  181SOPE  H15X20740   3.593   7.402   8.294 -0.4222 -1.9234 -1.9601
  181SOPE  H15Y20741   3.465   7.279   8.339  1.1398  0.1037 -3.6438
  181SOPE  C31620742   3.512   7.424   8.496 -0.3348  0.3641 -0.4074
  181SOPE  H16X20743   3.420   7.413   8.556 -0.3256  2.4191  0.0733
  181SOPE  H16Y20744   3.526   7.534   8.509  0.2221  0.2211  0.2384
  181SOPE  C31720745   3.622   7.333   8.556  0.1175 -0.0260  0.3524
  181SOPE  H17X20746   3.715   7.338   8.496  0.9797  0.3085  1.6559
  181SOPE  H17Y20747   3.585   7.230   8.538 -2.0573  0.5493  1.2228
  181SOPE  C31820748   3.652   7.357   8.706  0.3798 -0.2477 -0.1980
  181SOPE  H18X20749   3.676   7.461   8.737  1.8283 -0.0837 -1.6846
  181SOPE  H18Y20750   3.738   7.289   8.723  0.5381 -0.4750 -1.7493
  181SOPE  H18Z20751   3.563   7.319   8.759 -1.0426  1.6172 -1.1205
  182SOPE     N20752   3.518   2.486   6.114  0.1809  0.4185  0.6015
  182SOPE   HN120753   3.614   2.504   6.148  0.3944  1.7988 -0.6048
  182SOPE   HN220754   3.504   2.383   6.117  0.0345  0.3714 -0.8295
  182SOPE   HN320755   3.502   2.513   6.014 -2.1540 -1.8922  0.2320
  182SOPE   C1220756   3.420   2.554   6.207 -0.1675  0.1487  0.0387
  182SOPE  H12A20757   3.320   2.512   6.183  0.2509 -1.2271  0.5945
  182SOPE  H12B20758   3.423   2.665   6.197  2.1355 -0.0097 -1.7435
  182SOPE   C1120759   3.458   2.514   6.359 -0.2332 -0.8635  0.3399
  182SOPE  H11A20760   3.458   2.405   6.383 -2.8765 -0.7822  0.9552
  182SOPE  H11B20761   3.382   2.554   6.429  2.1827 -1.7824  3.7218
  182SOPE     P20762   3.621   2.675   6.506  0.0032 -0.0181 -0.0769
  182SOPE   O1320763   3.494   2.739   6.548 -0.5901  0.2720  0.1008
  182SOPE   O1420764   3.725   2.759   6.448  0.4783  0.2708  0.9242
  182SOPE   O1220765   3.586   2.574   6.394 -0.2211 -0.7058  0.2694
  182SOPE   O1120766   3.670   2.587   6.623  0.3748  0.3064 -0.0135
  182SOPE    C120767   3.716   2.457   6.606  0.3562 -0.2012 -0.3221
  182SOPE    HA20768   3.764   2.431   6.509  0.1666 -0.8619 -0.2499
  182SOPE    HB20769   3.639   2.377   6.605  0.8989 -0.7315 -1.5270
  182SOPE    C220770   3.835   2.406   6.694  0.5685  0.0277 -0.3436
  182SOPE    HS20771   3.854   2.302   6.661  1.6391 -0.3785  1.4056
  182SOPE   O2120772   3.794   2.416   6.830  0.3585  0.3332 -0.6273
  182SOPE   C2120773   3.713   2.321   6.873  0.1715  0.4186  0.2162
  182SOPE   O2220774   3.652   2.244   6.798  0.4288 -0.2048 -0.7318
  182SOPE   C2220775   3.711   2.322   7.023 -0.9260 -0.2116 -0.1990
  182SOPE   H2R20776   3.755   2.418   7.057 -3.5936  1.1132 -0.2099
  182SOPE   H2S20777   3.781   2.247   7.065  0.5826  2.0140  1.4635
  182SOPE    C320778   3.962   2.482   6.661  0.5735 -0.5950  0.0001
  182SOPE    HX20779   3.948   2.589   6.687 -0.2559 -0.3539 -1.3164
  182SOPE    HY20780   3.969   2.480   6.550  1.1577 -1.5205  0.0492
  182SOPE   O3120781   4.072   2.433   6.733  0.3963  0.9544 -0.1565
  182SOPE   C3120782   4.132   2.327   6.688 -0.4390  0.2145  0.2071
  182SOPE   O3220783   4.086   2.241   6.613 -0.2146  0.1394 -0.1386
  182SOPE   C3220784   4.271   2.307   6.749  0.2848 -0.4937  0.0769
  182SOPE   H2X20785   4.313   2.404   6.785  1.4721 -0.7950 -0.4490
  182SOPE   H2Y20786   4.340   2.265   6.673  0.0676 -2.7021  1.0359
  182SOPE   C2320787   3.572   2.307   7.080 -0.0432 -0.3684 -0.1127
  182SOPE   H3R20788   3.510   2.230   7.030  3.2317 -2.7210 -0.9415
  182SOPE   H3S20789   3.530   2.410   7.069  0.7766 -0.1392 -1.4154
  182SOPE   C2420790   3.566   2.278   7.227  0.1795  0.4561  0.0135
  182SOPE   H4R20791   3.462   2.251   7.253  0.9168 -1.7884  0.8242
  182SOPE   H4S20792   3.620   2.182   7.244  1.1844  0.9098 -0.4911
  182SOPE   C2520793   3.629   2.387   7.310 -0.1701  0.1404 -0.5677
  182SOPE   H5R20794   3.732   2.406   7.274 -0.5425  3.3751 -0.1870
  182SOPE   H5S20795   3.571   2.480   7.288 -1.2129 -1.0271 -3.1971
  182SOPE   C2620796   3.643   2.355   7.462  0.2778  1.0336  0.2508
  182SOPE   H6R20797   3.542   2.322   7.496 -0.4655  1.6764 -1.2480
  182SOPE   H6S20798   3.715   2.272   7.478 -0.2819 -0.1632 -2.8181
  182SOPE   C2720799   3.689   2.473   7.550  0.1627  0.5025 -0.1868
  182SOPE   H7R20800   3.791   2.494   7.512  0.7719 -1.6967  0.0630
  182SOPE   H7S20801   3.622   2.558   7.525  1.1371  1.6455  0.9417
  182SOPE   C2820802   3.696   2.424   7.695 -0.0719 -0.5115  0.0906
  182SOPE   H8R20803   3.740   2.322   7.693 -0.9202 -0.9052 -3.0978
  182SOPE   H8S20804   3.771   2.496   7.735 -2.4423  2.0946  0.1844
  182SOPE   C2920805   3.566   2.431   7.761 -0.0790  0.0410  0.7684
  182SOPE   H9120806   3.480   2.449   7.695 -1.4802 -2.2703  1.8519
  182SOPE  C21020807   3.544   2.418   7.884 -0.2491  0.0850 -0.2553
  182SOPE  H10120808   3.444   2.440   7.925  0.7672  2.5667  1.1366
  182SOPE  C21120809   3.636   2.392   8.001 -0.6451  0.9699  0.4823
  182SOPE  H11R20810   3.735   2.365   7.958 -0.6567  1.5043  0.1137
  182SOPE  H11S20811   3.600   2.296   8.045  1.1946 -0.1603 -0.3128
  182SOPE  C21220812   3.634   2.494   8.118  0.1695  0.3026 -0.3754
  182SOPE  H12R20813   3.562   2.458   8.194  0.8123 -2.7245 -1.0775
  182SOPE  H12S20814   3.613   2.593   8.071 -0.5565 -0.1767 -1.0921
  182SOPE  C21320815   3.769   2.508   8.193  0.3072 -1.1574  0.7237
  182SOPE  H13R20816   3.837   2.530   8.109 -0.1919 -1.2966  0.2788
  182SOPE  H13S20817   3.809   2.416   8.241  0.4893 -1.7950 -0.6133
  182SOPE  C21420818   3.767   2.624   8.291  0.1034 -0.4103  1.0929
  182SOPE  H14R20819   3.753   2.723   8.243  0.2641 -0.3073  1.2563
  182SOPE  H14S20820   3.871   2.641   8.326  0.0221  1.4349  0.5547
  182SOPE  C21520821   3.692   2.614   8.420 -0.2241  0.3417  1.0412
  182SOPE  H15R20822   3.718   2.518   8.471  1.2413  0.5599  0.7438
  182SOPE  H15S20823   3.583   2.615   8.399 -0.5962 -2.3605  2.3072
  182SOPE  C21620824   3.721   2.726   8.519 -0.9196 -0.0425  0.0466
  182SOPE  H16R20825   3.689   2.822   8.473  0.8678  0.6698  0.2373
  182SOPE  H16S20826   3.831   2.730   8.532 -1.0134  0.6859  0.7454
  182SOPE  C21720827   3.661   2.703   8.652  0.3794  0.6694 -0.3655
  182SOPE  H17R20828   3.701   2.611   8.700 -1.1626  0.6830  1.0649
  182SOPE  H17S20829   3.554   2.672   8.658  1.1631 -2.3588 -0.3464
  182SOPE  C21820830   3.674   2.816   8.753  0.2506  0.0197  0.0599
  182SOPE  H18R20831   3.630   2.913   8.720 -1.5550 -0.3350  1.3270
  182SOPE  H18S20832   3.779   2.843   8.776 -0.8929  2.4886  3.1202
  182SOPE  H18T20833   3.629   2.783   8.849 -0.6583 -2.0181 -1.0021
  182SOPE   C3320834   4.262   2.213   6.872 -0.0168  0.3577  0.2601
  182SOPE   H3X20835   4.358   2.194   6.926 -0.2699  0.0938  0.6194
  182SOPE   H3Y20836   4.229   2.114   6.835  1.2302  0.0564 -0.1006
  182SOPE   C3420837   4.178   2.262   6.986  0.3511 -0.6011 -0.1484
  182SOPE   H4X20838   4.072   2.258   6.952  0.8886  0.5566 -2.1045
  182SOPE   H4Y20839   4.210   2.367   7.001  1.5643 -0.9463 -0.2004
  182SOPE   C3520840   4.198   2.189   7.117  0.0159 -0.5055  0.5057
  182SOPE   H5X20841   4.297   2.213   7.160  0.2300  2.6476 -1.4672
  182SOPE   H5Y20842   4.206   2.079   7.102  1.6982 -0.3719  0.2795
  182SOPE   C3620843   4.081   2.235   7.210 -0.3094 -0.2121  0.3302
  182SOPE   H6X20844   3.987   2.227   7.150  0.1729  2.0908 -0.8256
  182SOPE   H6Y20845   4.091   2.345   7.222  1.3886 -0.3585  0.4825
  182SOPE   C3720846   4.093   2.164   7.344 -0.9596 -0.4728 -0.3574
  182SOPE   H7X20847   4.089   2.054   7.330  0.6190 -0.8247  1.5131
  182SOPE   H7Y20848   4.006   2.192   7.407 -1.0354 -0.2181 -0.5711
  182SOPE   C3820849   4.228   2.199   7.419 -0.0603 -0.1330  0.2517
  182SOPE   H8X20850   4.227   2.310   7.426 -2.0914  0.0661 -1.9692
  182SOPE   H8Y20851   4.305   2.163   7.348 -0.8474  1.9823 -1.8022
  182SOPE   C3920852   4.221   2.131   7.556  0.0304  0.0195 -0.5132
  182SOPE   H9X20853   4.317   2.152   7.610  0.1000  0.5074 -0.8227
  182SOPE   H9Y20854   4.216   2.021   7.545  0.9610 -0.2723  1.3909
  182SOPE  C31020855   4.109   2.184   7.649  0.4682 -0.0807 -0.4840
  182SOPE  H10X20856   4.023   2.139   7.594  0.2865 -1.2042  0.6672
  182SOPE  H10Y20857   4.104   2.294   7.663  1.0417 -0.2915  1.6614
  182SOPE  C31120858   4.123   2.137   7.789 -0.1188  0.8602 -0.9100
  182SOPE  H11X20859   4.222   2.164   7.831 -0.3075 -1.3825  1.2154
  182SOPE  H11Y20860   4.125   2.026   7.784  0.2365  0.8279 -0.2101
  182SOPE  C31220861   4.014   2.183   7.884  0.6598 -0.2284  0.2804
  182SOPE  H12X20862   3.919   2.173   7.826 -0.3596 -0.3781  1.9288
  182SOPE  H12Y20863   4.019   2.291   7.912 -0.2138 -0.5873  1.9233
  182SOPE  C31320864   4.002   2.107   8.019 -0.0991 -0.0440  0.0451
  182SOPE  H13X20865   4.097   2.131   8.072  1.9481  1.6345 -3.9657
  182SOPE  H13Y20866   3.979   1.999   8.011 -1.2418  0.2275 -0.5636
  182SOPE  C31420867   3.898   2.178   8.101 -0.2186  0.3244  0.3408
  182SOPE  H14X20868   3.799   2.169   8.050  0.1945  1.5857 -0.7255
  182SOPE  H14Y20869   3.912   2.288   8.109  0.0627  0.5005 -1.8842
  182SOPE  C31520870   3.873   2.110   8.236  0.1163  0.2392  0.1110
  182SOPE  H15X20871   3.867   2.001   8.216 -0.0802 -0.1237  2.0306
  182SOPE  H15Y20872   3.782   2.152   8.282  1.8304  1.7811  2.3094
  182SOPE  C31620873   3.997   2.132   8.327 -0.3539 -0.0257  0.3758
  182SOPE  H16X20874   4.026   2.239   8.316 -0.9369  0.0345 -0.7345
  182SOPE  H16Y20875   4.084   2.082   8.280  1.5359  2.7009  0.7468
  182SOPE  C31720876   3.970   2.111   8.471 -0.2491  0.3921 -0.4754
  182SOPE  H17X20877   3.945   2.003   8.483 -2.0819  0.7810 -0.5417
  182SOPE  H17Y20878   3.882   2.173   8.498  1.9719  3.4289  0.3005
  182SOPE  C31820879   4.094   2.148   8.558  0.6636 -0.2103  0.1207
  182SOPE  H18X20880   4.123   2.254   8.543  2.4709 -0.6662  0.1675
  182SOPE  H18Y20881   4.181   2.080   8.548  0.5957 -0.0805 -1.7717
  182SOPE  H18Z20882   4.073   2.134   8.666  1.2913  0.1685  0.2927
  183SOPE     N20883   6.291   1.222   6.172  0.4443  0.2075 -0.5170
  183SOPE   HN120884   6.380   1.207   6.224 -0.0715  1.2417  0.7150
  183SOPE   HN220885   6.302   1.187   6.074  1.4024  1.8907 -1.0490
  183SOPE   HN320886   6.250   1.317   6.176  3.1661  1.5509 -1.5823
  183SOPE   C1220887   6.197   1.122   6.243 -0.1585  0.0210  0.3757
  183SOPE  H12A20888   6.203   1.019   6.201 -0.3455  0.1180  0.1059
  183SOPE  H12B20889   6.094   1.160   6.227  0.3253  1.2658  0.0514
  183SOPE   C1120890   6.228   1.115   6.392  0.7039  0.0432  0.0685
  183SOPE  H11A20891   6.150   1.055   6.442 -1.2365  0.4362 -2.3114
  183SOPE  H11B20892   6.213   1.216   6.436  0.4465  1.5531 -3.1584
  183SOPE     P20893   6.420   0.957   6.451 -0.6292  0.1801 -0.0817
  183SOPE   O1320894   6.566   0.961   6.469  0.3036 -0.4732 -0.2450
  183SOPE   O1420895   6.374   0.858   6.354 -0.7698 -0.3114 -0.6079
  183SOPE   O1220896   6.367   1.099   6.411  0.5429  0.3605 -0.4738
  183SOPE   O1120897   6.353   0.917   6.591 -0.0705  0.7138  0.1659
  183SOPE    C120898   6.373   0.791   6.644 -0.3122 -0.5195  0.4310
  183SOPE    HA20899   6.462   0.735   6.608 -0.5970  0.1390 -1.3827
  183SOPE    HB20900   6.288   0.728   6.610  1.2382 -2.2251 -0.4822
  183SOPE    C220901   6.369   0.788   6.798 -0.2360  0.3465 -0.5325
  183SOPE    HS20902   6.378   0.688   6.845  1.5926  0.7872  0.1429
  183SOPE   O2120903   6.244   0.842   6.841  0.2386 -0.2559  0.0996
  183SOPE   C2120904   6.140   0.775   6.843 -0.5610  0.3507 -0.7597
  183SOPE   O2220905   6.131   0.658   6.823 -0.2381 -0.2658  0.7143
  183SOPE   C2220906   6.013   0.856   6.888 -0.8355  0.1606 -0.2544
  183SOPE   H2R20907   5.956   0.864   6.793  1.1974  0.2268 -1.5133
  183SOPE   H2S20908   6.048   0.957   6.919 -0.9424  0.2785 -0.5144
  183SOPE    C320909   6.477   0.872   6.860 -0.2091 -0.5962  0.6685
  183SOPE    HX20910   6.470   0.973   6.814 -2.4216 -1.2226 -0.5150
  183SOPE    HY20911   6.578   0.831   6.837  0.4814  0.4487  1.6809
  183SOPE   O3120912   6.471   0.876   7.003  0.2780  0.3190 -0.4724
  183SOPE   C3120913   6.572   0.937   7.055 -0.2888  0.0790 -0.3073
  183SOPE   O3220914   6.661   0.995   6.995 -0.3364  0.2541  0.3840
  183SOPE   C3220915   6.558   0.910   7.208 -0.8080  0.5040  0.3580
  183SOPE   H2X20916   6.582   0.805   7.234 -0.5193  0.1890 -1.1045
  183SOPE   H2Y20917   6.452   0.935   7.228 -0.4258  2.7261 -0.1663
  183SOPE   C2320918   5.938   0.793   7.013 -0.6081  0.0561 -0.0493
  183SOPE   H3R20919   5.871   0.711   6.981 -1.1718  0.4531  0.0976
  183SOPE   H3S20920   5.859   0.865   7.043 -1.6624 -1.3858  0.7305
  183SOPE   C2420921   6.021   0.757   7.142  0.0574 -0.5786  0.1740
  183SOPE   H4R20922   5.937   0.724   7.206 -0.6821  0.7815 -0.0546
  183SOPE   H4S20923   6.086   0.668   7.128 -1.7812 -2.2253  1.5611
  183SOPE   C2520924   6.110   0.863   7.202 -0.4226 -0.6923 -0.3684
  183SOPE   H5R20925   6.207   0.857   7.149 -0.9015 -0.9056 -1.2420
  183SOPE   H5S20926   6.062   0.961   7.184  0.9026 -0.1554 -1.0717
  183SOPE   C2620927   6.130   0.823   7.352 -0.1135  0.5003  0.5733
  183SOPE   H6R20928   6.155   0.918   7.403  0.8863  0.8943 -0.5895
  183SOPE   H6S20929   6.035   0.784   7.395 -0.7566  0.2801 -0.9607
  183SOPE   C2720930   6.244   0.719   7.384 -0.2722  0.5324 -0.6937
  183SOPE   H7R20931   6.209   0.614   7.369  0.9909 -0.0755  0.4258
  183SOPE   H7S20932   6.333   0.736   7.318  0.2746 -1.5110 -0.5591
  183SOPE   C2820933   6.302   0.729   7.531  0.1497 -0.3768  0.7118
  183SOPE   H8R20934   6.399   0.676   7.544 -0.5847 -1.9123  0.2837
  183SOPE   H8S20935   6.330   0.832   7.561  0.0343 -0.5136  1.3013
  183SOPE   C2920936   6.201   0.670   7.628  0.2532 -0.5651 -0.0958
  183SOPE   H9120937   6.160   0.573   7.597 -1.1733  0.6649 -2.4302
  183SOPE  C21020938   6.126   0.747   7.715  0.5197  0.9098 -0.1832
  183SOPE  H10120939   6.039   0.706   7.768  0.5943  2.3280  1.1287
  183SOPE  C21120940   6.133   0.893   7.738 -0.1708  0.2781 -0.4672
  183SOPE  H11R20941   6.077   0.935   7.652 -0.3938 -0.1238 -0.5189
  183SOPE  H11S20942   6.231   0.945   7.738 -0.7675  1.4906  1.5106
  183SOPE  C21220943   6.067   0.936   7.870  0.1114  0.0004 -0.1013
  183SOPE  H12R20944   5.972   0.881   7.884 -1.0706  1.5093 -1.7712
  183SOPE  H12S20945   6.050   1.046   7.864  0.5543 -0.0221 -2.6211
  183SOPE  C21320946   6.165   0.905   7.991 -0.2200 -0.4378  0.3718
  183SOPE  H13R20947   6.267   0.947   7.984  0.0137 -0.8865  1.0243
  183SOPE  H13S20948   6.170   0.794   7.997 -0.3736 -0.7317 -2.9882
  183SOPE  C21420949   6.095   0.938   8.128  0.2069 -0.5550  0.3757
  183SOPE  H14R20950   5.993   0.893   8.130 -0.1333  0.1830 -0.0142
  183SOPE  H14S20951   6.072   1.047   8.136 -1.3001 -0.6325 -2.0017
  183SOPE  C21520952   6.178   0.890   8.254 -0.1720 -0.8984  0.3551
  183SOPE  H15R20953   6.275   0.942   8.270  0.0834 -1.0190 -0.7548
  183SOPE  H15S20954   6.206   0.784   8.238  2.6677  0.1132 -2.4184
  183SOPE  C21620955   6.094   0.898   8.388 -0.7608 -0.2773  0.4560
  183SOPE  H16R20956   5.992   0.854   8.383 -0.7938 -0.0604 -2.5252
  183SOPE  H16S20957   6.077   1.005   8.410  0.0039  0.2167 -1.1544
  183SOPE  C21720958   6.175   0.842   8.506  0.5871  0.3822  0.8438
  183SOPE  H17R20959   6.274   0.890   8.521  1.6625 -1.5846  0.3946
  183SOPE  H17S20960   6.182   0.733   8.486  0.5648  0.6434 -0.7628
  183SOPE  C21820961   6.095   0.849   8.634 -0.8762  0.0901  0.5476
  183SOPE  H18R20962   6.145   0.782   8.707 -0.5525 -1.2712 -0.8762
  183SOPE  H18S20963   5.989   0.818   8.621 -1.3464  1.7268  0.2464
  183SOPE  H18T20964   6.111   0.953   8.671  0.0849 -0.0258  0.4862
  183SOPE   C3320965   6.649   1.012   7.286  0.0849 -0.7605 -0.3174
  183SOPE   H3X20966   6.627   1.113   7.246 -0.6493 -0.5930  0.4624
  183SOPE   H3Y20967   6.754   0.989   7.262  0.7722  0.4807  1.3063
  183SOPE   C3420968   6.617   1.030   7.434  0.0011 -0.5480  0.6225
  183SOPE   H4X20969   6.511   1.058   7.448  0.4888  0.8245  1.8282
  183SOPE   H4Y20970   6.684   1.110   7.471 -1.0362  0.9474 -0.6236
  183SOPE   C3520971   6.636   0.905   7.523  0.0529 -0.4604  0.4894
  183SOPE   H5X20972   6.736   0.868   7.493 -0.1920 -0.1903 -0.7116
  183SOPE   H5Y20973   6.566   0.830   7.482 -0.7283  0.3551  0.2957
  183SOPE   C3620974   6.622   0.940   7.669 -0.3317 -0.0044  0.5370
  183SOPE   H6X20975   6.526   0.993   7.687 -0.5365 -0.3824  0.5615
  183SOPE   H6Y20976   6.708   1.001   7.705  1.3454 -1.1719 -1.2915
  183SOPE   C3720977   6.629   0.811   7.755 -0.3309 -0.4029 -0.0530
  183SOPE   H7X20978   6.729   0.762   7.754 -0.7124 -1.2662 -2.3528
  183SOPE   H7Y20979   6.559   0.738   7.710 -2.3243  0.2691  1.8171
  183SOPE   C3820980   6.574   0.836   7.895 -0.0777  0.2333  0.0492
  183SOPE   H8X20981   6.479   0.893   7.883  0.1738  0.4474 -0.9522
  183SOPE   H8Y20982   6.653   0.895   7.947  1.5928 -1.3651 -0.5662
  183SOPE   C3920983   6.533   0.704   7.972  0.0531 -0.1666  0.0372
  183SOPE   H9X20984   6.604   0.623   7.944 -0.6009 -1.3676  1.7217
  183SOPE   H9Y20985   6.433   0.675   7.935 -0.5851  1.9783 -0.0561
  183SOPE  C31020986   6.518   0.732   8.123 -0.2287 -0.1159 -0.3458
  183SOPE  H10X20987   6.459   0.655   8.177  1.3017  1.0153  3.2566
  183SOPE  H10Y20988   6.475   0.834   8.126  1.4104  0.5875  0.3045
  183SOPE  C31120989   6.654   0.749   8.200 -0.1061  0.3326  0.1110
  183SOPE  H11X20990   6.720   0.827   8.156  0.1602 -0.9997 -1.9980
  183SOPE  H11Y20991   6.702   0.649   8.190 -0.0818  0.1072  2.0440
  183SOPE  C31220992   6.646   0.776   8.349 -0.6332 -0.2331 -0.7224
  183SOPE  H12X20993   6.749   0.781   8.390 -1.3886  2.2925  1.0941
  183SOPE  H12Y20994   6.602   0.694   8.410  2.1989 -0.0153  1.8422
  183SOPE  C31320995   6.588   0.904   8.391  0.0553  0.3631 -0.2789
  183SOPE  H13X20996   6.622   0.914   8.496  1.1275 -0.2608 -0.5525
  183SOPE  H13Y20997   6.480   0.879   8.393  0.3358 -0.8521  0.3588
  183SOPE  C31420998   6.631   1.025   8.310 -0.4696 -0.1451 -0.5013
  183SOPE  H14X20999   6.598   1.017   8.204 -2.2300 -0.8810  0.0623
  183SOPE  H14Y21000   6.742   1.016   8.321 -0.4943  1.2982  1.5767
  183SOPE  C31521001   6.585   1.162   8.365 -0.1850 -0.5549  0.0441
  183SOPE  H15X21002   6.658   1.240   8.332 -0.1120 -0.3891  0.5961
  183SOPE  H15Y21003   6.593   1.164   8.475  0.2094  1.3382  0.0191
  183SOPE  C31621004   6.447   1.199   8.318  0.6429  0.3089 -0.4274
  183SOPE  H16X21005   6.429   1.294   8.373 -0.1909  1.5891 -2.7606
  183SOPE  H16Y21006   6.381   1.120   8.358  2.4305 -0.2847  1.5251
  183SOPE  C31721007   6.434   1.243   8.175 -0.0326  0.0721  0.7717
  183SOPE  H17X21008   6.440   1.157   8.105  2.7254  1.0605 -0.3439
  183SOPE  H17Y21009   6.519   1.304   8.137  1.2648 -1.6979  0.7049
  183SOPE  C31821010   6.320   1.335   8.160  0.3656  0.4398 -1.0917
  183SOPE  H18X21011   6.223   1.281   8.151  0.2497  0.6409 -1.0498
  183SOPE  H18Y21012   6.329   1.389   8.063 -0.7243 -0.9235 -1.9917
  183SOPE  H18Z21013   6.310   1.410   8.242  3.1115 -1.4779  1.1721
  184SOPE     N21014   6.077   0.542   6.303 -0.0717  0.5175 -0.5421
  184SOPE   HN121015   6.135   0.595   6.236  1.2820  2.6433  2.0929
  184SOPE   HN221016   6.117   0.446   6.312 -0.9781  0.1579 -0.1826
  184SOPE   HN321017   5.980   0.543   6.265 -0.4036  0.6026  0.2762
  184SOPE   C1221018   6.075   0.615   6.436 -0.1275  0.2961  0.3929
  184SOPE  H12A21019   6.181   0.624   6.468  0.9492 -1.5066 -2.3152
  184SOPE  H12B21020   6.008   0.558   6.504 -0.2206 -1.0522 -0.7776
  184SOPE   C1121021   6.026   0.757   6.423  0.0078 -0.1363 -0.2918
  184SOPE  H11A21022   6.080   0.796   6.334  1.2817 -0.9669  0.0836
  184SOPE  H11B21023   6.054   0.812   6.516 -1.5793  1.3934 -0.6636
  184SOPE     P21024   5.822   0.890   6.319  0.5148  0.2914 -0.1701
  184SOPE   O1321025   5.679   0.859   6.290 -0.1318  0.4800  0.5460
  184SOPE   O1421026   5.907   0.909   6.203  0.7774 -0.3737 -0.1651
  184SOPE   O1221027   5.884   0.771   6.402  0.1772 -0.5215 -0.2956
  184SOPE   O1121028   5.830   1.013   6.414  1.0566 -0.2128 -0.4039
  184SOPE    C121029   5.790   0.988   6.552 -0.6508  0.0409  0.3351
  184SOPE    HA21030   5.828   0.893   6.594  0.2857 -0.8782 -2.4046
  184SOPE    HB21031   5.679   0.980   6.561 -0.8487  3.0755  2.0675
  184SOPE    C221032   5.837   1.107   6.643 -0.2079  0.2325  0.1903
  184SOPE    HS21033   5.819   1.201   6.587  1.4776  0.3228 -0.2788
  184SOPE   O2121034   5.973   1.088   6.689  0.2159  0.1830 -0.6533
  184SOPE   C2121035   6.043   1.200   6.724 -0.1133  0.7778  0.1116
  184SOPE   O2221036   5.998   1.311   6.729 -0.0777 -0.2919 -0.3005
  184SOPE   C2221037   6.185   1.161   6.755 -0.0179 -0.3704  0.1532
  184SOPE   H2R21038   6.249   1.174   6.665 -0.6077  2.2382  0.0267
  184SOPE   H2S21039   6.189   1.053   6.777 -2.4877  0.0390  3.2321
  184SOPE    C321040   5.756   1.123   6.776 -0.4044  0.5042  0.1696
  184SOPE    HX21041   5.787   1.040   6.844 -2.5901  1.0273  1.9310
  184SOPE    HY21042   5.653   1.094   6.749  0.5156 -1.8850 -1.0820
  184SOPE   O3121043   5.761   1.240   6.856  0.0354 -0.4796 -0.6276
  184SOPE   C3121044   5.684   1.347   6.819  0.8246 -0.1275  0.6241
  184SOPE   O3221045   5.609   1.348   6.723 -0.3520 -0.5087 -0.1558
  184SOPE   C3221046   5.698   1.463   6.927  0.7768  0.7505  0.4965
  184SOPE   H2X21047   5.606   1.522   6.941  1.0962  1.6328 -0.9101
  184SOPE   H2Y21048   5.770   1.528   6.872  0.8810  0.5469  0.3917
  184SOPE   C2321049   6.245   1.244   6.872  0.0617 -0.0867  0.1156
  184SOPE   H3R21050   6.227   1.352   6.854  1.7070  0.4769  1.5505
  184SOPE   H3S21051   6.354   1.228   6.855 -0.0763  0.3000 -1.2971
  184SOPE   C2421052   6.207   1.208   7.015  0.2151 -0.3474  0.6377
  184SOPE   H4R21053   6.097   1.219   7.028 -0.3696 -1.7673 -2.1770
  184SOPE   H4S21054   6.225   1.099   7.030  1.4041 -0.0382  1.5586
  184SOPE   C2521055   6.293   1.291   7.115  0.5714  0.0184  0.0001
  184SOPE   H5R21056   6.397   1.260   7.093  0.1450 -0.2344 -1.7640
  184SOPE   H5S21057   6.280   1.399   7.093 -1.0936 -0.0243  0.6156
  184SOPE   C2621058   6.267   1.262   7.262 -0.9089 -0.1725 -0.5126
  184SOPE   H6R21059   6.269   1.152   7.279 -0.7964  0.0798  1.2904
  184SOPE   H6S21060   6.337   1.323   7.323 -4.0702 -0.1771  3.5359
  184SOPE   C2721061   6.132   1.315   7.317  0.4000 -0.2211 -0.2106
  184SOPE   H7R21062   6.139   1.425   7.325  1.4977  0.1576 -4.1578
  184SOPE   H7S21063   6.042   1.288   7.259  1.3518 -0.2502 -1.7428
  184SOPE   C2821064   6.110   1.236   7.446 -0.1915 -0.5357 -0.2756
  184SOPE   H8R21065   6.048   1.302   7.511 -0.0587 -0.2380 -0.4494
  184SOPE   H8S21066   6.043   1.150   7.427  0.6183 -1.2565  0.0967
  184SOPE   C2921067   6.232   1.202   7.526  0.1901 -0.0837 -0.4257
  184SOPE   H9121068   6.241   1.094   7.542 -0.3039 -0.0299  0.2332
  184SOPE  C21021069   6.321   1.275   7.596  0.4418  0.2988  0.4857
  184SOPE  H10121070   6.414   1.235   7.640  0.7587  1.2177  0.6919
  184SOPE  C21121071   6.307   1.428   7.595  0.6847  0.3300 -0.5934
  184SOPE  H11R21072   6.230   1.472   7.527  0.3608  1.0835  0.2479
  184SOPE  H11S21073   6.401   1.466   7.550  1.3209  0.9715  1.2183
  184SOPE  C21221074   6.299   1.506   7.728 -0.5880  0.1929  0.3495
  184SOPE  H12R21075   6.357   1.597   7.704 -0.4758  0.0762  0.1790
  184SOPE  H12S21076   6.360   1.452   7.804  0.1650 -0.5435 -0.7577
  184SOPE  C21321077   6.164   1.544   7.786 -0.6568 -0.5713  0.8297
  184SOPE  H13R21078   6.118   1.447   7.818 -1.7997 -0.1951  0.3817
  184SOPE  H13S21079   6.100   1.601   7.716 -0.9822  1.9269  2.9990
  184SOPE  C21421080   6.194   1.629   7.909 -0.1678 -0.8389 -0.0355
  184SOPE  H14R21081   6.215   1.729   7.865 -1.2290 -0.2932  0.6526
  184SOPE  H14S21082   6.285   1.587   7.956  0.8988 -0.8722 -2.0271
  184SOPE  C21521083   6.081   1.634   8.011 -0.1586 -0.1752  0.2914
  184SOPE  H15R21084   6.078   1.537   8.065  0.3170 -0.8748 -0.8841
  184SOPE  H15S21085   5.981   1.647   7.964 -0.0435 -2.4056 -0.7121
  184SOPE  C21621086   6.097   1.744   8.118 -0.0243  0.4810  0.0537
  184SOPE  H16R21087   6.002   1.761   8.173  0.4840 -1.5520  1.6915
  184SOPE  H16S21088   6.125   1.839   8.068  0.7511  0.1397 -0.1828
  184SOPE  C21721089   6.200   1.700   8.228 -0.1139 -0.0872 -0.1324
  184SOPE  H17R21090   6.297   1.673   8.182  0.1470  1.2418 -0.4079
  184SOPE  H17S21091   6.165   1.608   8.279 -0.4563  0.0197 -0.1687
  184SOPE  C21821092   6.222   1.806   8.336  0.1636  0.8013 -0.3911
  184SOPE  H18R21093   6.301   1.789   8.413  0.8483  2.1929 -0.7573
  184SOPE  H18S21094   6.133   1.823   8.400  0.6282  1.3792  0.1174
  184SOPE  H18T21095   6.238   1.905   8.289 -1.3162  1.3288  0.1604
  184SOPE   C3321096   5.746   1.416   7.060 -0.5357  0.7569 -0.4112
  184SOPE   H3X21097   5.856   1.403   7.064 -0.6535 -0.0649  2.5937
  184SOPE   H3Y21098   5.699   1.323   7.099 -1.1487  0.6288 -1.4044
  184SOPE   C3421099   5.711   1.521   7.166 -0.4422  0.6927  0.0941
  184SOPE   H4X21100   5.600   1.526   7.165 -0.4661  1.9071  2.6105
  184SOPE   H4Y21101   5.750   1.620   7.136  1.5382  0.6340  2.2308
  184SOPE   C3521102   5.761   1.477   7.297 -0.0075  0.2383 -0.3952
  184SOPE   H5X21103   5.870   1.486   7.313 -0.1442 -0.3732  0.9586
  184SOPE   H5Y21104   5.729   1.373   7.319 -1.5672  0.7533 -0.1025
  184SOPE   C3621105   5.695   1.568   7.408  0.4142 -0.2133  0.3970
  184SOPE   H6X21106   5.590   1.532   7.417  1.1450 -2.1007  2.3451
  184SOPE   H6Y21107   5.691   1.676   7.382  0.4260 -0.2335  0.3080
  184SOPE   C3721108   5.764   1.558   7.552 -0.2037  0.3452  0.3423
  184SOPE   H7X21109   5.707   1.615   7.629 -3.0988 -0.0294 -1.3823
  184SOPE   H7Y21110   5.862   1.611   7.557 -1.4264  2.7179  0.9669
  184SOPE   C3821111   5.781   1.414   7.607  0.0982 -0.2312 -0.0495
  184SOPE   H8X21112   5.858   1.364   7.545  2.2425  1.6005  0.9924
  184SOPE   H8Y21113   5.680   1.368   7.608  1.0581 -2.4920  1.2956
  184SOPE   C3921114   5.815   1.407   7.760 -0.6643  0.0819  0.8065
  184SOPE   H9X21115   5.744   1.470   7.818 -1.5846 -0.2167  0.0300
  184SOPE   H9Y21116   5.920   1.439   7.777 -1.3322  3.2519 -0.3957
  184SOPE  C31021117   5.804   1.266   7.815 -0.5208  0.2223 -0.9532
  184SOPE  H10X21118   5.860   1.197   7.748 -0.7983 -1.5577  0.5787
  184SOPE  H10Y21119   5.698   1.232   7.808 -0.4874 -0.7190  1.8564
  184SOPE  C31121120   5.864   1.259   7.963  0.0341 -0.6430 -0.0269
  184SOPE  H11X21121   5.970   1.289   7.957  0.2752 -1.6834 -1.3669
  184SOPE  H11Y21122   5.855   1.153   7.993 -1.7274 -1.2698 -2.4485
  184SOPE  C31221123   5.796   1.362   8.058 -0.8446  0.2888 -0.5369
  184SOPE  H12X21124   5.688   1.371   8.034 -0.8140  0.8139 -0.4799
  184SOPE  H12Y21125   5.852   1.456   8.037  1.2867 -1.0957 -1.4381
  184SOPE  C31321126   5.798   1.321   8.209  0.3030 -0.5265  0.0906
  184SOPE  H13X21127   5.770   1.214   8.216  2.1779 -1.0386  0.3011
  184SOPE  H13Y21128   5.714   1.383   8.247  0.1066  0.5232 -1.8793
  184SOPE  C31421129   5.929   1.360   8.281  0.2735 -0.8490 -0.2708
  184SOPE  H14X21130   5.948   1.469   8.275  1.2790 -0.8074  2.3637
  184SOPE  H14Y21131   6.015   1.323   8.221  0.0439 -0.5227 -0.7990
  184SOPE  C31521132   5.933   1.316   8.428  0.6232  0.0611  0.2013
  184SOPE  H15X21133   5.918   1.206   8.441 -0.0945 -0.1962 -2.3772
  184SOPE  H15Y21134   5.853   1.370   8.483  2.0564  1.0098  1.4501
  184SOPE  C31621135   6.060   1.363   8.491 -0.1917  0.4633  0.0608
  184SOPE  H16X21136   6.039   1.470   8.514 -4.1049 -0.0120 -0.7111
  184SOPE  H16Y21137   6.148   1.352   8.424 -0.0979  1.6469 -0.0426
  184SOPE  C31721138   6.100   1.293   8.625  0.4823 -0.1380  0.1905
  184SOPE  H17X21139   6.203   1.332   8.636  1.3878 -1.5163 -2.4504
  184SOPE  H17Y21140   6.119   1.184   8.614 -0.9506 -0.7169  2.6988
  184SOPE  C31821141   6.010   1.335   8.736 -0.2797 -0.2013  0.7143
  184SOPE  H18X21142   5.974   1.439   8.723  0.6264  0.0173 -0.1706
  184SOPE  H18Y21143   6.063   1.318   8.832  1.0997  2.4318  0.5071
  184SOPE  H18Z21144   5.912   1.285   8.722 -0.9346  1.4725 -1.1768
  185SAPI   C1221145   2.894   3.230  11.354 -0.0710 -0.0038  0.1920
  185SAPI    H221146   2.839   3.205  11.261  0.6855  2.5093 -1.0053
  185SAPI    O221147   2.804   3.317  11.426  0.1325 -0.0119  0.6236
  185SAPI   HO221148   2.736   3.344  11.364 -0.2803 -1.7839  0.2425
  185SAPI   C1321149   2.933   3.107  11.435 -0.0718  0.2778  0.9429
  185SAPI    H321150   2.993   3.049  11.362 -1.2038  1.5888 -1.1257
  185SAPI    O321151   2.819   3.024  11.457 -0.2921  0.0593  0.0862
  185SAPI   HO321152   2.784   3.039  11.545 -0.8905 -1.2598  0.0979
  185SAPI   C1421153   3.013   3.154  11.555 -0.1009  0.7178 -0.4057
  185SAPI    H421154   2.960   3.226  11.621  1.2379  0.0011  1.5654
  185SAPI    O421155   3.044   3.041  11.641  0.7097 -0.1888  1.0782
  185SAPI   HO421156   3.096   3.074  11.714 -0.5613  0.4042  1.7385
  185SAPI   C1521157   3.139   3.227  11.508  0.4363  0.2432 -0.0822
  185SAPI    H521158   3.191   3.148  11.450 -1.2379 -0.5241 -0.6018
  185SAPI    O521159   3.208   3.278  11.621 -0.0259  0.0640  0.6818
  185SAPI   HO521160   3.293   3.305  11.587 -0.6049  2.2898  0.8292
  185SAPI   C1621161   3.110   3.340  11.408  0.3181 -0.0502  0.6351
  185SAPI    H621162   3.057   3.421  11.463  0.4852 -0.1457  0.9365
  185SAPI    O621163   3.226   3.396  11.348  0.2407 -0.0199 -0.1609
  185SAPI   HO621164   3.245   3.343  11.270  1.1801 -0.4631  0.3491
  185SAPI   C1121165   3.018   3.292  11.294  0.4930 -0.4678 -0.2969
  185SAPI    H121166   3.074   3.208  11.248  0.5001  0.0212 -1.2116
  185SAPI     P21167   3.068   3.375  11.038 -0.3753  0.0064 -0.4687
  185SAPI   O1321168   3.210   3.347  11.070 -0.2196  0.0184  0.0094
  185SAPI   O1421169   3.033   3.493  10.958 -0.2599  0.1526 -0.5752
  185SAPI   O1221170   2.991   3.394  11.186 -0.4087  0.2871 -0.8056
  185SAPI   O1121171   2.988   3.252  10.977  0.3912 -0.3152 -0.0484
  185SAPI    C121172   3.015   3.114  11.006 -0.2126  0.1744 -0.0466
  185SAPI    HA21173   3.114   3.102  11.055  0.3434  0.9203 -0.9572
  185SAPI    HB21174   2.936   3.083  11.077  0.8702 -2.1006  0.2581
  185SAPI    C221175   3.007   3.015  10.887  0.5501 -0.1712  0.5117
  185SAPI    HS21176   3.017   2.913  10.928 -0.5016 -0.0543  1.1042
  185SAPI   O2121177   3.095   3.048  10.780 -0.1336  0.5649  0.0230
  185SAPI   C2121178   3.224   3.027  10.811 -0.0609  0.4854  0.2877
  185SAPI   O2221179   3.266   2.967  10.911  0.7656 -0.0651  0.5822
  185SAPI   C2221180   3.314   3.095  10.703  0.5698  0.0510  0.1345
  185SAPI   H2R21181   3.364   3.182  10.751 -0.5330  0.9461 -0.2932
  185SAPI   H2S21182   3.388   3.016  10.675 -1.8187 -2.2152 -0.2232
  185SAPI    C321183   2.865   3.040  10.819 -0.0743 -0.7699 -0.7315
  185SAPI    HX21184   2.865   3.146  10.788 -0.0279 -0.0876  1.4469
  185SAPI    HY21185   2.790   3.027  10.899  1.1775 -0.5363  0.5235
  185SAPI   O3121186   2.836   2.941  10.721 -0.1542  0.5142 -0.2765
  185SAPI   C3121187   2.789   2.986  10.605 -0.2771  1.0058  0.0851
  185SAPI   O3221188   2.758   3.101  10.585  0.2368 -0.4313  0.2096
  185SAPI   C3221189   2.784   2.872  10.507  0.5393  0.3791 -0.3065
  185SAPI   H2X21190   2.750   2.786  10.568  0.3382  0.6776  0.0073
  185SAPI   H2Y21191   2.890   2.855  10.480  0.0262 -1.7874 -1.1390
  185SAPI   C2321192   3.239   3.144  10.575  0.2069  0.4725 -0.2039
  185SAPI   H3R21193   3.301   3.193  10.498  2.2332 -3.8692 -1.6792
  185SAPI   H3S21194   3.165   3.220  10.607  0.8506  1.4906 -1.0786
  185SAPI   C2421195   3.181   3.028  10.494  0.1356  0.4132  0.4758
  185SAPI   H4R21196   3.108   2.980  10.563 -0.8873 -0.0744 -0.9187
  185SAPI   H4S21197   3.259   2.956  10.461 -0.9133 -0.4607 -0.1855
  185SAPI   C2521198   3.109   3.085  10.374  0.3542  0.5172  0.2087
  185SAPI   H5R21199   3.050   3.177  10.390 -1.2444 -0.5151  0.4887
  185SAPI   C2621200   3.119   3.034  10.247  0.5939  0.1364  0.0731
  185SAPI   H6R21201   3.057   3.086  10.173  1.8906 -2.2430 -2.9045
  185SAPI   C2721202   3.197   2.917  10.189  0.4531  0.1978 -0.8241
  185SAPI   H7R21203   3.132   2.894  10.102 -0.4633  1.0245 -0.3838
  185SAPI   H7S21204   3.181   2.832  10.258  1.7716 -0.5955 -1.4751
  185SAPI   C2821205   3.341   2.937  10.147 -0.4455 -0.0340  0.5862
  185SAPI   H8R21206   3.421   2.921  10.220  0.5455  0.8714 -0.2549
  185SAPI   C2921207   3.379   2.954  10.020  0.0296 -0.5257  0.4798
  185SAPI   H9R21208   3.486   2.971  10.002 -0.5589  1.6498 -1.4750
  185SAPI  C21021209   3.282   2.960   9.908 -0.4455  0.6719 -0.1184
  185SAPI  H10R21210   3.335   3.016   9.827  1.5625  1.7752  1.8544
  185SAPI  H10S21211   3.193   3.019   9.940  0.4669  0.4358  3.1591
  185SAPI  C21121212   3.229   2.826   9.857  0.2727 -0.2517 -0.0216
  185SAPI  H11R21213   3.211   2.747   9.932  0.1554 -0.6999 -0.5121
  185SAPI  C21221214   3.198   2.797   9.728 -0.9551 -0.1529  1.0054
  185SAPI  H12R21215   3.167   2.694   9.704  0.3885  0.1582 -2.7540
  185SAPI  C21321216   3.218   2.886   9.607  0.1641 -0.1196  0.4067
  185SAPI  H13R21217   3.287   2.969   9.634  1.6661 -1.1220 -0.1885
  185SAPI  H13S21218   3.121   2.938   9.591  0.1660 -0.6677 -1.5792
  185SAPI  C21421219   3.267   2.825   9.473 -0.3091 -0.0308 -0.6341
  185SAPI  H14R21220   3.188   2.822   9.397 -0.7116  0.1536 -0.2255
  185SAPI  C21521221   3.385   2.765   9.443 -0.4030 -0.2966  0.4168
  185SAPI  H15R21222   3.396   2.703   9.353 -2.9680 -0.1958 -0.0258
  185SAPI  C21621223   3.508   2.761   9.537 -0.3289  0.5160  0.2103
  185SAPI  H16R21224   3.573   2.671   9.532 -0.8604  0.2051 -2.3266
  185SAPI  H16S21225   3.480   2.780   9.643 -2.7106  2.0720 -0.5981
  185SAPI  C21721226   3.583   2.885   9.486  0.3070 -0.0724  0.3451
  185SAPI  H17R21227   3.659   2.912   9.563 -1.1474  1.6815  1.2190
  185SAPI  H17S21228   3.515   2.972   9.475 -1.0541 -1.1616 -0.0768
  185SAPI  C21821229   3.678   2.864   9.364 -0.2985 -0.2735  0.1238
  185SAPI  H18R21230   3.618   2.862   9.271  0.2032 -0.0678 -0.2083
  185SAPI  H18S21231   3.737   2.772   9.381 -0.3053 -0.3857 -0.4552
  185SAPI  C21921232   3.793   2.964   9.353 -0.3721  0.1869  0.3252
  185SAPI  H19R21233   3.869   2.957   9.434 -0.1459 -0.6320  0.0538
  185SAPI  H19S21234   3.745   3.065   9.350 -3.0764 -0.9626  1.8035
  185SAPI  C22021235   3.879   2.952   9.222  0.0642 -0.4608 -0.2991
  185SAPI  H20R21236   3.919   2.849   9.215 -2.0797 -1.3797  0.1197
  185SAPI  H20S21237   3.974   3.010   9.222  0.0441 -0.3258 -2.9243
  185SAPI  H20T21238   3.824   2.978   9.129  2.4150 -0.9176 -1.9321
  185SAPI   C3321239   2.695   2.879  10.382 -0.1139  0.2177 -0.5450
  185SAPI   H3X21240   2.603   2.933  10.412 -0.4076 -0.7431  0.3592
  185SAPI   H3Y21241   2.654   2.781  10.349 -0.4415 -0.3706  1.4751
  185SAPI   C3421242   2.766   2.949  10.267  0.4799 -0.3315  0.3245
  185SAPI   H4X21243   2.870   2.910  10.263  1.9381  3.1169  0.9795
  185SAPI   H4Y21244   2.772   3.058  10.288  2.2583 -0.3179 -0.1648
  185SAPI   C3521245   2.688   2.933  10.131 -0.9878 -0.6077 -0.1476
  185SAPI   H5X21246   2.582   2.966  10.129 -0.9018 -0.2052  1.1393
  185SAPI   H5Y21247   2.693   2.826  10.100  1.4725  0.7576 -5.8085
  185SAPI   C3621248   2.762   3.006  10.020  0.3277 -0.3972 -0.7654
  185SAPI   H6X21249   2.871   2.988  10.031 -0.1288 -3.6429 -0.3957
  185SAPI   H6Y21250   2.733   3.112  10.029 -0.6496 -0.7249  0.0999
  185SAPI   C3721251   2.723   2.947   9.881  0.5744  1.2670 -0.6956
  185SAPI   H7X21252   2.615   2.956   9.857  0.5522 -1.3230 -1.9954
  185SAPI   H7Y21253   2.748   2.839   9.871  3.2411  1.7345  0.0880
  185SAPI   C3821254   2.801   3.009   9.761 -0.7438 -0.4297  0.8145
  185SAPI   H8X21255   2.908   2.983   9.770 -0.5455 -1.0635 -2.3748
  185SAPI   H8Y21256   2.797   3.120   9.753  0.1394 -0.5483 -4.0177
  185SAPI   C3921257   2.745   2.969   9.623 -0.5591  0.3608  0.2844
  185SAPI   H9X21258   2.658   3.034   9.598 -0.3179 -0.2442 -2.5301
  185SAPI   H9Y21259   2.704   2.868   9.646  0.4378  0.0907  0.9555
  185SAPI  C31021260   2.848   2.961   9.514  0.1202 -0.0006 -0.0744
  185SAPI  H10X21261   2.933   2.900   9.552  0.2335  0.2223  0.0312
  185SAPI  H10Y21262   2.899   3.052   9.476  1.1431 -1.3466 -2.1090
  185SAPI  C31121263   2.796   2.892   9.387  0.3808 -0.6591  0.0527
  185SAPI  H11X21264   2.709   2.950   9.351  0.4443  0.0638  1.0302
  185SAPI  H11Y21265   2.765   2.789   9.415 -1.2126 -0.1152  0.3823
  185SAPI  C31221266   2.894   2.903   9.268 -0.0143  0.2745  0.1406
  185SAPI  H12X21267   2.966   2.820   9.283 -0.6482 -0.0318  1.6064
  185SAPI  H12Y21268   2.943   3.003   9.259  0.3529  0.0691 -0.1705
  185SAPI  C31321269   2.819   2.876   9.132 -0.3976 -0.1766  0.1876
  185SAPI  H13X21270   2.891   2.905   9.053 -0.9960  0.0450 -0.2860
  185SAPI  H13Y21271   2.730   2.940   9.113  0.1172  0.1908 -1.1009
  185SAPI  C31421272   2.771   2.734   9.112  0.1425  0.3486  0.0982
  185SAPI  H14X21273   2.709   2.693   9.195  1.2479  2.3837  2.0159
  185SAPI  H14Y21274   2.866   2.677   9.104 -0.9953 -1.4462 -1.4952
  185SAPI  C31521275   2.705   2.717   8.982  0.2162  0.0123 -0.3773
  185SAPI  H15X21276   2.767   2.769   8.907 -2.1428 -1.9891 -4.0334
  185SAPI  H15Y21277   2.600   2.754   8.972  0.1363 -0.5892 -2.0467
  185SAPI  C31621278   2.700   2.571   8.937 -0.0887 -0.1570 -0.1529
  185SAPI  H16X21279   2.617   2.522   8.992 -0.5655  2.3095  1.5155
  185SAPI  H16Y21280   2.793   2.525   8.977 -1.9655 -2.1424  2.1935
  185SAPI  C31721281   2.686   2.544   8.783  0.2113 -0.5633  0.0498
  185SAPI  H17X21282   2.652   2.444   8.748 -1.9797  0.1555  0.0055
  185SAPI  H17Y21283   2.782   2.556   8.729  0.4643  2.5197  1.0231
  185SAPI  C31821284   2.589   2.636   8.715  0.5157 -0.5839  0.3089
  185SAPI  H18X21285   2.590   2.631   8.604 -1.3076 -0.5914  0.2720
  185SAPI  H18Y21286   2.622   2.740   8.737 -1.3843 -0.1126  1.0563
  185SAPI  H18Z21287   2.481   2.623   8.736  0.3441  0.1577 -0.0859
  186SAPI   C1221288   3.514   2.108  11.050 -0.2303 -0.1915  0.5757
  186SAPI    H221289   3.487   2.070  10.949  1.4129  2.3325 -0.9371
  186SAPI    O221290   3.619   2.032  11.108  0.3411  0.7340 -0.2197
  186SAPI   HO221291   3.700   2.049  11.058 -0.2361  1.6417 -0.8833
  186SAPI   C1321292   3.544   2.260  11.029  0.0373  0.5208 -0.4210
  186SAPI    H321293   3.456   2.298  10.972 -0.1617 -0.3241 -0.7046
  186SAPI    O321294   3.651   2.286  10.948 -0.2813  0.3216  0.4301
  186SAPI   HO321295   3.611   2.330  10.873 -2.0373 -0.5538  0.7983
  186SAPI   C1421296   3.558   2.330  11.163  0.0668 -0.1980  0.3878
  186SAPI    H421297   3.639   2.293  11.229 -0.0896  1.1998  1.4055
  186SAPI    O421298   3.579   2.466  11.145  0.0824 -0.8319  0.1063
  186SAPI   HO421299   3.634   2.492  11.071  2.2693  1.0313  2.2117
  186SAPI   C1521300   3.428   2.300  11.242 -0.3065  0.3978  0.5424
  186SAPI    H521301   3.342   2.341  11.185  1.4361  0.8872 -1.8991
  186SAPI    O521302   3.434   2.356  11.375  0.5326  0.4447 -0.0688
  186SAPI   HO521303   3.507   2.309  11.416  0.7646  1.7089  1.0460
  186SAPI   C1621304   3.398   2.148  11.261 -0.0298 -0.1808  0.7722
  186SAPI    H621305   3.478   2.095  11.317  0.0003  0.7576  1.6377
  186SAPI    O621306   3.275   2.129  11.329  0.0361  0.4967  0.3380
  186SAPI   HO621307   3.210   2.083  11.276 -2.5533  1.6852  2.2632
  186SAPI   C1121308   3.387   2.085  11.129  0.5921  0.3630  0.5666
  186SAPI    H121309   3.312   2.136  11.064  1.9164 -0.0269 -1.3565
  186SAPI     P21310   3.204   1.888  11.119 -0.1596 -0.4483 -0.2412
  186SAPI   O1321311   3.100   1.974  11.176  0.2845  0.3424  0.1042
  186SAPI   O1421312   3.196   1.747  11.159 -0.2129  0.3167 -0.5886
  186SAPI   O1221313   3.352   1.943  11.147 -0.5773  0.2173  0.4067
  186SAPI   O1121314   3.202   1.898  10.959 -0.1844  0.1699 -0.2254
  186SAPI    C121315   3.305   1.847  10.874 -0.5212  0.1572  0.0559
  186SAPI    HA21316   3.391   1.916  10.881  0.7375 -1.5178  2.7097
  186SAPI    HB21317   3.348   1.754  10.918  0.8617  0.5333 -0.4534
  186SAPI    C221318   3.271   1.833  10.721  0.6722  0.3123  0.0483
  186SAPI    HS21319   3.359   1.788  10.669  0.2304 -0.0642 -0.3849
  186SAPI   O2121320   3.229   1.963  10.662  0.0223 -0.0558 -0.2097
  186SAPI   C2121321   3.322   2.045  10.618 -0.2938  0.4882 -0.6334
  186SAPI   O2221322   3.442   2.025  10.630  0.1664  0.6374 -0.3211
  186SAPI   C2221323   3.254   2.175  10.574 -0.2616  0.2391  0.3238
  186SAPI   H2R21324   3.147   2.168  10.601  0.1615 -0.0323  2.0722
  186SAPI   H2S21325   3.303   2.245  10.646  1.5894 -2.0755  1.4532
  186SAPI    C321326   3.149   1.729  10.708 -0.8322 -0.4758  0.1563
  186SAPI    HX21327   3.060   1.771  10.759 -0.9405 -0.5725  0.0466
  186SAPI    HY21328   3.180   1.636  10.762 -1.6248 -1.3074 -0.7792
  186SAPI   O3121329   3.132   1.693  10.567 -0.0564  0.5033  0.4420
  186SAPI   C3121330   3.021   1.753  10.510 -1.3152 -0.9786 -0.4583
  186SAPI   O3221331   2.942   1.822  10.569 -0.4897  0.0237  0.5046
  186SAPI   C3221332   3.018   1.721  10.363 -0.6152 -0.5374 -0.7322
  186SAPI   H2X21333   3.124   1.707  10.335 -0.1937 -0.4795  0.7563
  186SAPI   H2Y21334   2.981   1.810  10.308 -0.1991 -1.8053 -3.2502
  186SAPI   C2321335   3.270   2.206  10.422  0.7234  0.3645  0.3493
  186SAPI   H3R21336   3.377   2.219  10.394  0.8589 -2.4272 -0.7657
  186SAPI   H3S21337   3.229   2.306  10.399  0.4367 -0.1377 -1.4435
  186SAPI   C2421338   3.210   2.098  10.327  0.4505  0.2011  0.0633
  186SAPI   H4R21339   3.263   2.002  10.343  0.4544  0.2029  0.0612
  186SAPI   H4S21340   3.236   2.118  10.221 -3.1066 -0.2639 -1.0198
  186SAPI   C2521341   3.060   2.077  10.359 -1.2363 -0.1078  0.2658
  186SAPI   H5R21342   3.037   2.062  10.466 -1.1264 -1.3361  0.1274
  186SAPI   C2621343   2.969   2.084  10.266 -0.1658  0.1587 -0.3392
  186SAPI   H6R21344   2.867   2.086  10.307 -0.0639 -0.1278 -0.0678
  186SAPI   C2721345   2.989   2.116  10.120 -0.1355  0.7190  0.0444
  186SAPI   H7R21346   3.049   2.038  10.069  0.4749  1.9377 -1.1688
  186SAPI   H7S21347   3.044   2.212  10.103  0.4277  0.4899  0.5626
  186SAPI   C2821348   2.841   2.122  10.064 -0.7648  0.1438  0.2896
  186SAPI   H8R21349   2.779   2.204  10.104 -2.2592 -0.1393 -1.3491
  186SAPI   C2921350   2.782   2.029   9.981  0.1389 -0.1513  0.5997
  186SAPI   H9R21351   2.676   2.035   9.952  0.1360 -1.8027  0.1454
  186SAPI  C21021352   2.858   1.912   9.922  0.1902  0.5251 -0.7937
  186SAPI  H10R21353   2.781   1.837   9.895  0.4499  0.4957 -1.4716
  186SAPI  H10S21354   2.933   1.862   9.987  1.9561  0.0348 -3.0515
  186SAPI  C21121355   2.940   1.953   9.802 -0.4293 -0.2744  0.1198
  186SAPI  H11R21356   3.045   1.972   9.825 -0.7823  0.6100  1.0276
  186SAPI  C21221357   2.907   1.959   9.670 -0.2991 -0.1085 -0.5648
  186SAPI  H12R21358   2.980   1.996   9.596 -1.6280  3.2059 -0.3834
  186SAPI  C21321359   2.765   1.933   9.618 -0.0667 -0.2405 -0.4640
  186SAPI  H13R21360   2.689   1.900   9.692 -0.1922 -0.3913 -0.6608
  186SAPI  H13S21361   2.762   1.851   9.544 -2.6276  0.7721 -1.6281
  186SAPI  C21421362   2.699   2.042   9.539  0.1405  0.0770 -0.4895
  186SAPI  H14R21363   2.618   2.094   9.591  0.6990  2.3004 -1.7108
  186SAPI  C21521364   2.736   2.074   9.412 -0.5421 -0.2925  0.0077
  186SAPI  H15R21365   2.680   2.150   9.356  1.7097 -0.6824 -2.9929
  186SAPI  C21621366   2.848   2.014   9.335  0.0395  0.5572 -0.6101
  186SAPI  H16R21367   2.833   1.905   9.324 -0.5328  0.4443  0.9655
  186SAPI  H16S21368   2.944   2.044   9.383 -0.6851  2.5749 -0.3117
  186SAPI  C21721369   2.839   2.081   9.193  0.0496  0.2388  0.3073
  186SAPI  H17R21370   2.859   2.190   9.185 -1.3855  0.4182 -3.6509
  186SAPI  H17S21371   2.734   2.074   9.155  0.2945 -0.1612 -0.3043
  186SAPI  C21821372   2.935   2.030   9.087  0.8383 -0.1767 -0.6378
  186SAPI  H18R21373   2.947   1.921   9.108  1.4969  0.0978  0.5536
  186SAPI  H18S21374   3.040   2.067   9.092  0.2206  1.5209  1.3010
  186SAPI  C21921375   2.885   2.045   8.946 -0.3420 -0.2643  0.1317
  186SAPI  H19R21376   2.777   2.020   8.939  0.0670 -1.5313 -4.1547
  186SAPI  H19S21377   2.932   1.971   8.878 -1.9459 -1.8677  0.6756
  186SAPI  C22021378   2.913   2.184   8.889 -0.5389 -0.9966  0.2196
  186SAPI  H20R21379   2.870   2.265   8.951  2.4823 -0.7015  2.1050
  186SAPI  H20S21380   2.871   2.204   8.788 -1.3761  0.5548  0.8440
  186SAPI  H20T21381   3.023   2.198   8.889 -0.5998 -0.3993  1.1485
  186SAPI   C3321382   2.940   1.597  10.317  0.2863  0.4117  0.1897
  186SAPI   H3X21383   2.838   1.590  10.360 -0.3701 -0.0478 -1.3660
  186SAPI   H3Y21384   2.981   1.494  10.328 -1.9077 -1.0925 -3.7008
  186SAPI   C3421385   2.909   1.605  10.163 -0.0448 -0.6415  0.0975
  186SAPI   H4X21386   2.857   1.703  10.155  1.2872  0.0400 -0.3956
  186SAPI   H4Y21387   2.844   1.524  10.123  0.5478 -1.5010  0.8122
  186SAPI   C3521388   3.033   1.621  10.071 -0.5357  0.8225  0.4528
  186SAPI   H5X21389   3.116   1.552  10.098  0.2311  0.8212 -1.7665
  186SAPI   H5Y21390   3.068   1.725  10.078 -0.3462  0.9133 -1.4408
  186SAPI   C3621391   3.011   1.606   9.921 -0.7971 -0.0654  0.1466
  186SAPI   H6X21392   3.101   1.624   9.859 -1.2679  1.4992 -0.1139
  186SAPI   H6Y21393   2.939   1.685   9.891 -2.5242 -1.0573  1.4976
  186SAPI   C3721394   2.947   1.476   9.869 -0.5442 -0.7920  0.2894
  186SAPI   H7X21395   2.905   1.413   9.950 -0.7614  0.0178  0.8099
  186SAPI   H7Y21396   3.027   1.413   9.824 -0.7324 -0.2397 -0.8786
  186SAPI   C3821397   2.835   1.497   9.759  0.4568 -0.3769  0.6623
  186SAPI   H8X21398   2.745   1.551   9.796  1.0960  1.5041 -0.3520
  186SAPI   H8Y21399   2.792   1.399   9.731 -0.4056  0.4378 -1.0624
  186SAPI   C3921400   2.884   1.581   9.633 -1.2814 -0.2015  0.5234
  186SAPI   H9X21401   2.930   1.678   9.661  3.7732 -1.4719 -2.1224
  186SAPI   H9Y21402   2.794   1.598   9.571 -0.6611  0.6540 -0.1707
  186SAPI  C31021403   2.988   1.513   9.550  0.1647 -0.3653 -0.1260
  186SAPI  H10X21404   2.950   1.416   9.511 -1.4460 -0.6556  1.9605
  186SAPI  H10Y21405   3.078   1.496   9.614 -0.9425 -0.2236  1.5415
  186SAPI  C31121406   3.047   1.592   9.439  1.0285 -1.3668 -0.1728
  186SAPI  H11X21407   3.145   1.561   9.397  0.5483  0.1327 -2.6012
  186SAPI  H11Y21408   3.077   1.692   9.478  0.4535 -1.2650  0.0210
  186SAPI  C31221409   2.949   1.595   9.315  0.2002  0.8165 -0.5715
  186SAPI  H12X21410   2.856   1.654   9.332  0.0072  0.3780 -0.0946
  186SAPI  H12Y21411   2.919   1.490   9.300  0.8214  0.5866 -0.2656
  186SAPI  C31321412   3.021   1.660   9.201 -1.2488 -0.0347 -0.5202
  186SAPI  H13X21413   3.132   1.650   9.201 -0.9097  2.4395  2.4940
  186SAPI  H13Y21414   3.007   1.769   9.217  0.7534  0.2566 -0.5014
  186SAPI  C31421415   2.955   1.613   9.067 -0.0512 -0.3167 -0.2896
  186SAPI  H14X21416   2.849   1.644   9.071 -0.1974 -0.8990  2.2614
  186SAPI  H14Y21417   2.951   1.502   9.062 -0.2509 -0.5683  3.1261
  186SAPI  C31521418   3.029   1.671   8.955 -0.1741  0.7958 -0.4792
  186SAPI  H15X21419   3.137   1.646   8.950 -0.1188  0.4085  1.6004
  186SAPI  H15Y21420   3.037   1.780   8.972  1.0876  0.4160  1.7171
  186SAPI  C31621421   2.969   1.624   8.816 -1.1634 -0.4799 -0.0676
  186SAPI  H16X21422   2.963   1.721   8.762  0.3931 -0.2608  0.1219
  186SAPI  H16Y21423   2.867   1.583   8.834 -1.0725 -0.1045  1.4412
  186SAPI  C31721424   3.059   1.526   8.746  0.1881  0.3243  0.7935
  186SAPI  H17X21425   3.081   1.437   8.809  0.9077  1.4834  2.2591
  186SAPI  H17Y21426   3.158   1.573   8.728 -0.0906  1.3664  1.8166
  186SAPI  C31821427   2.996   1.479   8.619  0.3019 -0.0157  0.4881
  186SAPI  H18X21428   3.054   1.391   8.586  1.4660  1.1528 -0.7269
  186SAPI  H18Y21429   3.018   1.553   8.539  1.4048  0.1855  0.9543
  186SAPI  H18Z21430   2.887   1.459   8.627  0.4304 -2.0650 -1.8819
  187SAPI   C1221431   5.967   3.936   6.282  0.4497 -0.2126 -0.0541
  187SAPI    H221432   6.063   3.882   6.265  0.6555  0.7590 -2.3976
  187SAPI    O221433   5.987   4.069   6.230  0.5270  0.0237 -0.4476
  187SAPI   HO221434   6.077   4.088   6.258  0.8550 -1.5285 -0.3603
  187SAPI   C1321435   5.863   3.853   6.203  0.0348 -0.1520 -0.1485
  187SAPI    H321436   5.850   3.756   6.257  0.5104  0.0983  0.4326
  187SAPI    O321437   5.900   3.829   6.065  0.1036 -0.1244 -0.3536
  187SAPI   HO321438   5.872   3.907   6.016 -0.5580  0.4191  0.8370
  187SAPI   C1421439   5.726   3.916   6.234  0.0674  0.5283  0.1867
  187SAPI    H421440   5.725   4.006   6.169 -0.7096 -0.3006 -0.9847
  187SAPI    O421441   5.618   3.836   6.174 -0.1950 -0.0997  0.3778
  187SAPI   HO421442   5.599   3.766   6.238 -0.4460  1.9981  2.7531
  187SAPI   C1521443   5.691   3.939   6.384  0.0641 -0.1351  0.2298
  187SAPI    H521444   5.678   3.844   6.440  3.1893 -0.5786  0.3558
  187SAPI    O521445   5.566   4.006   6.402 -0.3876 -0.1355 -0.0721
  187SAPI   HO521446   5.533   3.991   6.491  2.7688 -0.9949  1.0995
  187SAPI   C1621447   5.796   4.015   6.459 -0.1407  0.9620  0.2481
  187SAPI    H621448   5.802   4.117   6.413  4.9947  0.0953 -1.7688
  187SAPI    O621449   5.779   4.025   6.603  0.4444 -0.3466 -0.4052
  187SAPI   HO621450   5.869   4.031   6.636  0.2829  2.4633 -0.2842
  187SAPI   C1121451   5.928   3.940   6.432  0.1513  0.2852  0.6322
  187SAPI    H121452   5.915   3.833   6.460  1.9473 -0.7822 -2.2517
  187SAPI     P21453   6.150   3.901   6.573 -0.0316  0.0075  0.1643
  187SAPI   O1321454   6.284   3.971   6.580 -0.1348  0.6387  0.2814
  187SAPI   O1421455   6.137   3.767   6.510 -0.4152  0.5135 -0.2561
  187SAPI   O1221456   6.030   3.993   6.510 -0.2077 -0.7559  0.3894
  187SAPI   O1121457   6.104   3.888   6.721  0.1642 -0.3384 -0.8960
  187SAPI    C121458   6.009   3.795   6.777 -1.1677 -0.1181  0.0371
  187SAPI    HA21459   5.913   3.797   6.721 -1.4273  3.3080  0.4169
  187SAPI    HB21460   6.057   3.695   6.769  2.4555  1.3031  1.7236
  187SAPI    C221461   5.975   3.812   6.929 -0.5827  0.7143  0.2979
  187SAPI    HS21462   5.890   3.884   6.925 -1.3741 -0.2214 -0.2207
  187SAPI   O2121463   6.081   3.870   7.011  0.3987  0.5737  0.5108
  187SAPI   C2121464   6.204   3.823   6.999 -0.3136  0.4577  0.3418
  187SAPI   O2221465   6.232   3.711   6.965 -0.0005  0.0575 -0.3313
  187SAPI   C2221466   6.302   3.929   7.047 -0.1811 -0.5035 -0.2636
  187SAPI   H2R21467   6.252   4.026   7.070 -0.6200 -1.0266  1.1174
  187SAPI   H2S21468   6.349   3.891   7.140 -2.3115  2.4936  2.2758
  187SAPI    C321469   5.915   3.681   6.976 -0.0134 -0.1948  0.3228
  187SAPI    HX21470   5.993   3.603   6.964 -0.1956 -0.1305 -1.5445
  187SAPI    HY21471   5.836   3.657   6.902 -1.0994  1.5778  0.8444
  187SAPI   O3121472   5.870   3.689   7.112 -0.2412  0.3407  0.3803
  187SAPI   C3121473   5.756   3.740   7.138 -0.8458  0.3222  0.1343
  187SAPI   O3221474   5.690   3.803   7.054  0.4615 -0.3959  0.4392
  187SAPI   C3221475   5.706   3.700   7.278  0.1381 -0.1199 -0.9199
  187SAPI   H2X21476   5.798   3.699   7.340  0.2554  2.5641 -0.9260
  187SAPI   H2Y21477   5.658   3.601   7.268 -2.7476  0.7858  2.1540
  187SAPI   C2321478   6.408   3.942   6.938  0.6473 -0.3025  0.0087
  187SAPI   H3R21479   6.339   3.975   6.857 -1.6914  0.5379  2.2016
  187SAPI   H3S21480   6.450   3.845   6.904 -1.1255 -1.3343  0.6589
  187SAPI   C2421481   6.494   4.062   6.953  0.4691  0.3170  0.0670
  187SAPI   H4R21482   6.429   4.151   6.946 -0.4937 -0.3862 -0.1981
  187SAPI   H4S21483   6.559   4.052   6.863 -0.5586  0.3481 -0.6936
  187SAPI   C2521484   6.572   4.064   7.078  0.0060 -0.1629  0.0161
  187SAPI   H5R21485   6.662   4.001   7.077 -0.6935 -1.1797 -0.0627
  187SAPI   C2621486   6.536   4.131   7.195 -0.9921  0.0552  0.4877
  187SAPI   H6R21487   6.601   4.113   7.282  0.4865  1.1166 -0.3539
  187SAPI   C2721488   6.416   4.220   7.221 -0.7587 -0.0697 -0.0584
  187SAPI   H7R21489   6.342   4.154   7.272 -1.5589  0.6731 -0.2401
  187SAPI   H7S21490   6.375   4.258   7.125 -2.7744  0.5521  0.9961
  187SAPI   C2821491   6.459   4.341   7.298  0.4377 -0.0560  0.3104
  187SAPI   H8R21492   6.514   4.412   7.234 -1.0989  0.7316 -0.1889
  187SAPI   C2921493   6.449   4.366   7.428  0.2967 -0.8281  0.6411
  187SAPI   H9R21494   6.483   4.458   7.476  1.1131 -0.1968 -1.0521
  187SAPI  C21021495   6.387   4.270   7.527  0.1943  0.4530  0.6474
  187SAPI  H10R21496   6.336   4.191   7.467 -1.7210  2.6111 -0.7251
  187SAPI  H10S21497   6.300   4.320   7.573  0.1472  1.1179 -0.1440
  187SAPI  C21121498   6.477   4.206   7.625 -0.3483  0.1611 -0.1076
  187SAPI  H11R21499   6.526   4.112   7.594 -0.4379 -0.9556  2.7279
  187SAPI  C21221500   6.497   4.252   7.752  0.2178  0.0828  0.3640
  187SAPI  H12R21501   6.551   4.187   7.822 -0.7027 -0.9581  0.1360
  187SAPI  C21321502   6.434   4.375   7.815  0.3414  0.3236  0.1993
  187SAPI  H13R21503   6.336   4.344   7.857  1.0205 -0.8630  0.9583
  187SAPI  H13S21504   6.414   4.448   7.734  2.9064  0.3670 -0.5013
  187SAPI  C21421505   6.516   4.446   7.920 -0.1110 -0.4533 -0.0338
  187SAPI  H14R21506   6.599   4.506   7.878 -1.5673 -0.3290 -2.9794
  187SAPI  C21521507   6.489   4.449   8.057  0.3675  0.0776  0.0241
  187SAPI  H15R21508   6.560   4.513   8.111 -1.0741  2.4960 -0.7902
  187SAPI  C21621509   6.378   4.372   8.132  0.3491  0.2660 -0.5269
  187SAPI  H16R21510   6.322   4.302   8.065 -0.8025 -0.1220  0.7832
  187SAPI  H16S21511   6.293   4.427   8.178  2.1200  1.9473  0.9060
  187SAPI  C21721512   6.438   4.281   8.241  0.0784  0.2962 -1.0387
  187SAPI  H17R21513   6.497   4.328   8.321  0.2461 -0.0037 -0.9827
  187SAPI  H17S21514   6.500   4.210   8.180 -1.9386 -0.3150 -2.4939
  187SAPI  C21821515   6.330   4.213   8.324 -0.0636  1.2978 -0.3319
  187SAPI  H18R21516   6.260   4.148   8.267 -0.1636  1.4749 -0.4099
  187SAPI  H18S21517   6.265   4.294   8.365 -0.3521  0.8797  0.0569
  187SAPI  C21921518   6.397   4.137   8.437  0.2496  0.1604  0.6061
  187SAPI  H19R21519   6.440   4.209   8.509  0.4373 -1.1837  1.8760
  187SAPI  H19S21520   6.470   4.068   8.389 -1.3522 -2.3311  1.5674
  187SAPI  C22021521   6.307   4.056   8.523 -0.7295 -0.0012  0.8382
  187SAPI  H20R21522   6.215   4.112   8.551 -1.4348 -1.2180  1.0314
  187SAPI  H20S21523   6.363   4.014   8.609  1.6918  0.0103 -0.6327
  187SAPI  H20T21524   6.276   3.971   8.459  1.0879  0.4604 -0.7599
  187SAPI   C3321525   5.610   3.812   7.323 -0.1485 -0.1400  0.1750
  187SAPI   H3X21526   5.539   3.851   7.247  0.8717  0.3902 -0.5429
  187SAPI   H3Y21527   5.667   3.901   7.357 -0.5728 -0.5436  2.0575
  187SAPI   C3421528   5.526   3.767   7.440 -0.0776 -0.4203  0.1634
  187SAPI   H4X21529   5.481   3.667   7.425 -0.6245 -0.2177  0.4084
  187SAPI   H4Y21530   5.449   3.847   7.448  2.2334  1.9236  0.3734
  187SAPI   C3521531   5.607   3.779   7.569 -0.0373  0.5597 -0.5756
  187SAPI   H5X21532   5.651   3.878   7.591  1.5645 -0.3249  0.3733
  187SAPI   H5Y21533   5.685   3.702   7.587 -1.8564 -0.6449  3.1006
  187SAPI   C3621534   5.506   3.739   7.678 -0.0827 -0.4348  0.1344
  187SAPI   H6X21535   5.481   3.634   7.654 -3.1334  0.4633 -1.0262
  187SAPI   H6Y21536   5.407   3.786   7.663 -0.0626 -0.1791  0.7494
  187SAPI   C3721537   5.562   3.755   7.823  0.2141 -0.5475  0.4545
  187SAPI   H7X21538   5.583   3.860   7.851 -1.1137 -0.7796  2.5885
  187SAPI   H7Y21539   5.659   3.700   7.831 -0.5753 -1.9614  0.5819
  187SAPI   C3821540   5.458   3.710   7.925 -0.0087  0.2362  0.4540
  187SAPI   H8X21541   5.433   3.604   7.900  2.2726 -0.3575  0.3955
  187SAPI   H8Y21542   5.361   3.764   7.929 -0.0950  0.1541 -0.3945
  187SAPI   C3921543   5.498   3.713   8.069  0.2631  0.6099  0.3842
  187SAPI   H9X21544   5.406   3.674   8.118 -1.2884  1.4235 -1.7470
  187SAPI   H9Y21545   5.520   3.815   8.107  0.9755  0.5720  0.1002
  187SAPI  C31021546   5.607   3.607   8.100  0.5526  0.4776 -0.0142
  187SAPI  H10X21547   5.705   3.648   8.067  0.0176 -0.8267 -3.7138
  187SAPI  H10Y21548   5.578   3.517   8.041 -1.6011  0.6200  0.7380
  187SAPI  C31121549   5.594   3.555   8.245  0.4892  0.9559  0.4169
  187SAPI  H11X21550   5.503   3.491   8.248  1.2621 -0.2640 -0.9362
  187SAPI  H11Y21551   5.589   3.641   8.315  0.1590  0.3621  1.1405
  187SAPI  C31221552   5.708   3.470   8.296 -0.0367  0.3963  0.1767
  187SAPI  H12X21553   5.794   3.537   8.321  1.1018 -1.5871  1.8708
  187SAPI  H12Y21554   5.744   3.384   8.235  0.5640 -1.5749  3.1351
  187SAPI  C31321555   5.679   3.412   8.434 -0.2181  0.6399 -0.0770
  187SAPI  H13X21556   5.581   3.361   8.441  1.3466 -2.5763 -0.0244
  187SAPI  H13Y21557   5.678   3.493   8.510 -1.9991  0.8114 -0.2330
  187SAPI  C31421558   5.783   3.298   8.470  0.7983  0.2038  0.9637
  187SAPI  H14X21559   5.834   3.333   8.562 -0.8421  1.0448  1.5893
  187SAPI  H14Y21560   5.861   3.303   8.390 -0.0770  0.7329  0.1237
  187SAPI  C31521561   5.731   3.156   8.486 -0.6237 -0.9672  0.2535
  187SAPI  H15X21562   5.731   3.109   8.385 -0.0616 -1.2981  0.4006
  187SAPI  H15Y21563   5.623   3.159   8.512 -0.5676  0.1725  0.3994
  187SAPI  C31621564   5.794   3.082   8.598 -0.6430 -0.8304 -0.5155
  187SAPI  H16X21565   5.799   3.145   8.689  1.4844 -0.8386 -0.5766
  187SAPI  H16Y21566   5.901   3.079   8.570 -0.0724 -0.9842  1.5527
  187SAPI  C31721567   5.762   2.935   8.629 -0.1698 -0.2911 -0.4422
  187SAPI  H17X21568   5.839   2.881   8.689 -1.6789 -0.9326  1.0112
  187SAPI  H17Y21569   5.751   2.873   8.538 -0.8186 -0.7256 -0.0787
  187SAPI  C31821570   5.636   2.919   8.708  0.0834  0.0588 -0.8402
  187SAPI  H18X21571   5.637   2.985   8.798 -0.0543 -1.1520  0.0716
  187SAPI  H18Y21572   5.611   2.816   8.742 -3.3977  0.8841 -0.4500
  187SAPI  H18Z21573   5.557   2.960   8.641  0.4812  0.2775 -1.1803
  188SAPI   C1221574   0.563   0.191   6.396 -0.4418  0.3623 -0.5583
  188SAPI    H221575   0.560   0.248   6.492 -1.9162  0.4170 -0.6128
  188SAPI    O221576   0.505   0.069   6.426 -0.0975  0.2325 -0.0841
  188SAPI   HO221577   0.461   0.079   6.511 -0.1855  2.0662 -0.3003
  188SAPI   C1321578   0.486   0.268   6.291  0.1685 -0.2822  0.8602
  188SAPI    H321579   0.545   0.361   6.277 -0.3804 -0.1894 -1.1075
  188SAPI    O321580   0.357   0.306   6.334  0.5031 -0.7614 -0.0184
  188SAPI   HO321581   0.329   0.254   6.410  2.5045  1.6803  2.6097
  188SAPI   C1421582   0.483   0.184   6.158 -0.0973  0.0420 -0.6798
  188SAPI    H421583   0.447   0.080   6.173  2.3705 -1.0322 -1.5930
  188SAPI    O421584   0.404   0.240   6.053  0.2629  0.0247 -0.2594
  188SAPI   HO421585   0.328   0.280   6.097  1.2815  3.5606 -1.3716
  188SAPI   C1521586   0.623   0.157   6.112 -0.1213 -0.9262  0.8410
  188SAPI    H521587   0.671   0.255   6.092  2.6426 -2.1794  0.7636
  188SAPI    O521588   0.628   0.070   5.992 -0.0081 -0.2959  0.9853
  188SAPI   HO521589   0.647   0.133   5.922  0.3361  0.9420  2.1468
  188SAPI   C1621590   0.707   0.096   6.218  0.2606  0.6012  0.2819
  188SAPI    H621591   0.668  -0.006   6.235 -3.6264  1.7222 -0.8734
  188SAPI    O621592   0.841   0.068   6.172 -0.2932  0.4612 -0.3234
  188SAPI   HO621593   0.852  -0.027   6.171  1.8858  0.6197  1.5557
  188SAPI   C1121594   0.706   0.169   6.349 -0.1638  0.1830  0.3683
  188SAPI    H121595   0.767   0.260   6.331  0.9463 -0.4087  1.0110
  188SAPI     P21596   0.875   0.135   6.552 -0.2405 -0.0769 -0.1900
  188SAPI   O1321597   0.963   0.241   6.497  0.3274  0.3418  0.2472
  188SAPI   O1421598   0.944   0.011   6.605  0.2911 -0.5968 -0.2622
  188SAPI   O1221599   0.775   0.084   6.437 -0.0022 -0.5833  0.9065
  188SAPI   O1121600   0.793   0.194   6.665  0.6673 -0.7227 -0.0867
  188SAPI    C121601   0.727   0.117   6.762 -0.4703  0.0822 -0.4790
  188SAPI    HA21602   0.653   0.043   6.725  0.1814 -1.3623  0.9933
  188SAPI    HB21603   0.805   0.067   6.823 -0.8112 -0.0448 -0.1416
  188SAPI    C221604   0.641   0.200   6.859  0.5238  0.5876 -0.2739
  188SAPI    HS21605   0.565   0.254   6.799 -1.3293  0.6177  1.9530
  188SAPI   O2121606   0.727   0.290   6.927 -0.1091  0.2566 -0.2843
  188SAPI   C2121607   0.672   0.390   6.982  0.5080 -0.1426 -0.5871
  188SAPI   O2221608   0.552   0.413   6.971  0.1511  0.3265  0.6864
  188SAPI   C2221609   0.764   0.493   7.058  0.1677  0.3918 -0.2630
  188SAPI   H2R21610   0.817   0.432   7.135 -0.3686  1.4599  0.9991
  188SAPI   H2S21611   0.842   0.521   6.985  0.7573  0.8799  0.5325
  188SAPI    C321612   0.554   0.116   6.958  0.3020  0.6644  0.0092
  188SAPI    HX21613   0.499   0.041   6.896 -1.0624  0.9002  0.8804
  188SAPI    HY21614   0.477   0.183   7.002 -0.8708  0.6895 -1.9473
  188SAPI   O3121615   0.638   0.042   7.048  0.2572  0.3055 -0.0251
  188SAPI   C3121616   0.576  -0.008   7.148  0.3175  0.3885  0.1281
  188SAPI   O3221617   0.452  -0.018   7.163  0.2051 -0.0965  0.8026
  188SAPI   C3221618   0.676  -0.053   7.250 -0.4510 -0.3190 -0.0905
  188SAPI   H2X21619   0.782  -0.026   7.232 -0.5971  0.6648  0.4394
  188SAPI   H2Y21620   0.671  -0.163   7.236  0.7442 -0.4208  0.1398
  188SAPI   C2321621   0.700   0.611   7.132 -0.4999  0.4714  0.1309
  188SAPI   H3R21622   0.628   0.579   7.211  0.4743  1.2029  1.3475
  188SAPI   H3S21623   0.639   0.669   7.059 -0.0831  0.2807 -0.3748
  188SAPI   C2421624   0.803   0.712   7.197 -0.3894  0.5354 -0.6800
  188SAPI   H4R21625   0.758   0.814   7.191 -2.3847 -0.3169 -0.9248
  188SAPI   H4S21626   0.895   0.725   7.135  0.0002 -0.2607 -0.2825
  188SAPI   C2521627   0.831   0.667   7.338  0.1197  0.5244 -0.3279
  188SAPI   H5R21628   0.927   0.615   7.352 -0.6897 -0.5253  1.9208
  188SAPI   C2621629   0.755   0.696   7.448 -0.1698  0.0771  0.9062
  188SAPI   H6R21630   0.778   0.643   7.542  1.0026 -0.1235  0.5273
  188SAPI   C2721631   0.636   0.780   7.453  0.6364 -0.5354  0.1374
  188SAPI   H7R21632   0.557   0.724   7.508  1.3743 -2.4627 -0.6466
  188SAPI   H7S21633   0.599   0.807   7.351 -0.4154  0.4360  0.7534
  188SAPI   C2821634   0.673   0.909   7.522  0.1320  0.2531  0.7083
  188SAPI   H8R21635   0.712   0.988   7.456  0.5892  1.2971  2.1709
  188SAPI   C2921636   0.689   0.938   7.653 -0.2688 -0.1319 -0.4758
  188SAPI   H9R21637   0.710   1.038   7.695  0.8938 -0.7764  0.5220
  188SAPI  C21021638   0.670   0.842   7.771 -1.0213  0.5315  0.4903
  188SAPI  H10R21639   0.612   0.756   7.730  1.4255 -0.1142 -1.9696
  188SAPI  H10S21640   0.617   0.885   7.858  0.7009 -0.8001  2.2851
  188SAPI  C21121641   0.796   0.786   7.829  0.0187  0.5862  0.6250
  188SAPI  H11R21642   0.880   0.756   7.764  0.4183 -0.6767  1.6634
  188SAPI  C21221643   0.811   0.745   7.958 -0.2874  0.0067 -0.1118
  188SAPI  H12R21644   0.915   0.725   7.988  0.4265  1.7260 -1.2984
  188SAPI  C21321645   0.703   0.766   8.060 -0.1588  0.9983  0.3347
  188SAPI  H13R21646   0.715   0.688   8.139  0.7213  0.8210  0.0384
  188SAPI  H13S21647   0.599   0.745   8.026 -0.6687  0.0625  2.3238
  188SAPI  C21421648   0.700   0.900   8.125 -0.1144 -0.3203 -0.5258
  188SAPI  H14R21649   0.759   0.974   8.068  0.0561 -0.2495 -0.2562
  188SAPI  C21521650   0.649   0.934   8.244  0.4646 -0.1291 -0.6440
  188SAPI  H15R21651   0.667   1.033   8.291 -3.1335  0.2785  0.1455
  188SAPI  C21621652   0.571   0.844   8.344  0.4446  0.1119 -0.2813
  188SAPI  H16R21653   0.616   0.857   8.446  0.1886  0.0473 -0.1601
  188SAPI  H16S21654   0.579   0.739   8.311  0.6976  0.2487 -0.6594
  188SAPI  C21721655   0.416   0.880   8.345 -0.8145 -0.2793  0.1437
  188SAPI  H17R21656   0.381   0.881   8.240  1.4383 -0.0516 -0.6574
  188SAPI  H17S21657   0.404   0.982   8.387 -3.8374 -0.1309 -0.8245
  188SAPI  C21821658   0.330   0.783   8.419 -0.3029 -0.4776  0.1314
  188SAPI  H18R21659   0.339   0.678   8.383 -0.2519  0.3805 -2.6369
  188SAPI  H18S21660   0.231   0.805   8.375  0.1530 -0.9617 -1.1881
  188SAPI  C21921661   0.334   0.801   8.569  0.0944 -0.8692 -0.5405
  188SAPI  H19R21662   0.311   0.907   8.593 -0.2814 -1.5924  2.7105
  188SAPI  H19S21663   0.431   0.773   8.615  0.0953 -0.7217 -0.4517
  188SAPI  C22021664   0.221   0.725   8.645 -0.3704 -0.0685  0.0859
  188SAPI  H20R21665   0.125   0.776   8.622  0.1824 -0.1828 -2.9704
  188SAPI  H20S21666   0.246   0.737   8.752  0.2158  1.4818 -0.1926
  188SAPI  H20T21667   0.212   0.627   8.594 -1.8039  0.3624 -0.5281
  188SAPI   C3321668   0.636   0.003   7.389 -0.5830  0.1582 -0.3408
  188SAPI   H3X21669   0.530  -0.009   7.421 -0.1827  3.5762  2.9248
  188SAPI   H3Y21670   0.657   0.112   7.392 -1.6851  0.3598  0.9973
  188SAPI   C3421671   0.714  -0.071   7.499 -0.5894  0.6590  0.6036
  188SAPI   H4X21672   0.823  -0.051   7.486 -0.3798 -1.5790 -2.0351
  188SAPI   H4Y21673   0.709  -0.180   7.482  2.2366  0.6025 -0.3761
  188SAPI   C3521674   0.688  -0.032   7.652 -0.0130 -0.4602 -0.2583
  188SAPI   H5X21675   0.582  -0.055   7.674 -0.4033  1.2707 -0.1659
  188SAPI   H5Y21676   0.694   0.078   7.666  0.0686 -0.6037  0.8761
  188SAPI   C3621677   0.798  -0.084   7.748 -0.1985  0.4743 -0.1676
  188SAPI   H6X21678   0.890  -0.024   7.728 -2.0699  3.5373 -0.3424
  188SAPI   H6Y21679   0.810  -0.191   7.721 -0.7734  0.2619  0.4136
  188SAPI   C3721680   0.757  -0.064   7.891  0.4270  0.2799 -0.4123
  188SAPI   H7X21681   0.660  -0.114   7.908 -0.2280 -0.1791 -4.4027
  188SAPI   H7Y21682   0.738   0.045   7.904  1.8003  0.6637 -1.3170
  188SAPI   C3821683   0.865  -0.110   7.991  0.8781 -0.2572  0.0135
  188SAPI   H8X21684   0.967  -0.074   7.964  0.6863  0.3989  0.1460
  188SAPI   H8Y21685   0.869  -0.221   7.995 -1.1271 -0.3850 -0.4280
  188SAPI   C3921686   0.826  -0.064   8.138 -0.4744  0.6599 -0.3375
  188SAPI   H9X21687   0.728  -0.113   8.160 -0.4660  0.5756 -0.4879
  188SAPI   H9Y21688   0.807   0.045   8.137 -1.9334  0.4915  2.1060
  188SAPI  C31021689   0.925  -0.106   8.237 -0.3803  0.4540 -0.5403
  188SAPI  H10X21690   1.022  -0.065   8.202  0.8827 -1.9588 -0.1169
  188SAPI  H10Y21691   0.938  -0.216   8.246 -0.3109  0.5696  1.1416
  188SAPI  C31121692   0.906  -0.071   8.384 -0.2207  0.1887  0.4192
  188SAPI  H11X21693   0.810  -0.122   8.410  0.9888 -2.1170  0.6562
  188SAPI  H11Y21694   0.899   0.039   8.398  2.8103  0.4867  0.3375
  188SAPI  C31221695   1.012  -0.115   8.487 -0.0682  0.5926 -0.3206
  188SAPI  H12X21696   1.111  -0.067   8.470  1.2213 -2.3708 -1.9973
  188SAPI  H12Y21697   1.039  -0.222   8.478  0.7234  0.8195 -0.8055
  188SAPI  C31321698   0.983  -0.092   8.634 -0.0686 -1.2464  1.2092
  188SAPI  H13X21699   1.076  -0.094   8.695 -1.6234 -3.4370  3.7162
  188SAPI  H13Y21700   0.905  -0.159   8.677 -1.0165  0.3100  2.0145
  188SAPI  C31421701   0.921   0.052   8.653 -0.1116  0.1496 -0.1364
  188SAPI  H14X21702   0.819   0.068   8.612 -0.9469  1.6700  2.3353
  188SAPI  H14Y21703   0.994   0.121   8.604  0.7689  1.6549  2.9890
  188SAPI  C31521704   0.913   0.099   8.797 -0.2752  0.0263  0.9470
  188SAPI  H15X21705   0.868   0.200   8.789  1.2297  0.7897  1.6585
  188SAPI  H15Y21706   1.013   0.129   8.834 -0.0464  0.7451 -0.2019
  188SAPI  C31621707   0.828  -0.002   8.886  0.0469  0.1722  0.0899
  188SAPI  H16X21708   0.872  -0.104   8.892 -2.6468 -1.0787 -0.0876
  188SAPI  H16Y21709   0.727  -0.019   8.844 -0.4220 -0.1426  1.2942
  188SAPI  C31721710   0.817   0.045   9.034  0.4560  0.9252 -0.5382
  188SAPI  H17X21711   0.771   0.146   9.027 -2.9856 -0.5656 -2.2427
  188SAPI  H17Y21712   0.923   0.047   9.066  0.7939  1.1006 -1.6158
  188SAPI  C31821713   0.719  -0.046   9.111  0.6090 -0.4711 -0.1193
  188SAPI  H18X21714   0.720  -0.029   9.221 -2.4643 -0.8350  0.0647
  188SAPI  H18Y21715   0.734  -0.155   9.097 -1.8764 -1.0064  0.7844
  188SAPI  H18Z21716   0.614  -0.029   9.079  0.1514 -0.5624  1.2750
  189POPC     N21717   1.685   6.335  11.410 -0.3615  0.1852  0.6125
  189POPC   C1221718   1.681   6.460  11.499  0.3183  0.1909  0.5837
  189POPC  H12A21719   1.780   6.491  11.530  0.9643 -3.4754  2.8424
  189POPC  H12B21720   1.631   6.421  11.587  2.2465 -2.6814  0.5518
  189POPC   C1321721   1.742   6.224  11.488 -0.7995  0.0481 -0.1843
  189POPC  H13A21722   1.840   6.255  11.520 -1.1012  0.6051  0.2222
  189POPC  H13B21723   1.687   6.215  11.581  1.9246  0.1002  1.5548
  189POPC  H13C21724   1.765   6.139  11.426  0.9404  0.8574 -0.7103
  189POPC   C1421725   1.547   6.298  11.354  0.2535 -0.1416  0.5085
  189POPC  H14A21726   1.472   6.282  11.430  0.7294 -0.8522  0.8437
  189POPC  H14B21727   1.512   6.378  11.291 -1.9582 -1.2720  0.1812
  189POPC  H14C21728   1.560   6.218  11.283 -1.0567  1.5683 -1.7791
  189POPC   C1521729   1.771   6.356  11.287 -0.6706  0.2986  0.0250
  189POPC  H15A21730   1.761   6.281  11.209 -0.1947  0.3894 -0.1302
  189POPC  H15B21731   1.870   6.373  11.326 -0.3909 -1.3990  0.1271
  189POPC  H15C21732   1.741   6.447  11.237 -2.7507 -0.6623 -0.6046
  189POPC   C1121733   1.606   6.589  11.453 -0.0285 -0.3817  0.3015
  189POPC  H11A21734   1.622   6.668  11.530 -1.1882  2.2853 -1.9937
  189POPC  H11B21735   1.499   6.561  11.459 -0.1113 -0.3807 -1.0101
  189POPC     P21736   1.575   6.756  11.256  0.0330  0.1606 -0.2875
  189POPC   O1321737   1.613   6.878  11.335  0.1963 -0.3848 -0.2069
  189POPC   O1421738   1.430   6.730  11.233  0.2029 -0.1655  0.3879
  189POPC   O1221739   1.650   6.631  11.320 -0.5137  0.1651  0.5526
  189POPC   O1121740   1.639   6.752  11.116  0.7354  0.0845  0.4233
  189POPC    C121741   1.643   6.641  11.025 -0.0598 -0.5128  0.1456
  189POPC    HA21742   1.577   6.555  11.052 -0.0622 -0.6357 -0.2421
  189POPC    HB21743   1.750   6.610  11.021  0.0376 -0.1650  0.0407
  189POPC    C221744   1.592   6.674  10.883  1.6003  0.2921  0.1414
  189POPC    HS21745   1.562   6.588  10.820  0.1891  3.2501 -3.6735
  189POPC   O2121746   1.694   6.741  10.809  0.1570 -0.0565 -0.1615
  189POPC   C2121747   1.791   6.670  10.772 -0.7277  0.2773 -0.2034
  189POPC   O2221748   1.819   6.553  10.801 -0.1594 -0.0358  0.2063
  189POPC   C2221749   1.878   6.750  10.667 -0.1846 -0.2892  0.2920
  189POPC   H2R21750   1.978   6.720  10.705 -0.5143  0.3603  1.7772
  189POPC   H2S21751   1.860   6.858  10.688  0.4414  0.1851 -1.5247
  189POPC    C321752   1.469   6.766  10.891  0.2364  0.0382  0.7239
  189POPC    HX21753   1.502   6.866  10.926  1.6066  0.6410 -1.9784
  189POPC    HY21754   1.394   6.723  10.960  0.3991  2.8746  2.8517
  189POPC   O3121755   1.409   6.779  10.757 -0.5068 -0.0251 -0.2092
  189POPC   C3121756   1.336   6.881  10.739 -0.7007  0.1234  0.4217
  189POPC   O3221757   1.317   6.969  10.819  0.5935 -0.0651 -0.7797
  189POPC   C3221758   1.274   6.862  10.601  0.8374  0.0089  0.4461
  189POPC   H2X21759   1.226   6.961  10.583  1.3948  0.3299  0.6736
  189POPC   H2Y21760   1.198   6.783  10.618  2.4183 -1.4378  1.0958
  189POPC   C2321761   1.857   6.708  10.527 -0.0835 -0.4597 -0.4516
  189POPC   H3R21762   1.851   6.597  10.524  0.2261 -0.5246 -4.8391
  189POPC   H3S21763   1.945   6.733  10.464 -0.7376  2.2070 -0.3861
  189POPC   C2421764   1.742   6.773  10.448  0.0411  0.9300  0.4933
  189POPC   H4R21765   1.734   6.881  10.472 -1.9010  0.5035  2.0803
  189POPC   H4S21766   1.655   6.730  10.502  1.1271  0.4044  1.8765
  189POPC   C2521767   1.745   6.745  10.298  0.6761  0.2766  0.0556
  189POPC   H5R21768   1.826   6.808  10.256  0.0827  1.0904  0.1046
  189POPC   H5S21769   1.650   6.774  10.248 -0.1154 -1.3593  0.5490
  189POPC   C2621770   1.758   6.600  10.261  0.1625  0.8877  0.2308
  189POPC   H6R21771   1.678   6.540  10.310  2.1786 -1.9169  0.3230
  189POPC   H6S21772   1.840   6.548  10.315  1.6004  0.7688 -1.9311
  189POPC   C2721773   1.760   6.563  10.109  0.5509 -0.1915 -0.3462
  189POPC   H7R21774   1.841   6.626  10.066 -0.5492  1.0468 -0.6532
  189POPC   H7S21775   1.664   6.581  10.057 -0.4905 -2.0160  0.8244
  189POPC   C2821776   1.807   6.419  10.089  0.6783 -0.3288  0.1555
  189POPC   H8R21777   1.884   6.382  10.160  0.9527 -0.3242 -0.1366
  189POPC   H8S21778   1.851   6.413   9.987 -0.1342  0.5073 -0.2623
  189POPC   C2921779   1.694   6.317  10.101  0.2943 -0.3550  0.2021
  189POPC   H9121780   1.624   6.321  10.186 -0.0685 -2.0327  0.0176
  189POPC  C21021781   1.666   6.224  10.016  0.0907  0.2181  0.4988
  189POPC  H10121782   1.589   6.155  10.053 -1.1510  1.3634  0.1328
  189POPC  C21121783   1.740   6.185   9.892 -0.2512  0.2678  0.2169
  189POPC  H11R21784   1.738   6.076   9.870 -0.1859  0.5544 -1.2894
  189POPC  H11S21785   1.850   6.204   9.888 -0.2028  0.1635  0.8986
  189POPC  C21221786   1.693   6.257   9.767  0.5591  0.2216 -0.5690
  189POPC  H12R21787   1.682   6.365   9.790  0.8225  0.6989 -2.5184
  189POPC  H12S21788   1.592   6.215   9.748  0.0057  1.2900 -0.0865
  189POPC  C21321789   1.784   6.248   9.643 -0.8271  0.3874  0.2440
  189POPC  H13R21790   1.800   6.139   9.629  1.7458  0.6543  0.4893
  189POPC  H13S21791   1.881   6.300   9.660 -1.5079  1.3017  1.6169
  189POPC  C21421792   1.707   6.283   9.517 -0.7310 -0.1784 -0.3196
  189POPC  H14R21793   1.681   6.390   9.527  1.4180  0.2314  1.7487
  189POPC  H14S21794   1.617   6.217   9.516 -1.0423  0.2243  0.4298
  189POPC  C21521795   1.793   6.261   9.395  1.0229  0.4286  0.9636
  189POPC  H15R21796   1.806   6.152   9.375 -0.8100  0.4251 -0.4843
  189POPC  H15S21797   1.886   6.319   9.409  0.4932  1.1302  1.6368
  189POPC  C21621798   1.735   6.332   9.265 -0.9211  0.5792 -0.3004
  189POPC  H16R21799   1.707   6.430   9.307 -0.1640  0.3852  0.6952
  189POPC  H16S21800   1.649   6.275   9.223 -0.7683  0.6001 -0.6438
  189POPC  C21721801   1.850   6.369   9.169  0.0268 -0.1749  1.2719
  189POPC  H17R21802   1.904   6.279   9.135  3.2017  2.2045 -0.5734
  189POPC  H17S21803   1.921   6.432   9.226  0.6249 -0.9795  1.4251
  189POPC  C21821804   1.813   6.446   9.034 -0.4557 -0.2557  0.0510
  189POPC  H18R21805   1.727   6.394   8.986 -1.6182  1.0556  0.6310
  189POPC  H18S21806   1.901   6.445   8.966 -1.6593  1.3930 -1.6059
  189POPC  H18T21807   1.785   6.553   9.047  0.0138 -0.2160  0.8413
  189POPC   C3321808   1.374   6.826  10.488  0.3218  0.3820  0.4063
  189POPC   H3X21809   1.392   6.718  10.503  0.1700  0.3334  0.2307
  189POPC   H3Y21810   1.475   6.864  10.513  1.0475 -2.5372  2.4934
  189POPC   C3421811   1.326   6.871  10.351  0.5526  1.1144 -0.1414
  189POPC   H4X21812   1.403   6.847  10.275 -1.1548  0.3753 -1.7125
  189POPC   H4Y21813   1.292   6.977  10.357 -1.8210  0.3329  3.0761
  189POPC   C3521814   1.192   6.792  10.310  0.3581  0.1976  0.1491
  189POPC   H5X21815   1.112   6.822  10.382 -0.1495 -0.4788 -0.1256
  189POPC   H5Y21816   1.221   6.687  10.331 -2.1138 -0.6198 -0.1605
  189POPC   C3621817   1.139   6.813  10.167 -0.1152  0.3573 -0.1042
  189POPC   H6X21818   1.069   6.728  10.153  0.3579 -0.2513  1.1502
  189POPC   H6Y21819   1.227   6.796  10.101 -0.2269 -1.0186  0.0743
  189POPC   C3721820   1.065   6.946  10.122 -0.1694 -0.7173 -0.2831
  189POPC   H7X21821   1.132   7.027  10.159  2.1901 -1.4677 -2.5823
  189POPC   H7Y21822   0.969   6.941  10.177 -0.4438  1.3870 -0.4931
  189POPC   C3821823   1.040   6.956   9.969  0.4958  0.1630 -0.7039
  189POPC   H8X21824   1.126   6.921   9.909  1.7389  0.7069  0.6942
  189POPC   H8Y21825   1.032   7.066   9.954  0.6920  0.1700 -0.7594
  189POPC   C3921826   0.921   6.874   9.934  0.2254 -0.4798 -0.3363
  189POPC   H9X21827   0.832   6.924   9.977  1.2033  1.1639 -0.1092
  189POPC   H9Y21828   0.935   6.768   9.963  0.1554  0.3708  3.2537
  189POPC  C31021829   0.904   6.884   9.781 -0.8388  0.6591 -0.2074
  189POPC  H10X21830   0.934   6.985   9.743 -3.0106  1.4360 -0.0207
  189POPC  H10Y21831   0.796   6.874   9.755 -0.9686  1.2403  0.0899
  189POPC  C31121832   0.960   6.761   9.709 -0.3258  0.1825  0.8221
  189POPC  H11X21833   0.899   6.673   9.736 -0.9032  0.8695  1.8268
  189POPC  H11Y21834   1.062   6.751   9.754  1.2679  0.4691 -2.4113
  189POPC  C31221835   0.977   6.768   9.553 -0.6266  0.6204 -0.0836
  189POPC  H12X21836   0.880   6.767   9.500  0.3698 -1.2770 -2.0126
  189POPC  H12Y21837   1.030   6.678   9.516 -1.6262 -0.2197  0.4973
  189POPC  C31321838   1.055   6.891   9.502  0.3770  0.9561 -0.3625
  189POPC  H13X21839   1.160   6.885   9.540  0.6059  0.8411 -1.0051
  189POPC  H13Y21840   1.015   6.982   9.552 -1.0595  0.5722 -0.7593
  189POPC  C31421841   1.047   6.905   9.345  0.4033  0.1002  0.5542
  189POPC  H14X21842   1.031   7.011   9.318 -1.0655 -0.7341 -2.1973
  189POPC  H14Y21843   0.967   6.845   9.298 -0.7489  1.4524  0.7378
  189POPC  C31521844   1.177   6.871   9.279 -0.5390 -0.0600 -0.8749
  189POPC  H15X21845   1.205   6.763   9.287 -0.9706 -0.1039  0.1373
  189POPC  H15Y21846   1.253   6.917   9.345 -2.0056  3.2833 -1.3574
  189POPC  C31621847   1.187   6.924   9.136 -0.4089 -0.1760  0.2907
  189POPC  H16X21848   1.129   7.019   9.136  0.4601  0.3891  1.3885
  189POPC  H16Y21849   1.144   6.863   9.054  2.0531 -1.5625 -0.0702
  189POPC  H16Z21850   1.293   6.955   9.120 -1.0395  1.5496 -0.8560
  190POPC     N21851   3.082   2.415  11.543  0.0613  0.1377 -0.3965
  190POPC   C1221852   3.108   2.400  11.401 -0.2080 -0.1268 -0.1835
  190POPC  H12A21853   3.023   2.357  11.352 -1.8543  0.0796  2.2935
  190POPC  H12B21854   3.199   2.343  11.394 -0.4696 -0.5256 -0.3600
  190POPC   C1321855   3.189   2.499  11.618 -0.1058 -0.7368  0.0287
  190POPC  H13A21856   3.215   2.589  11.564  1.5025 -0.1407  1.6718
  190POPC  H13B21857   3.156   2.524  11.717  0.4942 -0.3620  0.1377
  190POPC  H13C21858   3.280   2.441  11.611 -0.6623 -1.4484 -3.3311
  190POPC   C1421859   2.945   2.485  11.575 -0.2895  0.5298  0.1565
  190POPC  H14A21860   2.922   2.472  11.679  0.0703 -3.4979 -0.0841
  190POPC  H14B21861   2.945   2.588  11.545  0.3961  0.5659  0.2517
  190POPC  H14C21862   2.866   2.427  11.528  0.1746 -0.4935  0.5978
  190POPC   C1521863   3.067   2.282  11.612 -0.0312  0.2351  0.2558
  190POPC  H15A21864   3.047   2.300  11.717  1.4081 -3.1149  1.2596
  190POPC  H15B21865   3.161   2.228  11.623 -1.2106 -1.7968  0.9487
  190POPC  H15C21866   2.990   2.220  11.569  1.2651 -0.5754 -0.9918
  190POPC   C1121867   3.151   2.526  11.319 -0.7068 -0.5711  0.5950
  190POPC  H11A21868   3.247   2.560  11.363 -0.1919 -0.3742 -0.6463
  190POPC  H11B21869   3.076   2.606  11.337 -1.8883 -1.4754 -0.1411
  190POPC     P21870   3.052   2.474  11.100 -0.5852  0.2073  0.1828
  190POPC   O1321871   2.955   2.581  11.113  0.0357  0.1470  0.5722
  190POPC   O1421872   3.005   2.334  11.126 -0.3136  0.3552  0.1180
  190POPC   O1221873   3.183   2.507  11.182  0.4829  0.4314 -0.8136
  190POPC   O1121874   3.119   2.474  10.954 -0.0565 -0.8439  0.2773
  190POPC    C121875   3.222   2.550  10.899  0.0909  0.3851 -0.0056
  190POPC    HA21876   3.312   2.488  10.915  0.2085  0.3513 -0.7430
  190POPC    HB21877   3.246   2.647  10.949  0.3535 -0.0468  0.7173
  190POPC    C221878   3.206   2.573  10.740  0.6644  0.6400 -0.3983
  190POPC    HS21879   3.223   2.474  10.692 -0.1246  1.2164 -1.9322
  190POPC   O2121880   3.305   2.666  10.701 -0.0033 -0.2186  0.6850
  190POPC   C2121881   3.425   2.612  10.676  0.0476 -0.0773 -0.0620
  190POPC   O2221882   3.455   2.499  10.713 -0.3616 -0.0786 -0.3630
  190POPC   C2221883   3.501   2.712  10.591 -0.1366  0.6113 -0.3329
  190POPC   H2R21884   3.592   2.748  10.644  0.6701 -0.0138 -1.2460
  190POPC   H2S21885   3.434   2.795  10.563 -0.0225  1.0504  0.6565
  190POPC    C321886   3.075   2.634  10.690  0.3799 -0.1922  0.2016
  190POPC    HX21887   3.068   2.732  10.742 -0.6142 -1.3333  2.3552
  190POPC    HY21888   2.994   2.572  10.733 -1.8495  2.2091 -0.3225
  190POPC   O3121889   3.073   2.643  10.542 -0.4874 -0.1051  0.0734
  190POPC   C3121890   3.016   2.539  10.492  0.2287 -0.0037 -0.5628
  190POPC   O3221891   3.011   2.427  10.535  0.0174  0.4323 -0.2791
  190POPC   C3221892   2.959   2.576  10.364  0.5188 -0.3242 -0.0769
  190POPC   H2X21893   3.023   2.654  10.319 -2.5545  1.6479 -1.3071
  190POPC   H2Y21894   2.857   2.613  10.388  0.4181 -1.3964  1.3427
  190POPC   C2321895   3.566   2.645  10.466  0.5745  0.4033  0.5493
  190POPC   H3R21896   3.622   2.550  10.485  0.7879  0.1919 -0.9758
  190POPC   H3S21897   3.645   2.715  10.431 -1.3048  2.2063 -0.2398
  190POPC   C2421898   3.468   2.632  10.349  0.1049  0.1292 -0.1025
  190POPC   H4R21899   3.443   2.738  10.325  0.2298  0.1089 -0.3155
  190POPC   H4S21900   3.372   2.586  10.384 -0.9880  2.0413 -0.4315
  190POPC   C2521901   3.516   2.550  10.237 -0.1644 -0.2299  0.0640
  190POPC   H5R21902   3.513   2.444  10.269  2.6052 -0.8341 -1.4029
  190POPC   H5S21903   3.624   2.573  10.227  0.0212 -0.6103  1.0780
  190POPC   C2621904   3.429   2.565  10.107 -0.4832  0.3310 -0.0100
  190POPC   H6R21905   3.429   2.676  10.093  1.3345  0.9135  3.4291
  190POPC   H6S21906   3.326   2.529  10.128 -0.1721 -0.6784 -0.1913
  190POPC   C2721907   3.503   2.503   9.986 -0.2097 -0.0629 -0.4334
  190POPC   H7R21908   3.611   2.481  10.001 -0.8624 -2.1929  1.8307
  190POPC   H7S21909   3.486   2.565   9.896  0.8112 -0.0158 -0.6040
  190POPC   C2821910   3.451   2.360   9.947 -0.2307 -0.4368 -0.8121
  190POPC   H8R21911   3.494   2.290  10.021  2.0819  1.8253  0.1272
  190POPC   H8S21912   3.498   2.332   9.851  0.4644 -0.7298 -0.3912
  190POPC   C2921913   3.301   2.354   9.919 -0.4344  0.2851 -1.2912
  190POPC   H9121914   3.240   2.434   9.964  0.3291 -0.1212  0.5670
  190POPC  C21021915   3.237   2.258   9.850  0.3258 -0.1523  0.1913
  190POPC  H10121916   3.128   2.269   9.838  0.3064 -1.0873 -0.6646
  190POPC  C21121917   3.300   2.138   9.783 -0.6418 -0.1220 -0.5874
  190POPC  H11R21918   3.250   2.042   9.804  0.1507 -0.2270  0.9988
  190POPC  H11S21919   3.402   2.129   9.827 -0.5957 -0.8115 -0.8298
  190POPC  C21221920   3.325   2.157   9.632  0.0357  0.0126  0.2242
  190POPC  H12R21921   3.235   2.158   9.566 -0.8787 -1.1522  1.3858
  190POPC  H12S21922   3.379   2.061   9.617  0.7678  0.2586  1.2055
  190POPC  C21321923   3.423   2.262   9.587  0.1629 -0.0539  0.1351
  190POPC  H13R21924   3.514   2.262   9.650  1.4756 -0.5920 -1.6824
  190POPC  H13S21925   3.376   2.362   9.597 -1.1125 -0.5188 -0.9499
  190POPC  C21421926   3.480   2.254   9.439 -0.8393 -0.0349 -0.9228
  190POPC  H14R21927   3.386   2.239   9.381 -1.2148 -0.0663 -0.3283
  190POPC  H14S21928   3.551   2.172   9.414  0.4644  1.7689 -3.5320
  190POPC  C21521929   3.558   2.382   9.402  0.1599 -0.1523  0.1649
  190POPC  H15R21930   3.623   2.413   9.487 -1.2187  0.2771  1.1070
  190POPC  H15S21931   3.485   2.465   9.387  0.2740 -0.3892 -1.9262
  190POPC  C21621932   3.615   2.367   9.263  0.2234 -0.5715  0.1178
  190POPC  H16R21933   3.526   2.335   9.205 -0.2902 -0.5769  0.8919
  190POPC  H16S21934   3.694   2.288   9.261 -0.6023 -1.4035 -1.7501
  190POPC  C21721935   3.660   2.506   9.208  0.2390 -0.0294 -0.4851
  190POPC  H17R21936   3.734   2.545   9.281 -0.1133  0.5626 -0.4379
  190POPC  H17S21937   3.584   2.586   9.216  0.0977 -0.3325  1.5681
  190POPC  C21821938   3.706   2.500   9.066 -0.0376  0.1398 -0.2023
  190POPC  H18R21939   3.761   2.591   9.033 -0.9545  0.1338 -1.7998
  190POPC  H18S21940   3.616   2.487   9.003  0.7809  4.8732 -2.8543
  190POPC  H18T21941   3.786   2.423   9.052  0.5256  1.1647 -3.4509
  190POPC   C3321942   2.967   2.468  10.256  0.5356 -0.1129 -0.1704
  190POPC   H3X21943   2.866   2.427  10.276  0.2833  0.4311 -0.3108
  190POPC   H3Y21944   3.046   2.390  10.264  0.6166 -0.3337 -2.4774
  190POPC   C3421945   2.973   2.515  10.103  0.2032 -0.0996  0.6147
  190POPC   H4X21946   2.967   2.423  10.040  2.8095 -0.0121  0.0898
  190POPC   H4Y21947   3.074   2.558  10.082  0.8671 -1.4623  0.8471
  190POPC   C3521948   2.854   2.611  10.057 -0.6131  0.3178 -0.1631
  190POPC   H5X21949   2.890   2.716  10.049  0.4632 -0.1259 -1.5898
  190POPC   H5Y21950   2.771   2.597  10.129 -0.2868 -0.0063  0.1559
  190POPC   C3621951   2.789   2.558   9.925 -0.0046 -0.5431  0.2707
  190POPC   H6X21952   2.688   2.603   9.917  0.7434  0.8314 -2.7506
  190POPC   H6Y21953   2.782   2.447   9.913  3.4447 -0.9379  0.8762
  190POPC   C3721954   2.866   2.605   9.801 -0.5803  0.4346 -0.2300
  190POPC   H7X21955   2.963   2.551   9.808 -0.2460  1.0427 -0.1121
  190POPC   H7Y21956   2.901   2.709   9.819 -0.9220  0.5966 -0.4813
  190POPC   C3821957   2.805   2.589   9.661  0.1648  0.1001 -0.0382
  190POPC   H8X21958   2.862   2.648   9.586  0.3249 -1.4708 -1.2218
  190POPC   H8Y21959   2.703   2.633   9.665  0.4671  0.8717 -0.5253
  190POPC   C3921960   2.798   2.444   9.599  0.2286  0.3668  0.0780
  190POPC   H9X21961   2.716   2.452   9.525  0.4335  1.8657 -0.0121
  190POPC   H9Y21962   2.757   2.371   9.672  0.1383 -0.7991 -1.0995
  190POPC  C31021963   2.926   2.405   9.536 -0.1651  0.5543 -0.3150
  190POPC  H10X21964   2.938   2.295   9.542  3.3866  0.7992 -0.9703
  190POPC  H10Y21965   3.016   2.441   9.590 -0.9195  0.7327  0.8737
  190POPC  C31121966   2.935   2.450   9.385  0.4187  0.9266 -0.5312
  190POPC  H11X21967   2.931   2.561   9.385  3.2005  1.1168 -1.5551
  190POPC  H11Y21968   2.849   2.422   9.321  0.6166  3.0488 -1.8189
  190POPC  C31221969   3.056   2.404   9.305 -0.4019 -0.1701  0.0954
  190POPC  H12X21970   3.059   2.293   9.292  1.2197 -0.2254  0.6600
  190POPC  H12Y21971   3.136   2.428   9.379 -2.3560 -0.2582  2.3653
  190POPC  C31321972   3.088   2.492   9.189 -0.2151 -0.0651 -0.4462
  190POPC  H13X21973   3.062   2.600   9.197  1.2051  0.4179 -1.8462
  190POPC  H13Y21974   3.027   2.461   9.102 -0.8324 -1.4128  0.4216
  190POPC  C31421975   3.231   2.476   9.131  1.0848  0.2598 -1.0087
  190POPC  H14X21976   3.267   2.373   9.110  0.7532 -0.4253  1.4714
  190POPC  H14Y21977   3.301   2.521   9.204  0.1954 -0.6729  0.4581
  190POPC  C31521978   3.262   2.550   8.992 -0.7464  0.5704  0.7161
  190POPC  H15X21979   3.370   2.576   8.987 -0.4430 -0.8871 -1.8316
  190POPC  H15Y21980   3.212   2.650   8.994  1.0270  1.5051  0.8324
  190POPC  C31621981   3.236   2.455   8.873  0.6982 -0.1979  0.1184
  190POPC  H16X21982   3.128   2.428   8.877 -0.4766  3.5285 -1.6027
  190POPC  H16Y21983   3.301   2.365   8.884  2.0540  0.8443  0.8308
  190POPC  H16Z21984   3.255   2.494   8.771 -0.0740 -2.4997 -0.9939
  191POPC     N21985   2.396   5.355   6.579  0.4279 -0.2761  0.0750
  191POPC   C1221986   2.496   5.465   6.609  0.7277  0.5367  0.0934
  191POPC  H12A21987   2.442   5.556   6.629 -1.1878 -0.3431 -0.8065
  191POPC  H12B21988   2.551   5.482   6.517 -1.5326 -0.7721 -1.6092
  191POPC   C1321989   2.465   5.231   6.538 -0.6919  0.8398 -0.2004
  191POPC  H13A21990   2.509   5.229   6.439 -0.4939 -1.8642 -0.1290
  191POPC  H13B21991   2.540   5.200   6.608 -0.6068  1.1795 -0.1394
  191POPC  H13C21992   2.403   5.143   6.534  2.0548 -1.3036  0.8612
  191POPC   C1421993   2.319   5.329   6.708 -0.0521  0.8594 -0.2087
  191POPC  H14A21994   2.249   5.406   6.736 -1.1567 -0.2169  0.0827
  191POPC  H14B21995   2.258   5.240   6.714  0.6887  0.4255  1.6964
  191POPC  H14C21996   2.386   5.327   6.793 -2.9903 -0.6704  2.2415
  191POPC   C1521997   2.305   5.412   6.474  1.0308 -0.4901  0.5660
  191POPC  H15A21998   2.355   5.436   6.382 -2.6697  1.8570 -1.0625
  191POPC  H15B21999   2.264   5.505   6.510  0.4418 -0.9550  1.1176
  191POPC  H15C22000   2.222   5.344   6.457  0.1760  1.0844 -2.0499
  191POPC   C1122001   2.607   5.443   6.716  0.8801 -0.0153  0.0697
  191POPC  H11A22002   2.569   5.428   6.819  0.6170 -0.5232 -0.0994
  191POPC  H11B22003   2.648   5.544   6.739 -1.1914  0.7005  0.8753
  191POPC     P22004   2.822   5.366   6.582 -0.5491 -0.1645 -0.1300
  191POPC   O1322005   2.775   5.451   6.469 -0.2532 -0.2582  0.0100
  191POPC   O1422006   2.895   5.237   6.552  0.2357  0.1062 -0.6770
  191POPC   O1222007   2.696   5.343   6.681  0.0989 -0.2904  0.0532
  191POPC   O1122008   2.923   5.460   6.667  0.3911  0.4609 -0.3420
  191POPC    C122009   2.924   5.449   6.809 -0.4692  0.2468 -0.6709
  191POPC    HA22010   2.884   5.363   6.866  1.5085  0.2455  0.8562
  191POPC    HB22011   2.855   5.528   6.846 -0.7863 -0.8270  1.1020
  191POPC    C222012   3.068   5.465   6.874 -0.0867  0.3772 -0.4202
  191POPC    HS22013   3.054   5.443   6.981 -1.6571 -2.5152 -1.1193
  191POPC   O2122014   3.125   5.589   6.851 -0.1933 -0.5716  0.2717
  191POPC   C2122015   3.084   5.698   6.922 -0.4528  0.2961 -0.7782
  191POPC   O2222016   2.989   5.703   6.999  0.0336  0.1470 -0.1799
  191POPC   C2222017   3.183   5.815   6.887  0.1701  0.5457  0.0569
  191POPC   H2R22018   3.163   5.849   6.784  0.8130 -0.2250 -0.3352
  191POPC   H2S22019   3.287   5.777   6.891 -0.7357 -2.1435  0.2105
  191POPC    C322020   3.158   5.359   6.809  0.3948  0.3884 -0.1490
  191POPC    HX22021   3.173   5.395   6.705 -0.2067 -2.0111 -1.1357
  191POPC    HY22022   3.113   5.258   6.796 -0.4984  1.0073 -2.0834
  191POPC   O3122023   3.283   5.350   6.871 -0.0230  0.2949  0.0730
  191POPC   C3122024   3.349   5.243   6.826 -0.1864  0.8336  0.3394
  191POPC   O3222025   3.318   5.184   6.724 -0.0560 -0.7675 -0.1496
  191POPC   C3222026   3.457   5.207   6.924  0.7213  0.0893  0.1987
  191POPC   H2X22027   3.514   5.300   6.943  0.7617  0.0134  0.4556
  191POPC   H2Y22028   3.520   5.131   6.872 -1.9314 -0.9204 -1.7326
  191POPC   C2322029   3.173   5.940   6.981 -0.0956  0.2876  0.1582
  191POPC   H3R22030   3.073   5.965   7.022  0.7796  0.4977  2.2816
  191POPC   H3S22031   3.213   6.021   6.917 -0.4069  0.3292  0.0119
  191POPC   C2422032   3.247   5.916   7.105 -0.1086  0.1616 -0.0281
  191POPC   H4R22033   3.350   5.893   7.072  0.1080 -0.3188  0.9507
  191POPC   H4S22034   3.213   5.828   7.165  4.8018 -1.9026  0.2118
  191POPC   C2522035   3.260   6.031   7.202  0.4120 -0.1683  0.3902
  191POPC   H5R22036   3.157   6.047   7.241  0.8755  4.2153  0.3105
  191POPC   H5S22037   3.302   6.120   7.150  0.5679 -2.1146 -3.1761
  191POPC   C2622038   3.359   5.979   7.311 -0.3147  0.2726 -0.4443
  191POPC   H6R22039   3.451   5.947   7.257 -0.7972 -0.5916 -0.7814
  191POPC   H6S22040   3.309   5.887   7.347  0.1968  0.8272  1.8014
  191POPC   C2722041   3.383   6.072   7.428 -0.3969  0.1726 -0.0936
  191POPC   H7R22042   3.378   6.180   7.404  2.5346  0.3218 -0.4413
  191POPC   H7S22043   3.490   6.060   7.457 -0.8973 -0.2098  1.7096
  191POPC   C2822044   3.301   6.029   7.544  0.5479 -0.2096 -0.3585
  191POPC   H8R22045   3.323   5.928   7.585  4.1047  0.0180 -1.3537
  191POPC   H8S22046   3.198   6.011   7.507 -0.5362 -0.6018  2.5855
  191POPC   C2922047   3.281   6.137   7.650  0.1586  0.6706  0.2785
  191POPC   H9122048   3.221   6.226   7.625  0.4926  0.8417  0.0897
  191POPC  C21022049   3.345   6.141   7.773  0.6481  0.3343 -0.7298
  191POPC  H10122050   3.323   6.225   7.841 -0.0893 -1.3736  1.2413
  191POPC  C21122051   3.439   6.047   7.834  0.7802  0.3045 -0.3069
  191POPC  H11R22052   3.529   6.060   7.770  2.2467  0.7253  1.7611
  191POPC  H11S22053   3.386   5.949   7.826  0.8586  0.0892  1.4527
  191POPC  C21222054   3.474   6.080   7.975  0.0839 -0.2637 -0.2583
  191POPC  H12R22055   3.508   6.185   7.971 -1.1601  0.1608  0.1630
  191POPC  H12S22056   3.553   6.009   8.010 -0.3454 -1.6827 -1.9689
  191POPC  C21322057   3.343   6.062   8.065  0.0446 -0.1028 -0.9299
  191POPC  H13R22058   3.297   5.960   8.059 -1.0603  0.3992 -1.3199
  191POPC  H13S22059   3.263   6.133   8.034 -1.4329 -1.2747  0.0653
  191POPC  C21422060   3.377   6.080   8.215  0.2802 -0.4200 -0.2927
  191POPC  H14R22061   3.436   6.174   8.220 -0.6976  0.1968 -0.0268
  191POPC  H14S22062   3.439   5.990   8.236  4.0812  2.4371  2.2420
  191POPC  C21522063   3.256   6.076   8.307  0.2975  0.5333  0.0704
  191POPC  H15R22064   3.196   5.985   8.282 -1.3192  1.1269  1.6033
  191POPC  H15S22065   3.192   6.163   8.283  0.9831  0.8076 -0.7869
  191POPC  C21622066   3.307   6.063   8.451  0.2944 -0.5467 -0.4104
  191POPC  H16R22067   3.385   6.141   8.462 -0.5491  0.1426  0.9148
  191POPC  H16S22068   3.360   5.967   8.466  1.1406 -0.0930 -0.4387
  191POPC  C21722069   3.193   6.081   8.550 -0.2216 -0.0827  0.6250
  191POPC  H17R22070   3.108   6.016   8.523 -0.0891 -0.8697  2.0175
  191POPC  H17S22071   3.164   6.188   8.543  0.2040 -0.0859 -1.8326
  191POPC  C21822072   3.226   6.040   8.695  0.3304 -0.1781  1.1310
  191POPC  H18R22073   3.139   6.070   8.758 -0.1782 -0.9211  0.7981
  191POPC  H18S22074   3.317   6.087   8.738 -0.8509  3.4281  0.0895
  191POPC  H18T22075   3.237   5.930   8.701 -0.9208 -0.2666  2.3977
  191POPC   C3322076   3.393   5.155   7.056 -0.2909  0.7288  0.1051
  191POPC   H3X22077   3.320   5.073   7.038 -1.4576  1.5260  0.9973
  191POPC   H3Y22078   3.352   5.234   7.122  0.2860 -0.0093  1.3809
  191POPC   C3422079   3.499   5.101   7.155  0.1359 -0.1777  0.2464
  191POPC   H4X22080   3.591   5.162   7.156 -0.1427  0.4008 -2.1739
  191POPC   H4Y22081   3.545   5.001   7.139  2.3428  0.5918  1.4297
  191POPC   C3522082   3.443   5.121   7.299 -0.0042 -0.4740  0.2262
  191POPC   H5X22083   3.366   5.044   7.322 -2.9409  1.5303 -2.0367
  191POPC   H5Y22084   3.397   5.222   7.310  0.1036 -0.4562  0.5168
  191POPC   C3622085   3.558   5.116   7.404 -0.2258  0.4247  0.8731
  191POPC   H6X22086   3.649   5.173   7.374  0.7898 -1.1616  0.8572
  191POPC   H6Y22087   3.584   5.011   7.428 -3.7481 -1.0362 -0.9873
  191POPC   C3722088   3.506   5.158   7.542 -0.0994 -0.0334  0.4225
  191POPC   H7X22089   3.416   5.099   7.570 -2.7384  3.3956 -0.2089
  191POPC   H7Y22090   3.469   5.263   7.540 -0.1619 -0.0673 -0.6475
  191POPC   C3822091   3.605   5.141   7.662 -1.3709 -0.2197 -0.5550
  191POPC   H8X22092   3.703   5.188   7.640 -0.6195 -0.8036  1.3171
  191POPC   H8Y22093   3.615   5.032   7.681  0.0594  0.3092  2.2453
  191POPC   C3922094   3.561   5.187   7.794  0.0972 -0.2651  0.4701
  191POPC   H9X22095   3.476   5.125   7.830  1.5788 -3.2302 -0.8377
  191POPC   H9Y22096   3.510   5.286   7.785 -0.7389 -0.7329 -0.1554
  191POPC  C31022097   3.666   5.189   7.901  0.3792 -0.2231 -0.6322
  191POPC  H10X22098   3.741   5.270   7.898  0.6556 -0.2117  2.6937
  191POPC  H10Y22099   3.731   5.098   7.897  1.3349  0.4530 -0.7849
  191POPC  C31122100   3.599   5.187   8.037  0.5351  0.0299  0.3221
  191POPC  H11X22101   3.522   5.108   8.045  1.8458 -1.2655  0.7545
  191POPC  H11Y22102   3.546   5.282   8.059 -1.2202 -1.5037  3.3323
  191POPC  C31222103   3.691   5.144   8.154 -0.0843  0.1072 -0.2491
  191POPC  H12X22104   3.777   5.215   8.153  0.3612 -0.3505  1.6884
  191POPC  H12Y22105   3.722   5.038   8.145 -0.6249 -0.1872  1.1573
  191POPC  C31322106   3.625   5.163   8.290 -0.1465 -0.3720  0.2536
  191POPC  H13X22107   3.530   5.107   8.278  0.3741 -0.8994 -1.9735
  191POPC  H13Y22108   3.593   5.269   8.299 -1.6414 -0.5663 -2.0209
  191POPC  C31422109   3.707   5.125   8.409 -0.0943  0.2356 -0.3798
  191POPC  H14X22110   3.740   5.222   8.452 -0.3177 -1.1143  3.1588
  191POPC  H14Y22111   3.796   5.066   8.376 -2.0215 -2.1325 -1.6838
  191POPC  C31522112   3.625   5.046   8.508  0.2013  0.3437 -0.9864
  191POPC  H15X22113   3.622   4.937   8.488  0.8305 -0.2652  1.8069
  191POPC  H15Y22114   3.521   5.083   8.491  0.3649  0.7424 -1.1319
  191POPC  C31622115   3.662   5.062   8.658  1.0436 -0.2903  0.2167
  191POPC  H16X22116   3.582   5.042   8.732  0.7633  1.1248  0.3271
  191POPC  H16Y22117   3.675   5.167   8.692  0.8070 -0.3102  0.3763
  191POPC  H16Z22118   3.755   5.010   8.688 -0.1009 -0.7214  3.5175
  192POPC     N22119   2.479   0.206   6.317  0.6971 -0.3464  0.8364
  192POPC   C1222120   2.518   0.314   6.226  0.5461 -1.0499  0.5833
  192POPC  H12A22121   2.438   0.383   6.204  0.1587 -1.6986 -0.0628
  192POPC  H12B22122   2.542   0.262   6.135  1.2536  0.1031  0.0826
  192POPC   C1322123   2.593   0.119   6.370 -0.0499  0.3192 -0.5778
  192POPC  H13A22124   2.565   0.047   6.446  1.8138  2.6574  2.5756
  192POPC  H13B22125   2.660   0.075   6.298  2.5055 -0.4561  2.0941
  192POPC  H13C22126   2.666   0.185   6.413  0.9496 -1.7035  1.0151
  192POPC   C1422127   2.410   0.264   6.439 -0.1089 -0.4224  0.1581
  192POPC  H14A22128   2.485   0.329   6.482 -0.2854 -1.6768  2.5413
  192POPC  H14B22129   2.325   0.329   6.419 -0.6549 -1.3158 -0.4740
  192POPC  H14C22130   2.372   0.180   6.496 -0.1459 -1.4735 -1.3690
  192POPC   C1522131   2.382   0.113   6.251 -0.7672  0.2774  0.6082
  192POPC  H15A22132   2.284   0.157   6.238 -0.4009  0.9423 -0.0069
  192POPC  H15B22133   2.370   0.029   6.317  1.1444 -0.4561  0.0678
  192POPC  H15C22134   2.408   0.085   6.149  1.1886  0.5757  0.9899
  192POPC   C1122135   2.634   0.400   6.261  0.0410  0.0385  0.2855
  192POPC  H11A22136   2.649   0.476   6.181  1.7343 -0.5912 -0.0347
  192POPC  H11B22137   2.720   0.331   6.251  1.5079  1.2915  3.0474
  192POPC     P22138   2.743   0.568   6.418 -0.0118  0.0675  0.1531
  192POPC   O1322139   2.736   0.628   6.554 -0.4237 -0.1595  0.1443
  192POPC   O1422140   2.764   0.663   6.306  0.3311 -0.1736  0.7276
  192POPC   O1222141   2.629   0.460   6.390  0.2611  0.1313  0.4301
  192POPC   O1122142   2.869   0.480   6.409 -0.0238  0.0911 -0.1618
  192POPC    C122143   2.880   0.371   6.496  0.1080  0.8626  0.2117
  192POPC    HA22144   2.913   0.293   6.424 -0.0625  1.3153 -0.3618
  192POPC    HB22145   2.796   0.332   6.557 -0.1640 -0.8390 -1.1571
  192POPC    C222146   2.993   0.390   6.603  0.0596  0.1933 -0.2897
  192POPC    HS22147   3.020   0.292   6.648  0.4886  0.2333 -0.4530
  192POPC   O2122148   2.947   0.476   6.704 -0.2853  0.3631  0.1493
  192POPC   C2122149   2.860   0.426   6.792  0.0775  0.2316 -0.1515
  192POPC   O2222150   2.815   0.316   6.786  0.0427 -0.1070 -0.4519
  192POPC   C2222151   2.820   0.528   6.903  0.4213 -0.6830  0.1911
  192POPC   H2R22152   2.747   0.593   6.851  2.9771  1.2638 -1.1797
  192POPC   H2S22153   2.909   0.587   6.935  1.2455 -1.2847 -0.9176
  192POPC    C322154   3.130   0.433   6.539 -0.3866  0.4333 -0.2024
  192POPC    HX22155   3.103   0.526   6.483 -0.3203  0.2103 -0.6069
  192POPC    HY22156   3.159   0.355   6.465  0.6426  0.0456  0.5807
  192POPC   O3122157   3.236   0.435   6.633  0.6503 -0.6745  0.6554
  192POPC   C3122158   3.255   0.558   6.695  0.8859 -0.2862  0.6274
  192POPC   O3222159   3.201   0.659   6.650 -0.2567  0.3119  0.1296
  192POPC   C3222160   3.342   0.543   6.819 -0.5355  0.0590  0.2029
  192POPC   H2X22161   3.405   0.634   6.827  1.7766 -1.5684  1.4861
  192POPC   H2Y22162   3.418   0.463   6.806 -0.0601  0.3395  1.1835
  192POPC   C2322163   2.764   0.458   7.028  0.3569 -0.5365 -0.3020
  192POPC   H3R22164   2.848   0.418   7.088 -0.3980 -0.6029  0.7262
  192POPC   H3S22165   2.688   0.378   7.014 -0.2116  0.1990 -1.7108
  192POPC   C2422166   2.681   0.550   7.128  0.6335 -0.4026 -0.9089
  192POPC   H4R22167   2.588   0.583   7.078  0.6672  1.5079  0.1915
  192POPC   H4S22168   2.751   0.635   7.142 -1.8152  1.5328  0.4465
  192POPC   C2522169   2.649   0.486   7.260  0.0226 -0.0058 -0.1718
  192POPC   H5R22170   2.740   0.449   7.311  0.9909  1.2003 -0.9741
  192POPC   H5S22171   2.578   0.401   7.253 -3.5054  2.7688 -1.3444
  192POPC   C2622172   2.586   0.584   7.365 -0.1707  0.6594  0.1293
  192POPC   H6R22173   2.504   0.642   7.319 -1.4993  0.3816  2.0273
  192POPC   H6S22174   2.662   0.656   7.402  0.3196 -0.0145  0.4638
  192POPC   C2722175   2.532   0.510   7.489  0.8176 -0.3223  0.1218
  192POPC   H7R22176   2.624   0.470   7.536  0.3377  1.5527  2.9068
  192POPC   H7S22177   2.458   0.434   7.458 -0.4331 -0.2062  2.5905
  192POPC   C2822178   2.453   0.600   7.582  0.2721  0.5226 -0.7336
  192POPC   H8R22179   2.370   0.641   7.521  1.6520 -0.0652 -3.1129
  192POPC   H8S22180   2.523   0.680   7.614 -0.5922 -0.1587  3.5808
  192POPC   C2922181   2.415   0.516   7.699 -0.2842  0.4029  0.1876
  192POPC   H9122182   2.368   0.419   7.677  0.9131 -0.4727  1.3359
  192POPC  C21022183   2.439   0.537   7.827  0.0962 -0.0064  0.5247
  192POPC  H10122184   2.394   0.472   7.904  0.5990  0.8609  1.5900
  192POPC  C21122185   2.512   0.658   7.889 -0.5988 -0.4271  0.4101
  192POPC  H11R22186   2.448   0.748   7.885  0.9526  0.7667  1.3474
  192POPC  H11S22187   2.609   0.674   7.836  1.0159 -1.1650  2.9873
  192POPC  C21222188   2.545   0.630   8.042 -0.4203  0.3969 -0.0900
  192POPC  H12R22189   2.618   0.710   8.069 -2.9790  3.1162 -0.6857
  192POPC  H12S22190   2.605   0.537   8.049 -0.9466  0.0671  0.0998
  192POPC  C21322191   2.423   0.621   8.138  0.3959 -0.7150  0.0413
  192POPC  H13R22192   2.368   0.528   8.114 -1.6088  0.1082  1.1511
  192POPC  H13S22193   2.352   0.705   8.119  1.0487  0.0516  0.9166
  192POPC  C21422194   2.469   0.619   8.283  0.8864 -0.0203 -0.2805
  192POPC  H14R22195   2.523   0.712   8.309  2.2853 -0.1813 -2.3538
  192POPC  H14S22196   2.543   0.538   8.302  0.3620 -0.4495 -0.0128
  192POPC  C21522197   2.343   0.613   8.379 -0.1572  0.0987 -0.2328
  192POPC  H15R22198   2.248   0.627   8.324 -0.1272  1.0060 -0.0573
  192POPC  H15S22199   2.348   0.693   8.455 -1.0370 -0.0541 -0.0015
  192POPC  C21622200   2.336   0.473   8.434 -0.3585  0.1962 -0.4088
  192POPC  H16R22201   2.421   0.459   8.504 -1.3333 -0.1286  0.7434
  192POPC  H16S22202   2.343   0.397   8.353 -0.8843 -2.2161  1.6751
  192POPC  C21722203   2.199   0.454   8.508 -0.7134  0.1955 -0.6116
  192POPC  H17R22204   2.181   0.345   8.525  2.9242 -0.3056  1.1191
  192POPC  H17S22205   2.126   0.488   8.433  0.4606  1.3623 -1.2627
  192POPC  C21822206   2.187   0.536   8.642 -0.3130  0.3934  0.4283
  192POPC  H18R22207   2.080   0.538   8.675  0.2681 -1.4451  2.7566
  192POPC  H18S22208   2.216   0.640   8.618 -2.1155  0.7292 -0.4969
  192POPC  H18T22209   2.250   0.503   8.728 -1.0506  0.9412  1.1933
  192POPC   C3322210   3.260   0.527   6.952  0.0572 -0.6840 -0.0254
  192POPC   H3X22211   3.327   0.482   7.028  1.4661  0.7244 -0.3891
  192POPC   H3Y22212   3.183   0.450   6.931  0.3267 -0.9098 -0.1913
  192POPC   C3422213   3.205   0.660   7.005  0.0984  0.2897  0.4493
  192POPC   H4X22214   3.142   0.692   6.919 -0.6064  2.1887  1.6099
  192POPC   H4Y22215   3.287   0.733   7.020  1.7515 -1.3617 -0.1735
  192POPC   C3522216   3.118   0.648   7.134 -0.8001  0.4090  0.3465
  192POPC   H5X22217   3.184   0.649   7.224 -1.5409 -1.5914  0.9779
  192POPC   H5Y22218   3.069   0.549   7.127  0.8573 -0.3898 -0.2282
  192POPC   C3622219   3.018   0.760   7.141 -0.3808 -0.4605 -0.0196
  192POPC   H6X22220   2.959   0.746   7.048  1.6871 -0.2294 -1.4395
  192POPC   H6Y22221   3.073   0.856   7.143  0.5292 -0.9076  3.7854
  192POPC   C3722222   2.932   0.764   7.270  0.1480  0.0356 -0.3662
  192POPC   H7X22223   2.909   0.662   7.309  0.7206 -1.3552 -3.3510
  192POPC   H7Y22224   2.840   0.822   7.246  0.3223  0.3690 -0.2296
  192POPC   C3822225   2.980   0.857   7.380  0.7705  0.0878 -0.3335
  192POPC   H8X22226   2.991   0.963   7.350 -1.9462  0.2254 -1.0840
  192POPC   H8Y22227   3.077   0.817   7.416  1.0510  1.2752  0.2930
  192POPC   C3922228   2.866   0.865   7.485  0.1913 -0.4507 -0.7311
  192POPC   H9X22229   2.848   0.765   7.528 -1.3453 -0.0452 -0.3973
  192POPC   H9Y22230   2.771   0.898   7.437  2.4854  1.5144 -4.4067
  192POPC  C31022231   2.905   0.959   7.599  0.1141  0.1521 -0.9154
  192POPC  H10X22232   2.915   1.063   7.562 -2.0639  0.5886 -0.4550
  192POPC  H10Y22233   3.005   0.931   7.638  1.0583  1.4644 -2.2826
  192POPC  C31122234   2.810   0.942   7.712  0.3089 -0.3751 -0.7436
  192POPC  H11X22235   2.819   0.841   7.757  1.7658 -0.6598 -1.6102
  192POPC  H11Y22236   2.707   0.962   7.674 -0.8019 -0.6293  1.9150
  192POPC  C31222237   2.841   1.035   7.823  0.7696 -0.1262  1.1899
  192POPC  H12X22238   2.744   1.069   7.864  0.4278  0.7949 -0.3032
  192POPC  H12Y22239   2.891   1.121   7.773 -1.2306  0.1078 -0.6123
  192POPC  C31322240   2.901   0.970   7.947  0.5426 -0.0290 -0.7787
  192POPC  H13X22241   3.008   0.941   7.936  0.5918 -1.0628  1.8142
  192POPC  H13Y22242   2.848   0.876   7.973  1.4345 -0.8656 -1.8799
  192POPC  C31422243   2.889   1.074   8.063  0.3757  0.2409  0.2068
  192POPC  H14X22244   2.903   1.176   8.023  1.4298 -0.1388 -0.4297
  192POPC  H14Y22245   2.968   1.050   8.137 -0.2356 -1.2367  0.4285
  192POPC  C31522246   2.749   1.083   8.139  0.2305 -0.0789 -0.1692
  192POPC  H15X22247   2.735   0.976   8.166 -0.2033  0.2586  1.0177
  192POPC  H15Y22248   2.668   1.115   8.071 -0.0786 -0.2787  0.0996
  192POPC  C31622249   2.760   1.180   8.256 -0.9131  0.1209  0.3029
  192POPC  H16X22250   2.664   1.217   8.297 -1.3784 -0.9943  0.2589
  192POPC  H16Y22251   2.821   1.266   8.221  0.9696 -2.4350 -3.4479
  192POPC  H16Z22252   2.826   1.149   8.341  0.9839  2.9340 -0.0224
  193SOD    SOD22253   2.944   4.841  11.273 -0.1143 -0.5282 -0.3935
  194SOD    SOD22254   1.052   0.030  11.896  0.0965  0.0754 -0.2297
  195SOD    SOD22255   1.056   0.593   0.942 -0.3850 -0.1985 -0.0262
  196SOD    SOD22256   6.040   1.255  11.469 -0.0171 -0.0341 -0.3727
  197SOD    SOD22257   5.763   3.226   1.534 -0.7065 -0.3456 -0.4022
  198SOD    SOD22258   4.128   2.180  13.371  0.1377 -0.0233 -0.3800
  199SOD    SOD22259   0.816   5.673  11.718  0.2297 -0.1108  0.1108
  200SOD    SOD22260   2.573   0.421   3.410  0.1540 -0.5434 -0.5700
  201SOD    SOD22261   2.670   2.834   6.509  0.5915 -0.0511 -0.2269
  202SOD    SOD22262   3.473   4.033   0.655  0.0931  0.1874  0.3240
  203SOD    SOD22263   1.983   5.260   3.091  0.2717 -0.1070 -0.6435
  204SOD    SOD22264   2.799   5.650  13.394  0.2091 -0.0236  0.6120
  205SOD    SOD22265   1.984   2.856  12.233  0.1626 -0.0869 -0.0172
  206SOD    SOD22266   3.322   1.416  12.852 -0.6965 -0.3373  0.0080
  207SOD    SOD22267   1.292   5.314  16.952  0.3440 -0.2533 -0.0628
  208SOD    SOD22268   1.771   1.418   1.906  0.1638  0.3551 -0.5881
  209SOD    SOD22269   4.325   4.046   4.583  0.0980 -0.0247 -0.0192
  210SOD    SOD22270   2.357   6.508   2.850 -0.4053  0.0894  0.2588
  211SOD    SOD22271   2.447   1.352   5.085 -0.5630 -0.0894 -0.1221
  212SOD    SOD22272   1.702   1.404  14.292  0.1983  0.0380  0.1218
  213SOD    SOD22273   1.261   4.592  14.531  0.0696  0.4487  0.0049
  214SOD    SOD22274   0.099   3.731  13.031 -0.2006  0.1820  0.2272
  215SOD    SOD22275   0.899   1.916   5.163 -0.4663  0.2082  0.2960
  216SOD    SOD22276   4.499   5.621   5.621  0.2413 -0.0744 -0.0249
  217SOD    SOD22277   2.600   1.854   2.471  0.3071  0.1846 -0.0965
  218SOD    SOD22278   1.037   3.271   6.392 -0.0796  0.5662 -0.4109
  219SOD    SOD22279   0.747   1.767   0.594 -0.3529  0.0008 -0.0187
  220SOD    SOD22280   4.130   6.259  11.236 -0.2014  0.0995 -0.5184
  221SOD    SOD22281   3.701   3.604   1.633  0.1507 -0.4604 -0.3685
  222SOD    SOD22282   5.409   6.694  14.141  0.1630 -0.1201 -0.9949
  223SOD    SOD22283   1.730   1.304  13.174 -0.1575 -0.0750 -0.0605
  224SOD    SOD22284   2.145   6.056   1.689  0.1975 -0.1749  0.1270
  225SOD    SOD22285   3.725   1.333   3.323 -0.0321 -0.0964  0.2662
  226SOD    SOD22286   1.269   4.568  13.519 -0.0619 -0.0093 -0.2675
  227SOD    SOD22287   4.618   5.872   0.436 -0.5883  0.2899 -0.3278
  228SOD    SOD22288   6.492   0.645   4.986 -0.1070  0.1810  0.0824
  229SOD    SOD22289   4.520   3.586  16.564 -0.4632  0.4257  0.8615
  230SOD    SOD22290   4.397   5.574  14.858 -0.0217 -0.4629  0.2996
  231SOD    SOD22291   4.418   5.905   6.605 -0.0733 -0.2348 -0.1731
  232SOD    SOD22292   0.034   5.773  15.807  0.0007 -0.0033 -0.0831
  233SOD    SOD22293   4.835   2.963   6.498  0.3628  0.2143  0.1862
  234SOD    SOD22294   4.544   1.223   4.564  0.2343 -0.0541 -0.7499
  235SOD    SOD22295   1.963   4.375  16.225  0.6302 -0.3124  0.2588
  236SOD    SOD22296   5.137   3.164  15.616 -0.7529 -0.1027  0.0503
  237SOD    SOD22297   4.485   3.438   5.605 -0.1598  0.5335  0.5692
  238SOD    SOD22298   0.485   0.311  13.652 -0.0338 -0.3440  0.9389
  239SOD    SOD22299   5.675   1.525  15.501 -0.6270 -0.1885  0.0598
  240SOD    SOD22300   3.678   4.681  11.603 -0.0768  0.3630 -0.6137
  241SOD    SOD22301   2.907   5.783   6.308 -0.0895 -0.2465 -0.1477
  242SOD    SOD22302   4.254   1.284  14.943 -0.3676  0.0270 -0.3068
  243SOD    SOD22303   3.240   4.085  12.941  0.5841  0.1728 -0.2424
  244SOD    SOD22304   3.058   5.102  14.256  0.0182 -0.0439 -0.2432
  245SOD    SOD22305   6.531   2.535   3.584 -0.2525  0.0748  0.1794
  246SOD    SOD22306   3.646   2.356   5.534 -0.2205 -0.1601 -0.2303
  247SOD    SOD22307   6.354   1.499   0.975  0.4301  0.0442 -0.0693
  248SOD    SOD22308   6.056   0.023  11.304 -0.0304 -0.3565 -0.1679
  249SOD    SOD22309   4.628   1.825   1.479  0.0468  0.6315  0.1393
  250SOD    SOD22310   0.507   5.573   4.116  0.2794 -0.1744 -0.6242
  251SOD    SOD22311   1.482   4.005  17.443  0.0119 -0.2157  0.0984
  252SOD    SOD22312   5.550   3.497   5.505  0.5530  0.0813  0.0237
  253SOD    SOD22313   0.948   5.911   6.648 -0.2033  0.2481 -0.4347
  254SOD    SOD22314   4.322   0.527  13.461 -0.0602  0.1904  0.0574
  255SOD    SOD22315   3.178   5.856   2.606 -0.5390 -0.5953 -0.2731
  256SOD    SOD22316   0.151   3.767  16.879  0.2820  0.2884  0.1370
  257SOD    SOD22317   6.373   5.269  11.583  0.0528  0.1522 -0.1981
  258SOD    SOD22318   0.322   5.581  10.834  0.0051  0.2546  0.4344
  259SOD    SOD22319   0.215   2.896  15.714 -0.0891 -0.3677  0.1502
  260SOD    SOD22320   0.564   5.182   1.096 -0.6059 -0.1614 -0.1293
  261SOD    SOD22321   0.704   4.231  12.932 -0.1401 -0.4376  0.2975
  262SOD    SOD22322   5.311   2.490  13.151  0.2822 -0.3300  0.0019
  263SOD    SOD22323   4.336   2.597  11.035  0.0898  0.3158  0.5028
  264SOD    SOD22324   2.842   2.936  12.228 -0.0565  0.3848  0.4605
  265SOD    SOD22325   6.569   5.936  15.340 -0.1395  0.5119 -0.2260
  266SOD    SOD22326   6.463   5.801  13.836  0.1164 -0.0996 -0.6090
  267SOD    SOD22327   6.610   4.386   5.918  0.2623 -0.0153 -0.0054
  268SOD    SOD22328   3.401   4.566   0.014 -0.2509  0.0619  0.1313
  269SOD    SOD22329   5.600   5.750  17.476 -0.1586  0.3104  0.0600
  270CLA    CLA22330   4.401   4.973   3.520 -0.2043  0.3153  0.0411
  271CLA    CLA22331   0.430   2.708   3.456  0.2275 -0.5232  0.3825
  272CLA    CLA22332   5.878   2.557   2.106  0.2752 -0.4898  0.0043
  273CLA    CLA22333   6.452   0.639   0.091  0.1280 -0.1607  0.1883
  274CLA    CLA22334   0.064   6.039  17.010  0.1306 -0.1981  0.0981
  275CLA    CLA22335   3.044   6.520   1.584  0.2283  0.1237 -0.4756
  276CLA    CLA22336   4.553   3.057  16.386  0.6148 -0.0078 -0.1677
  277CLA    CLA22337   3.400   2.694  17.087 -0.3345  0.3024 -0.0968
  278CLA    CLA22338   1.642   6.309  11.796  0.2711  0.2612 -0.5438
  279CLA    CLA22339   1.801   2.454   1.876 -0.1626 -0.1471 -0.1161
  280CLA    CLA22340   2.959   3.849  14.936 -0.0254  0.1113  0.2108
  281CLA    CLA22341   6.272   3.363   2.147 -0.4393  0.2444  0.0644
  282CLA    CLA22342   4.235   1.936  14.751  0.0040 -0.0747  0.0725
  283CLA    CLA22343   6.044   3.331  13.638  0.0780  0.0886 -0.3041
  284CLA    CLA22344   0.992   0.301  15.233 -0.3031 -0.2133 -0.3415
  285CLA    CLA22345   0.697   0.084  16.151  0.0356 -0.0623  0.1853
  286CLA    CLA22346   3.343   5.136  13.828 -0.1946 -0.4168  0.3058
  287CLA    CLA22347   4.145   3.798  14.689 -0.2031 -0.0800 -0.0615
  288CLA    CLA22348   5.631   4.465  14.567 -0.0302 -0.2404 -0.0276
  289CLA    CLA22349   4.577   5.905  17.466 -0.1758 -0.1205 -0.1552
  290CLA    CLA22350   3.805   5.401   3.793  0.1229 -0.2532 -0.1563
  291CLA    CLA22351   6.201   0.172  15.828 -0.1619 -0.3596 -0.1186
  292CLA    CLA22352   2.062   1.315   2.819 -0.0527 -0.5486 -0.1823
  293CLA    CLA22353   2.876   0.173   1.770  0.4434  0.1010 -0.3510
  294CLA    CLA22354   1.790   5.425   3.773 -0.2672 -0.0005 -0.2038
  295CLA    CLA22355   2.557   6.065  13.598 -0.0164 -0.0248 -0.0367
  296CLA    CLA22356   1.491   0.679  13.887  0.2862  0.3347  0.2365
  297CLA    CLA22357   5.606   6.384  16.377  0.4680  0.0161 -0.3783
  298CLA    CLA22358   3.240   4.773  17.425  0.0664  0.3245 -0.7549
  299CLA    CLA22359   5.150   5.989  14.609  0.0518 -0.2552 -0.3951
  300CLA    CLA22360   2.866   4.518  16.205  0.1392 -0.0210  0.1259
  301CLA    CLA22361   5.657   0.768   2.980 -0.1418 -0.0162  0.0813
  302CLA    CLA22362   4.234   2.579   1.886  0.2485 -0.4877 -0.0513
  303CLA    CLA22363   4.083   1.417   4.497  0.1698  0.0408 -0.6071
  304CLA    CLA22364   3.915   0.469  15.338  0.1763  0.0694 -0.1408
  305CLA    CLA22365   1.710   2.127  13.964 -0.0217  0.4255 -0.5857
  306CLA    CLA22366   5.901   0.145   3.293  0.1337 -0.4925  0.5168
  307CLA    CLA22367   2.249   1.535   2.112 -0.2360  0.5522  0.1153
  308CLA    CLA22368   5.128   3.907   4.836 -0.0565  0.0002 -0.1125
  309CLA    CLA22369   0.911   4.893  11.839 -0.1573  0.1862  0.0387
  310CLA    CLA22370   1.321   4.847   2.842 -0.0094 -0.1438  0.3249
  311CLA    CLA22371   5.180   1.571  14.945  0.0025 -0.1761 -0.0133
  312CLA    CLA22372   1.509   1.284  13.652 -0.2390 -0.1070 -0.1451
  313CLA    CLA22373   0.259   1.783   0.213  0.4737  0.2670 -0.2025
  314CLA    CLA22374   5.085   5.414   0.425 -0.1604 -0.2365  0.1384
  315CLA    CLA22375   0.739   5.739  13.717  0.1047  0.0435  0.5489
  316CLA    CLA22376   1.949   3.735   0.843 -0.4175  0.1797  0.3741
  317CLA    CLA22377   2.028   1.391  16.016  0.0809 -0.5631 -0.0756
  318CLA    CLA22378   5.052   2.854  13.222  0.2010 -0.0791  0.0083
  319CLA    CLA22379   4.341   1.109  13.728  0.0143 -0.5902 -0.0840
  320CLA    CLA22380   2.484   3.426  17.360  0.0349  0.1300 -0.0595
  321CLA    CLA22381   6.166   2.265  16.712 -0.1309 -0.1001  0.2329
  322CLA    CLA22382   0.546   6.564  13.190 -0.2764 -0.4621  0.0616
  323TIP3   OH222383   0.132   0.386   6.090 -0.2516  0.3639 -0.0436
  323TIP3    H122384   0.123   0.469   6.137 -0.1198  0.6304 -0.4750
  323TIP3    H222385   0.050   0.340   6.106 -0.7553  1.0216 -0.6321
  324TIP3   OH222386   6.716   2.089   3.208  0.3027 -0.5879  0.0037
  324TIP3    H122387   6.802   2.049   3.214  0.3770 -0.7586 -1.7299
  324TIP3    H222388   6.660   2.035   3.263  0.7810 -2.0393 -0.8944
  325TIP3   OH222389   3.001   2.133   3.086 -0.0542 -0.5368 -0.6994
  325TIP3    H122390   2.987   2.171   3.000 -0.7435 -1.1716 -0.8800
  325TIP3    H222391   3.096   2.133   3.097  0.0954 -1.1826 -1.8058
  326TIP3   OH222392   2.352   6.684   5.510 -0.4524 -0.0051 -0.1636
  326TIP3    H122393   2.446   6.666   5.503 -0.3190 -0.2658  1.7018
  326TIP3    H222394   2.323   6.695   5.420  1.5899  1.2664 -0.7421
  327TIP3   OH222395   0.964   1.097   1.732  0.3899 -0.4171  0.8228
  327TIP3    H122396   0.942   1.181   1.692 -0.0384 -0.4140  1.0640
  327TIP3    H222397   1.058   1.087   1.716  0.2958 -0.2429  0.1486
  328TIP3   OH222398   3.838   0.415   1.617  0.4055 -0.5330  0.2205
  328TIP3    H122399   3.746   0.440   1.612  0.5632 -0.0441 -0.5134
  328TIP3    H222400   3.860   0.416   1.710 -0.5642 -1.5587  0.4816
  329TIP3   OH222401   1.280   2.491  14.339 -0.4316  0.3651  0.5892
  329TIP3    H122402   1.343   2.462  14.405  0.8768  0.8323 -0.4218
  329TIP3    H222403   1.323   2.473  14.255 -0.8296  2.4095 -0.1122
  330TIP3   OH222404   6.544   4.797  12.999  0.8693  0.1574 -0.2899
  330TIP3    H122405   6.593   4.858  13.054  2.6350 -1.7247  0.3517
  330TIP3    H222406   6.455   4.801  13.032  0.5879  3.2920 -1.1214
  331TIP3   OH222407   5.869   2.735   2.391  0.1796  0.5121  0.2893
  331TIP3    H122408   5.788   2.692   2.364  0.1003  0.8897 -0.0802
  331TIP3    H222409   5.925   2.664   2.420  0.9305 -0.1606 -2.4767
  332TIP3   OH222410   0.602   4.958  14.572 -0.5898 -0.2569 -0.3990
  332TIP3    H122411   0.574   5.032  14.518  0.2660 -0.9862 -1.8837
  332TIP3    H222412   0.652   4.998  14.643 -0.0398  0.6095 -1.2454
  333TIP3   OH222413   0.092   4.758  15.231  0.1747  0.6381 -0.3746
  333TIP3    H122414   0.071   4.712  15.312 -2.0715 -1.6820 -2.1394
  333TIP3    H222415   0.174   4.718  15.201 -1.1570 -1.5833 -1.2961
  334TIP3   OH222416   6.707   5.562  15.111 -0.6541 -0.0073 -0.0869
  334TIP3    H122417   6.679   5.475  15.137  0.4715 -0.5786 -0.7178
  334TIP3    H222418   6.684   5.569  15.019  1.6236 -0.6937 -0.7718
  335TIP3   OH222419   0.074   5.993  12.460 -0.5701 -0.0802  0.5180
  335TIP3    H122420   0.120   6.037  12.389 -1.3798  1.2373  0.7843
  335TIP3    H222421   0.063   6.060  12.527  0.5373 -1.4049  2.0908
  336TIP3   OH222422   2.084   6.080   5.869  0.4958 -0.1712 -0.4979
  336TIP3    H122423   2.102   6.174   5.859 -0.8698  0.3889  1.5658
  336TIP3    H222424   2.158   6.036   5.828  1.4304  1.8151 -1.0538
  337TIP3   OH222425   4.931   2.665   5.967  0.7902 -0.5457 -0.3877
  337TIP3    H122426   4.933   2.586   6.022  2.0495 -0.3412 -0.1194
  337TIP3    H222427   4.997   2.649   5.900  0.7378  0.1113 -0.6005
  338TIP3   OH222428   4.198   0.576   5.707 -0.1522 -0.1163  0.2786
  338TIP3    H122429   4.280   0.564   5.659  1.0405  0.6391  2.0448
  338TIP3    H222430   4.133   0.592   5.638  1.4295  0.7474 -1.1071
  339TIP3   OH222431   6.621   0.682  13.863 -0.3122  0.5373  0.1907
  339TIP3    H122432   6.707   0.687  13.821  0.0127  2.6954  0.9611
  339TIP3    H222433   6.573   0.616  13.813  1.9836 -1.1897  0.1542
  340TIP3   OH222434   0.202   3.209   2.811 -0.5467 -0.2454  0.4631
  340TIP3    H122435   0.225   3.294   2.775 -1.0837 -0.5346 -0.6099
  340TIP3    H222436   0.128   3.227   2.870 -1.4878 -0.1154 -0.7236
  341TIP3   OH222437   0.147   6.547  13.716  0.3454 -0.4910 -0.4118
  341TIP3    H122438   0.085   6.580  13.781 -1.3136  0.0176 -2.1353
  341TIP3    H222439   0.179   6.626  13.672  0.1454 -0.8852 -1.2905
  342TIP3   OH222440   4.215   1.659   5.072 -0.1016 -0.2734 -0.2648
  342TIP3    H122441   4.189   1.567   5.066 -1.5004  0.1257 -0.6321
  342TIP3    H222442   4.134   1.708   5.059  0.5906  1.0183  0.1109
  343TIP3   OH222443   5.771   4.222  16.741 -0.2523 -0.3501 -0.0883
  343TIP3    H122444   5.801   4.223  16.831  0.4276  1.6794 -0.2843
  343TIP3    H222445   5.829   4.160  16.697  0.0227 -0.6514  0.6844
  344TIP3   OH222446   0.991   6.141   3.968  0.0963  0.6228 -0.6228
  344TIP3    H122447   0.946   6.064   3.933  1.4167  0.2084 -1.4921
  344TIP3    H222448   1.007   6.196   3.892 -0.3599  1.5178 -0.0816
  345TIP3   OH222449   2.089   0.224  13.799 -0.2869 -0.1297 -0.0238
  345TIP3    H122450   2.182   0.217  13.778 -0.0739  0.7482  0.5587
  345TIP3    H222451   2.044   0.216  13.715  0.2147 -2.0544 -0.1432
  346TIP3   OH222452   4.659   0.259   5.022 -0.0423 -0.3163  0.2226
  346TIP3    H122453   4.690   0.322   4.957 -1.1135  0.9032  0.8470
  346TIP3    H222454   4.738   0.236   5.072  0.8315 -1.4279 -1.5701
  347TIP3   OH222455   2.620   1.563  15.376  0.8672 -0.3728 -0.5317
  347TIP3    H122456   2.636   1.594  15.288  1.3833  1.2008  0.0863
  347TIP3    H222457   2.701   1.520  15.402  1.1573  0.2528 -0.3900
  348TIP3   OH222458   3.089   0.732  14.411  0.1687 -0.4031  0.2877
  348TIP3    H122459   3.060   0.676  14.339  0.2525  0.5928 -0.5419
  348TIP3    H222460   3.182   0.711  14.422 -0.1804 -1.6477  1.1494
  349TIP3   OH222461   0.052   4.123   1.349 -0.0219  0.2151  0.0612
  349TIP3    H122462   0.122   4.184   1.376  0.2187 -0.1401  0.2441
  349TIP3    H222463  -0.018   4.180   1.317 -0.5928  0.6994  2.0308
  350TIP3   OH222464   4.739   6.235   0.211  0.5632  0.2332  0.6962
  350TIP3    H122465   4.772   6.177   0.143  2.4151 -0.2613  1.9239
  350TIP3    H222466   4.764   6.192   0.293 -2.9636  0.0029  1.7868
  351TIP3   OH222467   1.224   1.836   5.919  0.1247 -0.0187 -0.0802
  351TIP3    H122468   1.305   1.796   5.885 -0.1390 -0.3748 -0.2999
  351TIP3    H222469   1.162   1.763   5.921 -0.6347  0.5655 -1.3309
  352TIP3   OH222470   3.029   3.224  14.241  0.1522 -0.3819 -0.2566
  352TIP3    H122471   2.939   3.256  14.245 -1.1418 -3.6352 -0.4392
  352TIP3    H222472   3.059   3.225  14.332  0.3241  1.5165 -0.2860
  353TIP3   OH222473   3.901   5.825   5.792  0.1340 -0.0141  0.6795
  353TIP3    H122474   3.954   5.771   5.850  1.2447  2.6442  2.3331
  353TIP3    H222475   3.815   5.827   5.833 -0.1803 -1.1710  0.1213
  354TIP3   OH222476   1.337   2.223   4.874  0.2975 -0.2332 -0.2277
  354TIP3    H122477   1.342   2.311   4.910  0.8216  0.5195 -2.0233
  354TIP3    H222478   1.386   2.169   4.937  0.3102  0.8164  0.6928
  355TIP3   OH222479   4.234   0.017  15.136 -0.7103 -0.2342  0.1250
  355TIP3    H122480   4.304  -0.035  15.097 -2.4537 -1.9280 -0.8925
  355TIP3    H222481   4.280   0.079  15.193  1.5545 -2.0519  0.4547
  356TIP3   OH222482   1.804   6.043  16.143  0.5582 -0.1094  0.7814
  356TIP3    H122483   1.846   6.090  16.215  0.7957 -0.6881  1.0280
  356TIP3    H222484   1.712   6.038  16.169  0.7847 -1.0662  1.4765
  357TIP3   OH222485   2.738   4.657  14.819  0.6536  0.2957 -0.1815
  357TIP3    H122486   2.661   4.641  14.764  1.0514 -3.0807 -0.0123
  357TIP3    H222487   2.803   4.595  14.786  2.0931  0.6121  1.8853
  358TIP3   OH222488   0.099   5.051   1.175  0.0511 -0.2646  0.0253
  358TIP3    H122489   0.088   5.071   1.268 -0.9865 -0.0219 -0.1344
  358TIP3    H222490   0.021   5.087   1.134 -0.9620 -2.9139 -0.5558
  359TIP3   OH222491   1.812   1.235   5.573  0.4061  0.1606 -0.0021
  359TIP3    H122492   1.806   1.249   5.667  0.9253  0.6778 -0.0404
  359TIP3    H222493   1.792   1.321   5.534 -0.8623 -0.2969 -0.4056
  360TIP3   OH222494   3.233   4.517   0.516  0.0809  0.2521  0.2795
  360TIP3    H122495   3.255   4.430   0.482 -0.3606 -0.1413  0.9700
  360TIP3    H222496   3.154   4.543   0.468 -0.8325 -0.5152  1.3002
  361TIP3   OH222497   4.796   2.685   3.795 -0.1022 -0.3191 -0.3141
  361TIP3    H122498   4.842   2.769   3.796  1.8520 -1.3242  0.0205
  361TIP3    H222499   4.713   2.702   3.839  0.6100  1.2570  0.5024
  362TIP3   OH222500   3.916   5.066   4.367 -0.5384  0.4891  0.1050
  362TIP3    H122501   3.908   5.145   4.313 -0.1042  0.4737  0.0171
  362TIP3    H222502   3.955   5.096   4.449  1.1891  0.1236 -0.5372
  363TIP3   OH222503   1.904   6.300   2.275  0.3283  0.0362 -0.0756
  363TIP3    H122504   1.905   6.395   2.259  0.0915  0.2311  0.9788
  363TIP3    H222505   1.841   6.289   2.346  0.7107 -0.8576  0.1287
  364TIP3   OH222506   4.658   4.424   5.369  0.4251  0.2047 -0.1950
  364TIP3    H122507   4.596   4.353   5.387  0.0099  1.1903  2.8152
  364TIP3    H222508   4.739   4.397   5.413  0.6553  1.0366 -0.0960
  365TIP3   OH222509   0.655   4.916   2.477  0.0700 -0.3749  0.4335
  365TIP3    H122510   0.738   4.963   2.470 -0.7858  0.9754 -1.5988
  365TIP3    H222511   0.606   4.964   2.544 -0.6706  1.5954 -1.3942
  366TIP3   OH222512   6.422   2.743   5.124  0.2603 -0.2907  0.2446
  366TIP3    H122513   6.365   2.681   5.169  1.0428 -0.0988  1.5727
  366TIP3    H222514   6.379   2.828   5.134  0.4061 -0.2568  0.6090
  367TIP3   OH222515   2.579   5.457  17.241  0.0412  0.3694 -0.0622
  367TIP3    H122516   2.653   5.515  17.257  0.3924  0.4905 -1.8840
  367TIP3    H222517   2.502   5.508  17.266  0.5239  0.3499  1.5697
  368TIP3   OH222518   4.876   1.167   5.484  0.4650 -0.1183 -0.2461
  368TIP3    H122519   4.864   1.200   5.395  0.4118  0.1381 -0.1433
  368TIP3    H222520   4.844   1.237   5.541  1.8561  0.3371  0.0192
  369TIP3   OH222521   1.698   1.507  16.944  0.1452  0.6030  0.8965
  369TIP3    H122522   1.620   1.453  16.934  2.2582 -2.1429 -3.7283
  369TIP3    H222523   1.754   1.458  17.004 -0.3860  0.9517  1.6925
  370TIP3   OH222524   0.413   4.199   1.061 -0.1946 -0.1867  0.4030
  370TIP3    H122525   0.426   4.261   0.989 -0.3340  1.3047  1.6028
  370TIP3    H222526   0.496   4.201   1.109 -1.0496  1.1385  1.9466
  371TIP3   OH222527   3.436   4.775  13.010 -0.3299  0.0228 -0.2341
  371TIP3    H122528   3.509   4.836  12.995  0.1095 -0.7447 -1.3733
  371TIP3    H222529   3.358   4.831  13.010  0.1715  0.7436  0.0732
  372TIP3   OH222530   6.241   2.917  16.377  0.0114  0.6335 -0.5699
  372TIP3    H122531   6.265   2.872  16.458  2.9082  1.4231 -0.8950
  372TIP3    H222532   6.159   2.875  16.350 -0.1485 -0.8044  1.8508
  373TIP3   OH222533   0.525   5.693   6.493 -0.0155 -0.4800  0.7860
  373TIP3    H122534   0.476   5.643   6.428 -0.4119  1.0431 -0.1108
  373TIP3    H222535   0.508   5.784   6.473  0.6793  0.0580  2.4122
  374TIP3   OH222536   6.497   4.477  14.345 -0.6354  0.7860 -0.3008
  374TIP3    H122537   6.424   4.427  14.382  0.6726 -1.6848 -0.8373
  374TIP3    H222538   6.536   4.522  14.421 -1.0361 -0.0963  0.4498
  375TIP3   OH222539   2.080   5.983   2.464  0.1713  0.1499  0.0529
  375TIP3    H122540   2.164   5.999   2.507  0.0475  2.0124 -0.2942
  375TIP3    H222541   2.103   5.956   2.375  0.4014 -1.2568  0.5242
  376TIP3   OH222542   2.545   6.066  16.808 -0.3378 -0.1932  0.4806
  376TIP3    H122543   2.627   6.016  16.814  0.6646  0.9624 -2.0052
  376TIP3    H222544   2.571   6.156  16.823 -1.1197  0.1896 -0.3588
  377TIP3   OH222545   4.386   2.576   0.209  0.4544  0.2524  0.6417
  377TIP3    H122546   4.480   2.562   0.193  0.1672 -2.3387  0.7461
  377TIP3    H222547   4.368   2.524   0.288 -1.0695  0.7582  0.6446
  378TIP3   OH222548   5.426   3.090  14.682  0.0798 -0.2448 -0.0965
  378TIP3    H122549   5.438   3.046  14.766  1.6624 -2.0099 -1.1750
  378TIP3    H222550   5.494   3.157  14.680 -0.0129 -0.1442  0.0414
  379TIP3   OH222551   2.150   6.401   0.957 -0.2269 -0.2772 -0.1983
  379TIP3    H122552   2.085   6.458   0.997  0.4315  0.5068 -0.2277
  379TIP3    H222553   2.180   6.449   0.880 -1.3068 -1.6577 -1.5290
  380TIP3   OH222554   3.669   4.350   0.805  0.1555 -0.5661 -0.2636
  380TIP3    H122555   3.589   4.340   0.753  0.2460 -1.7141 -0.2117
  380TIP3    H222556   3.732   4.292   0.762  0.9455  0.2634 -0.2564
  381TIP3   OH222557   0.251   1.961  11.533 -0.3328 -0.2022  0.1969
  381TIP3    H122558   0.175   1.982  11.587 -0.5295 -2.5816  0.9601
  381TIP3    H222559   0.217   1.961  11.444 -0.1864  2.9700  0.0309
  382TIP3   OH222560   6.657   2.453   5.748 -0.5214  0.1985  0.2808
  382TIP3    H122561   6.653   2.454   5.843 -1.9887 -1.1351  0.2726
  382TIP3    H222562   6.714   2.526   5.725 -1.0008  1.1954  2.1305
  383TIP3   OH222563   5.939   5.383   4.396  0.0505  0.0833  0.6909
  383TIP3    H122564   5.925   5.344   4.482  0.0957 -2.3387 -0.3250
  383TIP3    H222565   5.852   5.409   4.367 -0.0739  0.1816  1.1500
  384TIP3   OH222566   2.294   6.387   6.053 -0.0257  0.2152 -0.8352
  384TIP3    H122567   2.320   6.465   6.102 -2.0927  0.0148  0.7561
  384TIP3    H222568   2.363   6.323   6.069  0.8367  1.1645 -0.7230
  385TIP3   OH222569   6.130   2.638  17.311 -0.2028  0.1474 -0.3083
  385TIP3    H122570   6.196   2.585  17.356  1.7557  1.8764 -0.9845
  385TIP3    H222571   6.100   2.583  17.239 -0.7454 -1.2752  0.9396
  386TIP3   OH222572   6.657   4.664   2.336  0.3244  0.0452  0.0900
  386TIP3    H122573   6.578   4.698   2.294  1.0104  2.5557  0.6640
  386TIP3    H222574   6.627   4.631   2.421 -0.1589  0.6753  0.1700
  387TIP3   OH222575   6.631   0.440   0.882  0.2783  0.3119  0.0010
  387TIP3    H122576   6.703   0.458   0.942 -0.8373 -0.2078  1.5611
  387TIP3    H222577   6.646   0.351   0.852  1.5788  1.0242 -1.6354
  388TIP3   OH222578   4.673   4.407  16.090 -0.4460  0.0501 -0.0897
  388TIP3    H122579   4.671   4.501  16.108  0.9980 -0.2574  1.9946
  388TIP3    H222580   4.604   4.371  16.146 -0.1703 -0.2607  0.0479
  389TIP3   OH222581   1.030   4.352  11.853 -0.5011  0.1091 -0.4285
  389TIP3    H122582   0.956   4.292  11.862  0.7964 -1.9376 -2.2829
  389TIP3    H222583   0.991   4.440  11.855 -2.8008 -0.8606 -0.1475
  390TIP3   OH222584   2.658   2.285   2.080 -0.2775 -0.3323  0.3234
  390TIP3    H122585   2.696   2.331   2.005  0.3319 -0.0067  0.8137
  390TIP3    H222586   2.730   2.279   2.143 -0.3889 -1.8441  0.3332
  391TIP3   OH222587   6.309   2.383  17.362 -0.3134 -0.1700  0.0193
  391TIP3    H122588   6.355   2.299  17.366 -1.0085 -0.5982 -0.5962
  391TIP3    H222589   6.379   2.448  17.364  0.1569 -0.6694  2.4031
  392TIP3   OH222590   5.527   1.613   5.918  0.6772 -0.4836  0.3635
  392TIP3    H122591   5.477   1.686   5.883  1.8220  1.1717  1.9946
  392TIP3    H222592   5.462   1.545   5.936 -0.6280  0.6879  0.1880
  393TIP3   OH222593   5.097   1.319  12.697  0.1366 -0.3417 -0.1111
  393TIP3    H122594   5.133   1.348  12.781  0.2077 -1.2392  0.1831
  393TIP3    H222595   5.009   1.289  12.718 -0.5983  1.3024 -0.7262
  394TIP3   OH222596   3.602   4.704   1.996  0.7045 -0.1450  0.4040
  394TIP3    H122597   3.669   4.734   2.057  1.9721 -0.3341 -0.8703
  394TIP3    H222598   3.639   4.625   1.956 -0.4542 -0.5007 -0.0253
  395TIP3   OH222599   3.902   2.508  13.833  0.0629 -0.2011  0.3865
  395TIP3    H122600   3.904   2.470  13.921  1.3899  0.2110  0.5656
  395TIP3    H222601   3.831   2.463  13.789 -0.7470 -0.2967  1.7231
  396TIP3   OH222602   3.427   2.769  16.264  0.6243  0.4398 -0.3071
  396TIP3    H122603   3.425   2.768  16.168 -0.3253 -0.0870 -0.2991
  396TIP3    H222604   3.473   2.689  16.288  0.7970  0.5340 -0.3277
  397TIP3   OH222605   6.402   0.881  14.760 -0.0986  0.0830 -0.3651
  397TIP3    H122606   6.312   0.901  14.732  0.1966  2.3479  0.1493
  397TIP3    H222607   6.449   0.963  14.749  1.3221 -0.3934  1.7113
  398TIP3   OH222608   0.595   4.449   4.620  0.3615  0.3968  0.7083
  398TIP3    H122609   0.537   4.428   4.692  0.5791 -0.6954  0.5872
  398TIP3    H222610   0.643   4.368   4.603  0.8705  0.8545 -0.1496
  399TIP3   OH222611   4.881   5.236  11.767  0.6571  0.0687 -0.9650
  399TIP3    H122612   4.876   5.216  11.860  0.4217 -0.0310 -0.9965
  399TIP3    H222613   4.818   5.176  11.727  2.5977 -1.7030 -1.4973
  400TIP3   OH222614   1.853   1.398   1.668 -0.0828  0.2371  0.3919
  400TIP3    H122615   1.943   1.419   1.646 -0.2178  1.5986  1.0815
  400TIP3    H222616   1.812   1.377   1.584  1.0878 -1.3685  0.1762
  401TIP3   OH222617   0.909   4.058  17.192  0.2781 -0.3677  0.0719
  401TIP3    H122618   0.953   4.018  17.117  1.7930  0.8595  0.2525
  401TIP3    H222619   0.819   4.071  17.163  0.5212 -1.0989 -1.0672
  402TIP3   OH222620   1.093   0.677  16.607  0.8424 -0.2240 -0.5213
  402TIP3    H122621   1.137   0.701  16.526 -1.8481  3.0032 -1.2457
  402TIP3    H222622   1.024   0.616  16.581 -0.0043  0.7909 -0.7085
  403TIP3   OH222623   1.779   3.463   4.622  0.2002  0.0730 -0.7318
  403TIP3    H122624   1.865   3.452   4.580 -1.3359 -3.3063 -3.4588
  403TIP3    H222625   1.726   3.508   4.556 -1.0472 -1.1760 -0.6333
  404TIP3   OH222626   5.020   4.341   0.303 -0.2909  0.0166  1.0604
  404TIP3    H122627   4.956   4.369   0.238 -0.1574  0.6464  1.1987
  404TIP3    H222628   4.980   4.359   0.387 -0.1549 -0.0998  1.1517
  405TIP3   OH222629   5.724   2.882  15.150  0.0760 -0.4378  0.3331
  405TIP3    H122630   5.690   2.965  15.115 -0.8748 -0.5619  0.9239
  405TIP3    H222631   5.817   2.899  15.168 -0.0623  0.4325  0.2475
  406TIP3   OH222632   1.268   1.630  11.230 -0.1153  0.7507  0.1154
  406TIP3    H122633   1.305   1.678  11.156  1.6732 -2.4547 -1.2611
  406TIP3    H222634   1.228   1.552  11.190 -0.9976 -0.0236  2.3678
  407TIP3   OH222635   6.598   4.074   5.494  0.2757  0.2696 -0.1251
  407TIP3    H122636   6.567   3.986   5.471 -1.5915  1.3695 -2.2899
  407TIP3    H222637   6.633   4.065   5.582 -2.9366 -2.0155  1.1219
  408TIP3   OH222638   0.302   0.653  12.000 -0.1747  0.0353  0.3479
  408TIP3    H122639   0.348   0.735  12.018  1.2075 -0.7351  0.4538
  408TIP3    H222640   0.286   0.654  11.905  1.0858 -0.1732  0.1138
  409TIP3   OH222641   0.952   4.844  12.578 -0.6122 -0.2894 -0.7218
  409TIP3    H122642   1.038   4.882  12.560  0.8513 -1.7288  2.4115
  409TIP3    H222643   0.892   4.918  12.575  1.1233  1.1853 -0.8251
  410TIP3   OH222644   2.424   4.747   2.899 -0.4891  0.1777 -0.2177
  410TIP3    H122645   2.413   4.654   2.921 -0.3148 -0.3333 -2.1194
  410TIP3    H222646   2.347   4.768   2.846  0.4614  0.5113 -1.5286
  411TIP3   OH222647   6.585   5.527   3.236  0.2336  0.4903 -0.4923
  411TIP3    H122648   6.577   5.460   3.168 -1.5931  0.8371 -0.6993
  411TIP3    H222649   6.660   5.580   3.209  2.0777 -1.7285 -0.0168
  412TIP3   OH222650   1.140   5.281   0.520  0.1087  0.0670  0.5490
  412TIP3    H122651   1.209   5.258   0.458  1.6415  0.2758  2.1210
  412TIP3    H222652   1.090   5.200   0.531 -1.3015  0.4320 -2.1941
  413TIP3   OH222653   6.196   6.278  12.483  0.8428 -0.3505 -0.5783
  413TIP3    H122654   6.218   6.365  12.452  0.1068  1.1697  2.6977
  413TIP3    H222655   6.251   6.266  12.561  0.2135 -2.3779 -0.3843
  414TIP3   OH222656   5.932   1.225   4.911  0.0542  1.3945 -0.1941
  414TIP3    H122657   6.023   1.219   4.881 -0.5947 -1.0416 -1.9580
  414TIP3    H222658   5.930   1.169   4.989 -0.0911  0.8660 -0.5781
  415TIP3   OH222659   2.411   4.888   0.719 -0.4693 -0.6539  0.2092
  415TIP3    H122660   2.474   4.935   0.773  0.0140 -0.5697 -0.4138
  415TIP3    H222661   2.443   4.798   0.716  0.4401 -0.3198 -1.2619
  416TIP3   OH222662   4.692   4.840  14.318 -0.6678  0.0791  0.0076
  416TIP3    H122663   4.643   4.760  14.301  0.0430 -0.0632 -1.5942
  416TIP3    H222664   4.759   4.842  14.250 -2.5883  3.6347 -2.1096
  417TIP3   OH222665   1.524   0.280   0.712  0.0140  0.5452 -0.1329
  417TIP3    H122666   1.572   0.204   0.744  1.0202  1.0183 -0.4424
  417TIP3    H222667   1.475   0.248   0.637  0.9750  0.3337 -0.6912
  418TIP3   OH222668   1.048   5.336   1.604 -0.0691  0.0992  0.1040
  418TIP3    H122669   1.124   5.370   1.651 -0.5583  1.6742 -0.1816
  418TIP3    H222670   0.984   5.319   1.674 -0.1029  0.5591  0.1908
  419TIP3   OH222671   1.653   3.660  14.514 -0.7127 -0.0953  0.1956
  419TIP3    H122672   1.559   3.677  14.516 -0.6961  0.1634  3.1254
  419TIP3    H222673   1.669   3.602  14.588  1.4990  0.2988  0.1049
  420TIP3   OH222674   2.003   2.320   1.596  0.0823 -0.5621  0.0849
  420TIP3    H122675   2.064   2.296   1.666 -0.4144 -0.4741  0.5490
  420TIP3    H222676   1.976   2.409   1.618  0.3429 -0.3306 -0.5167
  421TIP3   OH222677   3.335   5.793  14.645 -0.0492  0.4981  0.1666
  421TIP3    H122678   3.400   5.815  14.578  1.4408  0.3626  1.4907
  421TIP3    H222679   3.270   5.863  14.641 -0.7856 -0.2300 -2.3172
  422TIP3   OH222680   0.593   6.135  16.740  0.4071  0.0254 -0.0534
  422TIP3    H122681   0.515   6.157  16.791  1.2624 -0.4159  1.5204
  422TIP3    H222682   0.599   6.205  16.675  0.3173  1.7407  1.6643
  423TIP3   OH222683   4.298   0.007  13.975 -0.2976 -0.0359  1.1818
  423TIP3    H122684   4.362   0.027  13.906 -1.3204 -0.7740 -0.0222
  423TIP3    H222685   4.244   0.085  13.981 -1.6406 -0.7442 -0.5361
  424TIP3   OH222686   0.129   3.272  17.042 -0.3907  0.1415 -0.6321
  424TIP3    H122687   0.208   3.221  17.025 -0.0717 -0.0745  1.2426
  424TIP3    H222688   0.149   3.320  17.123 -0.7221  3.1858 -2.2372
  425TIP3   OH222689   5.165   6.492   2.048 -0.0334  0.0574  0.2149
  425TIP3    H122690   5.088   6.547   2.037 -0.9773 -1.3443 -0.4803
  425TIP3    H222691   5.239   6.552   2.038 -1.0254  1.3458  0.4236
  426TIP3   OH222692   2.518   5.647   1.718 -0.0565 -0.2757  0.3297
  426TIP3    H122693   2.533   5.553   1.728 -0.6997 -0.3667  0.5247
  426TIP3    H222694   2.572   5.673   1.643  2.0756 -0.2992  1.7893
  427TIP3   OH222695   4.877   1.902  13.105 -0.0472  0.0657  0.8839
  427TIP3    H122696   4.938   1.897  13.178  0.9454 -3.5115  0.0139
  427TIP3    H222697   4.838   1.814  13.101 -0.0238  0.0747 -2.8326
  428TIP3   OH222698   3.322   1.067   6.341 -0.0299  0.0705 -0.6067
  428TIP3    H122699   3.399   1.122   6.352  0.1469 -0.3004  0.0279
  428TIP3    H222700   3.248   1.128   6.346  0.0249  0.0041  2.4481
  429TIP3   OH222701   5.339   3.017   0.381  0.0889 -0.4358  0.0474
  429TIP3    H122702   5.316   3.033   0.473  0.9866 -1.3815  0.4519
  429TIP3    H222703   5.263   2.972   0.345 -0.8081  1.0925 -0.0423
  430TIP3   OH222704   1.283   5.815   5.753 -0.6537  0.7480 -0.4733
  430TIP3    H122705   1.350   5.844   5.815  0.8857  1.2589 -2.2545
  430TIP3    H222706   1.238   5.743   5.798 -0.3020  1.7342  1.5826
  431TIP3   OH222707   3.537   1.729  16.441  0.0646  0.2917 -0.1557
  431TIP3    H122708   3.557   1.668  16.370 -0.7050 -1.0016  0.6990
  431TIP3    H222709   3.586   1.809  16.419  0.2131 -0.2459 -1.8682
  432TIP3   OH222710   2.284   4.074  15.506 -0.1795  0.2261 -0.2186
  432TIP3    H122711   2.377   4.083  15.525  0.1016 -1.5235 -0.5685
  432TIP3    H222712   2.246   4.043  15.589 -0.2432 -0.1762 -0.3957
  433TIP3   OH222713   0.183   0.360   4.949  0.0095 -0.7086 -0.6240
  433TIP3    H122714   0.237   0.290   4.985  0.4941 -0.2479 -0.4518
  433TIP3    H222715   0.242   0.435   4.941 -1.1340  0.6144  1.9570
  434TIP3   OH222716   0.564   6.011  10.843  0.4651  0.6462 -0.0098
  434TIP3    H122717   0.604   6.082  10.893  0.1845 -0.0200  1.1837
  434TIP3    H222718   0.504   5.968  10.904 -0.7797  0.5229 -1.2439
  435TIP3   OH222719   3.193   5.903  11.446  0.1606 -0.0451 -0.1405
  435TIP3    H122720   3.241   5.911  11.528  2.1516  0.2638 -1.2849
  435TIP3    H222721   3.259   5.913  11.378 -1.7033  1.5304 -1.8381
  436TIP3   OH222722   2.656   1.646  11.403  0.0714  0.0499  0.2087
  436TIP3    H122723   2.647   1.712  11.334 -0.8524  1.2427  1.4036
  436TIP3    H222724   2.749   1.646  11.424  0.1322  0.7683 -0.0259
  437TIP3   OH222725   5.481   5.403  17.068  0.4542  0.4182  0.1543
  437TIP3    H122726   5.572   5.429  17.082  0.3563  0.7273  0.2291
  437TIP3    H222727   5.480   5.362  16.982  1.4647 -3.2764  1.7329
  438TIP3   OH222728   4.235   3.310  11.429  0.3576  0.0086  0.3182
  438TIP3    H122729   4.202   3.395  11.455  0.8943  0.5204 -0.6162
  438TIP3    H222730   4.169   3.248  11.459  2.0714  0.1685  5.3765
  439TIP3   OH222731   5.666   4.185   6.012  0.2777  0.2966  0.3646
  439TIP3    H122732   5.573   4.171   6.024  0.2871 -0.1687 -0.1191
  439TIP3    H222733   5.677   4.280   6.021 -0.1156  0.2757  1.2284
  440TIP3   OH222734   4.427   6.004  10.827 -0.0892  0.7958 -0.0888
  440TIP3    H122735   4.510   6.013  10.874 -0.2781  0.3017  0.3579
  440TIP3    H222736   4.420   5.910  10.808 -0.9057  0.7058  0.5808
  441TIP3   OH222737   5.555   3.053  15.331  0.3896  0.2333 -0.4460
  441TIP3    H122738   5.538   3.064  15.237 -0.6602 -1.1053 -0.4469
  441TIP3    H222739   5.626   2.988  15.335  0.1543 -0.0187 -0.3203
  442TIP3   OH222740   3.139   4.676  11.286  0.2582  0.3321 -0.3346
  442TIP3    H122741   3.222   4.710  11.319  0.2377  0.7283 -0.6875
  442TIP3    H222742   3.162   4.629  11.206 -0.1190  2.3244 -1.6682
  443TIP3   OH222743   0.487   5.384   3.930 -0.5917  0.0224  0.2488
  443TIP3    H122744   0.405   5.340   3.907 -0.6531 -0.7109  1.7361
  443TIP3    H222745   0.513   5.429   3.850 -2.3236  0.0828 -0.3321
  444TIP3   OH222746   2.949   2.223   5.715 -0.3319  0.0940 -0.2167
  444TIP3    H122747   2.978   2.311   5.739  2.2690 -1.1367  1.5703
  444TIP3    H222748   2.855   2.223   5.736  0.2972  1.4104  3.1748
  445TIP3   OH222749   5.828   5.459  12.159  0.3793 -0.6342  0.1889
  445TIP3    H122750   5.827   5.385  12.098  0.3141 -0.4834  0.0057
  445TIP3    H222751   5.913   5.454  12.202  0.5156 -0.6094 -0.0785
  446TIP3   OH222752   2.368   3.805  12.130 -0.1331  0.5120 -0.2960
  446TIP3    H122753   2.414   3.864  12.070 -1.7299 -1.0710 -3.2965
  446TIP3    H222754   2.393   3.718  12.101 -1.4923 -0.3428  0.9684
  447TIP3   OH222755   6.710   0.873  16.845  0.1908  0.1227  0.3350
  447TIP3    H122756   6.790   0.867  16.793 -0.1907 -0.6426 -0.1808
  447TIP3    H222757   6.715   0.959  16.887  0.9044  0.4075 -0.3106
  448TIP3   OH222758   1.083   6.497   3.133  0.1039  0.0629 -0.3008
  448TIP3    H122759   1.077   6.461   3.222  0.1403 -1.9578 -1.0669
  448TIP3    H222760   1.028   6.440   3.080  1.1689  0.3791 -1.8287
  449TIP3   OH222761   4.211   0.890   0.281 -0.4779 -0.2220 -0.4323
  449TIP3    H122762   4.244   0.801   0.274 -1.4078 -0.4722 -2.4136
  449TIP3    H222763   4.255   0.938   0.212 -1.1943  0.4401 -0.4508
  450TIP3   OH222764   2.619   4.144  10.881 -0.9630 -0.5087  0.2684
  450TIP3    H122765   2.561   4.122  10.954 -0.6482  0.2218  0.7467
  450TIP3    H222766   2.571   4.211  10.833 -0.4693  0.1998  0.7444
  451TIP3   OH222767   5.130   5.773  14.828 -0.1280 -0.6089  0.1048
  451TIP3    H122768   5.148   5.840  14.895  0.7126 -0.4914 -0.2349
  451TIP3    H222769   5.138   5.820  14.745 -1.5096 -0.6750 -0.0898
  452TIP3   OH222770   4.933   5.559   4.996 -0.6330  0.0373 -0.3172
  452TIP3    H122771   4.998   5.545   4.927  0.8604  1.4855  0.6925
  452TIP3    H222772   4.861   5.605   4.953  0.4462  1.2711 -0.8728
  453TIP3   OH222773   2.650   4.762   5.558 -0.6019 -0.5298 -0.3553
  453TIP3    H122774   2.733   4.767   5.510 -0.3249  1.2863  0.2363
  453TIP3    H222775   2.606   4.687   5.520 -0.1933  0.5152 -3.1901
  454TIP3   OH222776   2.577   2.995  14.402  0.6113  0.3518  0.5396
  454TIP3    H122777   2.481   2.992  14.400  0.6045 -0.5118  1.3107
  454TIP3    H222778   2.603   2.903  14.412  1.4566  0.7284  2.1144
  455TIP3   OH222779   6.124   4.594  14.906  0.3723  0.1650 -0.3997
  455TIP3    H122780   6.074   4.591  14.824  0.5056 -3.4175 -0.5289
  455TIP3    H222781   6.061   4.570  14.974  1.0479 -0.7130 -0.0487
  456TIP3   OH222782   3.117   5.841   4.929 -0.0036 -0.2114 -0.1159
  456TIP3    H122783   3.027   5.838   4.961  0.9599 -1.7896  2.8382
  456TIP3    H222784   3.121   5.919   4.875 -2.9713  0.2439  0.1515
  457TIP3   OH222785   3.088   5.797   6.046 -0.7049 -0.0469  0.5743
  457TIP3    H122786   3.136   5.722   6.012 -1.1508  0.0144 -0.2320
  457TIP3    H222787   3.155   5.858   6.075 -0.3282 -0.5030  0.6754
  458TIP3   OH222788   5.419   1.969  16.112  0.0647 -0.1556  0.0948
  458TIP3    H122789   5.473   2.047  16.128  0.1819 -0.3206  0.5131
  458TIP3    H222790   5.405   1.969  16.017 -0.8707  0.9961  0.2063
  459TIP3   OH222791   1.140   2.144  14.509  0.0155  0.0908 -0.2319
  459TIP3    H122792   1.156   2.062  14.554 -0.2134 -0.4791 -1.1708
  459TIP3    H222793   1.081   2.122  14.437 -0.0518  1.0712 -0.5035
  460TIP3   OH222794   6.500   1.415   6.093  0.5442 -0.5346 -0.0107
  460TIP3    H122795   6.510   1.510   6.087  1.2908 -0.3772  2.5414
  460TIP3    H222796   6.500   1.385   6.003 -0.0571  1.9110 -0.9052
  461TIP3   OH222797   2.819   5.833  14.458  0.2662 -0.0176  0.1381
  461TIP3    H122798   2.788   5.809  14.545  2.6080 -2.1514  0.5052
  461TIP3    H222799   2.760   5.789  14.397 -0.2870 -0.0373  0.6851
  462TIP3   OH222800   3.649   6.542   5.138 -0.0780 -0.2954  0.3814
  462TIP3    H122801   3.606   6.528   5.054 -1.6634  1.6820  0.7960
  462TIP3    H222802   3.733   6.582   5.116 -0.6469  0.5763 -0.2620
  463TIP3   OH222803   0.768   1.625  15.967 -0.3546 -0.3221  0.1714
  463TIP3    H122804   0.714   1.704  15.970 -1.3104 -0.9155 -0.5268
  463TIP3    H222805   0.800   1.622  15.877  2.4126  0.9865  1.0092
  464TIP3   OH222806   4.131   5.376  16.922 -0.0407  0.1889 -0.1607
  464TIP3    H122807   4.151   5.367  17.015 -0.2385  1.8441  0.0641
  464TIP3    H222808   4.046   5.331  16.911  1.3156 -2.5875 -0.1838
  465TIP3   OH222809   3.922   3.111  14.077 -0.1851  0.1593 -0.0518
  465TIP3    H122810   3.932   3.159  13.995 -2.0572 -0.3694 -0.6365
  465TIP3    H222811   3.996   3.050  14.078  1.1001  1.6651 -0.2535
  466TIP3   OH222812   4.634   3.244   1.519  0.3458 -0.5650  0.2216
  466TIP3    H122813   4.582   3.261   1.441 -0.7371 -0.5917  0.9260
  466TIP3    H222814   4.717   3.289   1.502  0.1588 -0.6263 -0.9635
  467TIP3   OH222815   6.703   5.069  11.062  0.5052  0.0541 -0.2107
  467TIP3    H122816   6.798   5.076  11.053  0.4923  0.2322 -0.2075
  467TIP3    H222817   6.668   5.117  10.987  0.3987  1.4973  0.7208
  468TIP3   OH222818   4.125   6.312  12.302  0.2220  0.0360 -1.1947
  468TIP3    H122819   4.145   6.389  12.248  0.9464  1.5439  1.0811
  468TIP3    H222820   4.203   6.298  12.354 -0.6243 -1.0550 -0.1701
  469TIP3   OH222821   6.475   5.608  17.161 -0.2076  0.2955 -0.2978
  469TIP3    H122822   6.530   5.589  17.237 -0.6530  0.7427  0.1422
  469TIP3    H222823   6.408   5.539  17.162 -0.2694  0.3565 -0.2290
  470TIP3   OH222824   1.002   4.989   5.512  0.4531  0.3857 -0.2310
  470TIP3    H122825   0.933   4.951   5.457  0.7130  1.1956 -1.1407
  470TIP3    H222826   1.069   4.920   5.517  0.9391  0.6869 -1.8981
  471TIP3   OH222827   0.708   4.645  12.130 -0.1278 -1.2662  0.4249
  471TIP3    H122828   0.766   4.606  12.196 -0.2446  0.1564  1.3978
  471TIP3    H222829   0.763   4.707  12.082 -0.4333 -1.1590  0.2080
  472TIP3   OH222830   4.879   2.926   6.020 -0.3330  0.3257  0.6292
  472TIP3    H122831   4.874   2.832   6.003 -0.8717  0.3435  0.6539
  472TIP3    H222832   4.968   2.950   5.996 -0.4134 -0.0580 -0.0852
  473TIP3   OH222833   5.603   3.086   3.898  0.2102 -0.4084  0.3377
  473TIP3    H122834   5.645   3.108   3.981 -0.0635  1.3573  0.0321
  473TIP3    H222835   5.524   3.038   3.923  0.3697 -0.2917  1.0796
  474TIP3   OH222836   5.034   0.827  13.051  0.3474 -0.3111 -0.0380
  474TIP3    H122837   5.101   0.822  13.119  0.1560 -1.5864  0.0740
  474TIP3    H222838   5.082   0.853  12.972  1.0722 -1.5925 -0.0486
  475TIP3   OH222839   5.275   3.169   2.901 -0.1169 -0.0005 -0.0254
  475TIP3    H122840   5.246   3.249   2.856 -0.6835 -0.1130  0.1372
  475TIP3    H222841   5.324   3.121   2.834  0.8879  0.8325  0.0866
  476TIP3   OH222842   5.464   1.438  15.423 -0.6191 -0.4862  0.4644
  476TIP3    H122843   5.421   1.383  15.488 -1.0200 -1.1121 -0.3198
  476TIP3    H222844   5.392   1.477  15.373 -0.3222 -2.4230 -1.6000
  477TIP3   OH222845   1.294   4.670  12.748 -0.0638 -0.1673  0.0497
  477TIP3    H122846   1.253   4.735  12.805 -1.9861 -0.2902 -1.0755
  477TIP3    H222847   1.221   4.635  12.696  1.2248 -1.7837 -0.7822
  478TIP3   OH222848   4.614   1.869   6.180  0.6495  0.1603 -0.0875
  478TIP3    H122849   4.542   1.806   6.181  2.1822 -1.6861  1.7425
  478TIP3    H222850   4.692   1.815   6.168  2.0815  1.5951  2.1162
  479TIP3   OH222851   3.771   3.313  14.410  1.0382 -0.1603 -0.0627
  479TIP3    H122852   3.691   3.334  14.458  0.3568 -1.0168 -0.8145
  479TIP3    H222853   3.797   3.396  14.369 -0.1269 -0.1430 -0.7921
  480TIP3   OH222854   5.406   3.450  10.656  0.1939  0.0688  0.2259
  480TIP3    H122855   5.476   3.387  10.674 -0.4046  0.1638  3.7368
  480TIP3    H222856   5.448   3.535  10.667  0.2605  0.2536 -1.2544
  481TIP3   OH222857   4.711   6.683   2.971  0.5664 -0.1772  0.2875
  481TIP3    H122858   4.748   6.596   2.956  0.2413 -0.3151  0.2638
  481TIP3    H222859   4.666   6.704   2.889  0.3747 -0.1258  0.4046
  482TIP3   OH222860   5.633   2.810  12.637 -0.2115  0.7694  0.3880
  482TIP3    H122861   5.676   2.878  12.690 -0.5821  0.7311  0.7405
  482TIP3    H222862   5.540   2.827  12.648 -0.2940  1.0260 -0.5952
  483TIP3   OH222863   3.778   0.382  12.173  0.2841 -0.0341 -0.0254
  483TIP3    H122864   3.711   0.373  12.240  1.7577 -1.0280  1.4037
  483TIP3    H222865   3.809   0.472  12.182  1.0486 -0.3861  1.2869
  484TIP3   OH222866   6.659   4.191   3.982  0.3120 -0.0196  0.3436
  484TIP3    H122867   6.660   4.219   4.074  0.3135 -0.2658  0.4195
  484TIP3    H222868   6.567   4.185   3.960  0.3084  1.0663  0.0098
  485TIP3   OH222869   5.088   5.463   4.776  0.1829 -0.5331 -0.1517
  485TIP3    H122870   5.053   5.400   4.713  0.9533  0.0709 -1.2303
  485TIP3    H222871   5.182   5.443   4.780  0.2110 -0.2809  0.4589
  486TIP3   OH222872   6.089   5.509  11.812 -0.3706 -0.4068  0.7654
  486TIP3    H122873   6.138   5.554  11.743 -0.5059 -1.8559 -0.3415
  486TIP3    H222874   6.098   5.565  11.889  0.4600  0.8694 -0.2180
  487TIP3   OH222875   3.553   3.367  11.304  0.1757 -0.0055  0.0488
  487TIP3    H122876   3.512   3.403  11.226  0.5285  1.4495  0.4996
  487TIP3    H222877   3.647   3.365  11.283  0.2726  0.3992  0.4318
  488TIP3   OH222878   1.019   4.332   0.501 -0.1350 -0.1885 -0.6452
  488TIP3    H122879   1.019   4.363   0.591  0.4513 -2.5047  0.2015
  488TIP3    H222880   0.927   4.331   0.476 -0.2307  1.5566 -0.5393
  489TIP3   OH222881   0.436   3.864  14.828  0.5227  0.0218 -0.5195
  489TIP3    H122882   0.441   3.799  14.758  2.5464  0.3109 -0.7197
  489TIP3    H222883   0.527   3.875  14.857  0.0993  1.9092  0.2822
  490TIP3   OH222884   5.892   4.368  12.202  0.4955  0.1413 -0.0796
  490TIP3    H122885   5.845   4.382  12.119  1.9342  0.2362 -0.9027
  490TIP3    H222886   5.967   4.427  12.197  1.3330 -0.8189  0.6962
  491TIP3   OH222887   2.275   2.713  12.909  0.5164  0.2003 -0.1844
  491TIP3    H122888   2.354   2.675  12.949  0.3841  0.7140  0.5923
  491TIP3    H222889   2.290   2.705  12.815  0.3026 -2.1379 -0.0702
  492TIP3   OH222890   2.814   3.971  15.656  0.4620  0.0630  0.3988
  492TIP3    H122891   2.846   4.016  15.735  1.0509  0.3040  0.0330
  492TIP3    H222892   2.868   3.892  15.651 -1.7670 -1.7036  2.0581
  493TIP3   OH222893   4.978   5.955  16.969 -0.3038 -0.5206  0.0069
  493TIP3    H122894   5.020   5.879  16.929  1.7268  0.7883 -0.5196
  493TIP3    H222895   5.018   5.963  17.055  0.3919  0.6114 -0.4002
  494TIP3   OH222896   2.672   1.027  15.793 -0.1579 -0.2418 -0.1709
  494TIP3    H122897   2.686   1.121  15.787 -0.7048 -0.1720 -0.3451
  494TIP3    H222898   2.578   1.015  15.787 -0.0714 -0.8265 -0.5402
  495TIP3   OH222899   5.961   3.443  16.794 -0.1325 -0.5562 -0.5619
  495TIP3    H122900   5.939   3.388  16.719 -1.8310  2.2793 -2.3683
  495TIP3    H222901   5.885   3.500  16.805  1.7201  1.9218  0.6121
  496TIP3   OH222902   1.478   3.503   4.999  0.4549 -0.1444  0.1150
  496TIP3    H122903   1.519   3.442   4.937  1.7585 -0.6038  1.3753
  496TIP3    H222904   1.534   3.500   5.076 -1.1263  0.4075  1.3388
  497TIP3   OH222905   0.394   3.908   4.753 -0.0011  0.4368  0.4588
  497TIP3    H122906   0.434   3.830   4.793  0.5234 -0.0882 -0.9954
  497TIP3    H222907   0.465   3.946   4.701 -0.7401  0.8742 -0.2426
  498TIP3   OH222908   4.356   3.975   5.059  0.5514 -0.2094  0.5573
  498TIP3    H122909   4.296   3.951   4.989  1.2468 -0.2368 -0.0457
  498TIP3    H222910   4.300   4.010   5.128 -0.3706 -2.1389  0.8739
  499TIP3   OH222911   2.363   2.164  13.787 -0.2917  0.0139  0.3749
  499TIP3    H122912   2.401   2.187  13.703  1.3369 -1.6410  0.6138
  499TIP3    H222913   2.269   2.155  13.769  0.1494 -1.3769 -1.5408
  500TIP3   OH222914   3.713   0.158   2.150 -0.1782 -0.0648 -0.4248
  500TIP3    H122915   3.743   0.186   2.063  1.0555  1.8184  0.5206
  500TIP3    H222916   3.773   0.202   2.211 -1.5451 -0.6182  1.4081
  501TIP3   OH222917   5.132   2.586  12.296 -0.1401 -0.0001 -0.3098
  501TIP3    H122918   5.096   2.503  12.266  0.3550 -0.4708  0.3764
  501TIP3    H222919   5.089   2.652  12.242 -0.2195 -0.7339 -1.1605
  502TIP3   OH222920   0.401   0.536  12.517  0.2993 -0.4529  0.0601
  502TIP3    H122921   0.459   0.568  12.448  1.7703 -1.8455  0.5799
  502TIP3    H222922   0.376   0.448  12.487  0.9159 -1.0548  1.2481
  503TIP3   OH222923   4.257   3.081  12.157  0.4801  0.2344  0.0523
  503TIP3    H122924   4.231   3.034  12.236 -0.2436 -0.6651 -0.6828
  503TIP3    H222925   4.174   3.097  12.111  0.8392  1.1997 -0.2698
  504TIP3   OH222926   3.222   6.661  17.114  0.2481  0.1387  0.6305
  504TIP3    H122927   3.216   6.709  17.197 -1.8114 -0.7798  1.0727
  504TIP3    H222928   3.195   6.725  17.048 -1.8052 -0.1316  1.1426
  505TIP3   OH222929   2.360   4.984   4.504 -0.2256 -0.5090 -0.0545
  505TIP3    H122930   2.408   5.008   4.425 -1.7902  0.0786 -0.8736
  505TIP3    H222931   2.268   4.989   4.478 -0.7815 -0.2368  1.8326
  506TIP3   OH222932   0.106   2.739  16.570  0.2246  0.1309 -0.3165
  506TIP3    H122933   0.061   2.691  16.640 -0.7143  0.2224 -0.8362
  506TIP3    H222934   0.085   2.690  16.491 -1.0626  1.5714 -0.9171
  507TIP3   OH222935   5.766   5.486  17.106  0.1335 -0.1315 -0.2441
  507TIP3    H122936   5.826   5.532  17.165  0.1234 -0.4958  0.0559
  507TIP3    H222937   5.814   5.408  17.078 -0.4156 -0.7508  0.4902
  508TIP3   OH222938   6.291   3.771  12.722  0.1064 -0.1021 -0.2106
  508TIP3    H122939   6.229   3.798  12.654  0.0529 -1.6724 -0.8186
  508TIP3    H222940   6.294   3.676  12.716  0.5759 -0.2363  1.5967
  509TIP3   OH222941   0.341   3.618   4.033 -0.4746 -0.7484 -0.2267
  509TIP3    H122942   0.379   3.553   4.092 -0.5387  0.2062  0.8966
  509TIP3    H222943   0.322   3.693   4.089  1.5754  1.0806 -1.8177
  510TIP3   OH222944   3.970   4.817  12.765  0.5178  0.0766  0.5922
  510TIP3    H122945   3.990   4.761  12.841 -0.5740 -0.7246  0.3233
  510TIP3    H222946   3.898   4.771  12.721  0.7570  0.8306 -0.6090
  511TIP3   OH222947   5.726   1.858  17.309 -0.5536  0.2320 -0.4115
  511TIP3    H122948   5.680   1.942  17.306  1.4987  1.4206 -0.3429
  511TIP3    H222949   5.745   1.839  17.217  0.1912  0.5643 -0.3319
  512TIP3   OH222950   0.946   3.659   6.010 -0.6387 -0.2107 -0.1456
  512TIP3    H122951   0.996   3.639   5.931 -0.4310 -0.6713  0.1004
  512TIP3    H222952   0.854   3.651   5.983 -0.5645 -0.7547 -0.2464
  513TIP3   OH222953   5.868   6.230  14.576 -0.0046 -0.4498  0.3065
  513TIP3    H122954   5.935   6.174  14.537 -0.4019 -0.0971 -0.9270
  513TIP3    H222955   5.895   6.239  14.668  1.0764 -1.1278  0.0765
  514TIP3   OH222956   4.988   4.256  14.463  0.0951 -0.5804 -0.1241
  514TIP3    H122957   4.977   4.351  14.459 -0.7986 -0.7167 -2.3155
  514TIP3    H222958   4.983   4.227  14.372 -1.0017 -2.8748  0.5777
  515TIP3   OH222959   6.273   5.968  11.031 -0.2854  0.8263 -0.5160
  515TIP3    H122960   6.275   5.877  11.001  0.1227  0.3849  0.7870
  515TIP3    H222961   6.330   6.015  10.970 -0.0325  0.0906 -0.8502
  516TIP3   OH222962   5.036   4.917   0.646  0.3641  0.0389  0.4505
  516TIP3    H122963   5.014   4.882   0.732 -1.5397  0.7356  0.3150
  516TIP3    H222964   5.027   5.012   0.656  0.6184  0.1614 -0.3797
  517TIP3   OH222965   2.685   0.883  14.130  0.0968  0.0673  0.0482
  517TIP3    H122966   2.591   0.881  14.118  0.2705  1.0836 -1.7201
  517TIP3    H222967   2.717   0.801  14.092  0.0546  0.4085 -0.7331
  518TIP3   OH222968   5.995   5.785   5.229  0.3826  0.5028 -0.7493
  518TIP3    H122969   5.922   5.846   5.217 -1.6340 -0.9156  2.7004
  518TIP3    H222970   6.063   5.837   5.272  0.8672  1.4699 -2.5948
  519TIP3   OH222971   5.132   5.232   4.950  0.2719 -0.5792  0.2204
  519TIP3    H122972   5.044   5.196   4.959 -0.7226  1.2571 -1.4275
  519TIP3    H222973   5.176   5.175   4.887 -0.9844  0.4538 -1.6810
  520TIP3   OH222974   1.347   0.428  16.442  0.5816  0.6749 -0.1789
  520TIP3    H122975   1.278   0.375  16.482  1.0128  0.7349  0.6819
  520TIP3    H222976   1.302   0.483  16.378 -0.0679  0.2350 -0.1043
  521TIP3   OH222977   3.256   2.888  11.252 -0.0545  0.1318 -0.4212
  521TIP3    H122978   3.278   2.970  11.207  1.0038  0.4800  0.6754
  521TIP3    H222979   3.280   2.819  11.191 -1.4087  0.6229 -1.5554
  522TIP3   OH222980   4.184   0.330   4.411  0.7932  0.1023 -0.1198
  522TIP3    H122981   4.172   0.387   4.487 -0.9182  0.6938 -0.7906
  522TIP3    H222982   4.150   0.380   4.337 -1.1296 -1.8765 -0.6934
  523TIP3   OH222983   6.669   2.750   6.138 -0.5324  0.2583 -0.1454
  523TIP3    H122984   6.728   2.730   6.211  0.8363  1.8060 -0.7638
  523TIP3    H222985   6.586   2.775   6.181 -0.2102 -0.2585  0.8137
  524TIP3   OH222986   1.853   1.848   2.550  0.1178 -0.7674 -0.1104
  524TIP3    H122987   1.858   1.893   2.466  0.4812  1.7172  1.1743
  524TIP3    H222988   1.780   1.889   2.596  2.4766  0.9435  2.3977
  525TIP3   OH222989   4.537   3.001  14.454 -0.2088  0.3048 -0.0470
  525TIP3    H122990   4.633   3.002  14.451 -0.1708 -1.2233 -0.0642
  525TIP3    H222991   4.516   3.013  14.546  0.0125  0.3080  0.0035
  526TIP3   OH222992   0.864   4.580  17.468  0.6423 -0.0855  0.2246
  526TIP3    H122993   0.878   4.607  17.377  1.2685  0.3770  0.4491
  526TIP3    H222994   0.799   4.641  17.501  0.0769 -0.5392 -0.0398
  527TIP3   OH222995   5.254   0.427  12.800  0.0444  0.0537  0.1442
  527TIP3    H122996   5.276   0.369  12.728 -1.5558 -0.2143 -0.1538
  527TIP3    H222997   5.161   0.446  12.789  0.1266  1.2762  1.2372
  528TIP3   OH222998   6.679   6.704   1.800 -0.1424  0.2188  0.2645
  528TIP3    H122999   6.684   6.729   1.892  1.3907 -0.4029  0.3948
  528TIP3    H223000   6.654   6.784   1.754 -1.4184  0.4158  1.2506
  529TIP3   OH223001   5.727   3.239  11.929 -0.4574  0.0190 -0.3226
  529TIP3    H123002   5.738   3.333  11.918  0.1509 -0.0813 -0.6474
  529TIP3    H223003   5.808   3.210  11.972 -1.9892  0.1177  2.8870
  530TIP3   OH223004   0.169   3.446   0.231  0.0693  0.4166  0.4547
  530TIP3    H123005   0.118   3.520   0.263 -3.3807 -2.3177  2.0239
  530TIP3    H223006   0.131   3.426   0.145  0.9993  0.4659  0.0182
  531TIP3   OH223007   5.472   2.766  15.430 -0.1517  0.2178 -0.2323
  531TIP3    H123008   5.418   2.832  15.473  0.7803  0.1143  1.1561
  531TIP3    H223009   5.432   2.755  15.344 -1.0670  1.6694 -0.0266
  532TIP3   OH223010   6.018   5.403  12.339  0.1656  0.1364  0.3031
  532TIP3    H123011   6.105   5.406  12.379  0.1711  0.2532  0.2833
  532TIP3    H223012   5.958   5.399  12.414  0.2510 -2.2119  0.3261
  533TIP3   OH223013   3.222   5.793   3.836  0.4306 -0.7392 -0.0898
  533TIP3    H123014   3.144   5.836   3.870  0.1222  1.9808 -3.5959
  533TIP3    H223015   3.292   5.857   3.847  1.8771 -2.4890  1.4984
  534TIP3   OH223016   0.659   5.163  16.529 -0.0592 -0.1421  0.3197
  534TIP3    H123017   0.692   5.188  16.442 -1.5205 -0.7153 -0.4366
  534TIP3    H223018   0.676   5.068  16.534  1.5284  0.1489  1.3893
  535TIP3   OH223019   5.663   4.577  13.339  0.5066 -0.1519 -0.3397
  535TIP3    H123020   5.666   4.669  13.312 -0.6339 -0.3024 -1.0652
  535TIP3    H223021   5.736   4.567  13.400 -0.2185  1.5901  0.8999
  536TIP3   OH223022   2.295   4.661   5.277  0.3507  0.3892  0.6239
  536TIP3    H123023   2.201   4.644   5.269  0.4962 -0.0106 -0.5770
  536TIP3    H223024   2.332   4.577   5.304  0.5950 -0.1140 -1.1489
  537TIP3   OH223025   2.285   0.558  16.993 -0.7402 -0.1083  0.2791
  537TIP3    H123026   2.336   0.631  16.956  0.4662 -1.4058 -0.7015
  537TIP3    H223027   2.209   0.551  16.935 -0.5480 -0.0102  0.0113
  538TIP3   OH223028   2.888   4.484  13.722  0.0278 -0.3042  0.2341
  538TIP3    H123029   2.877   4.532  13.639 -1.8178  2.7623  2.0519
  538TIP3    H223030   2.971   4.517  13.757  0.9992 -1.8843 -0.4972
  539TIP3   OH223031   1.501   4.081   6.211 -0.3822 -0.7436 -0.7161
  539TIP3    H123032   1.489   4.143   6.282 -1.5336 -1.5386 -0.1997
  539TIP3    H223033   1.590   4.099   6.179 -1.4323  2.7823 -2.1638
  540TIP3   OH223034   3.038   4.489  13.491 -0.2646 -0.7607  0.7018
  540TIP3    H123035   2.976   4.431  13.447 -0.8415  0.9629 -0.8657
  540TIP3    H223036   3.112   4.432  13.514 -1.6199 -2.4805  0.9949
  541TIP3   OH223037   4.581   0.916   5.090 -0.4140 -0.2079  0.1787
  541TIP3    H123038   4.660   0.867   5.067 -0.0422  0.5509 -0.1937
  541TIP3    H223039   4.586   0.925   5.186  0.0811  0.0368  0.1366
  542TIP3   OH223040   0.442   0.720  17.508  0.5623  0.7246 -0.2639
  542TIP3    H123041   0.382   0.659  17.550  0.8641  0.4274 -0.2613
  542TIP3    H223042   0.387   0.795  17.484  0.1299  0.3241 -0.5503
  543TIP3   OH223043   4.934   2.223   4.793  0.2792 -0.3547  0.2850
  543TIP3    H123044   4.948   2.265   4.878  0.7006  0.4872 -0.1877
  543TIP3    H223045   4.842   2.195   4.795  0.0906  0.2778  0.7536
  544TIP3   OH223046   4.332   4.941   5.573  0.6621  0.0998 -0.2679
  544TIP3    H123047   4.283   4.860   5.584 -0.5424  0.9808  1.3452
  544TIP3    H223048   4.317   4.989   5.655 -0.3727  2.8427 -1.9485
  545TIP3   OH223049   3.194   3.809   1.185  0.0701  0.3455 -0.2423
  545TIP3    H123050   3.102   3.783   1.192 -0.6869  2.4067 -1.6583
  545TIP3    H223051   3.229   3.758   1.112 -0.2082  0.2215 -0.2879
  546TIP3   OH223052   2.648   2.985   1.623 -0.2791  0.1004 -0.4299
  546TIP3    H123053   2.683   2.898   1.641 -0.5066 -0.9427 -4.1062
  546TIP3    H223054   2.713   3.046   1.657  2.6038 -1.6700 -2.3788
  547TIP3   OH223055   3.761   0.617  16.604  0.1545  0.1865  0.7285
  547TIP3    H123056   3.788   0.613  16.695  1.3267 -0.2421  0.3870
  547TIP3    H223057   3.788   0.532  16.567 -1.4779 -0.1821  0.2813
  548TIP3   OH223058   4.326   2.926   4.870  0.0180  0.9512  0.3466
  548TIP3    H123059   4.293   2.905   4.957  0.8656  0.5318  0.5676
  548TIP3    H223060   4.370   3.010   4.881 -0.3294  1.1584  0.1995
  549TIP3   OH223061   6.603   3.075   5.516  0.3426 -0.4112  0.2159
  549TIP3    H123062   6.523   3.103   5.561  0.4479  0.5003 -0.1427
  549TIP3    H223063   6.574   3.003   5.459  0.1327 -1.3152  1.4075
  550TIP3   OH223064   6.383   3.150   2.345  0.7097  0.0330 -0.5443
  550TIP3    H123065   6.354   3.232   2.306  0.2085  0.0837 -0.0601
  550TIP3    H223066   6.327   3.083   2.305  0.9491 -0.0501 -0.7488
  551TIP3   OH223067   4.333   5.753  14.476  0.1535  0.4766 -0.5270
  551TIP3    H123068   4.348   5.659  14.461  0.7873  0.5120 -0.1502
  551TIP3    H223069   4.366   5.795  14.397 -2.1305  0.2552 -1.6731
  552TIP3   OH223070   5.017   6.463  15.132 -0.2677 -0.2171  0.2987
  552TIP3    H123071   4.944   6.503  15.178  0.5029  1.7763 -0.1232
  552TIP3    H223072   4.992   6.371  15.124 -2.3893  0.2527  0.7984
  553TIP3   OH223073   5.798   5.347   1.270 -0.1071  0.0669 -0.3975
  553TIP3    H123074   5.723   5.402   1.292 -0.4500 -1.1272  1.5900
  553TIP3    H223075   5.847   5.338   1.351  2.7124  1.4486 -1.7817
  554TIP3   OH223076   5.625   0.374   1.749 -0.1529  0.2039  0.0329
  554TIP3    H123077   5.657   0.386   1.660 -0.7331  1.8171  0.0195
  554TIP3    H223078   5.689   0.317   1.791  1.0502  0.8476 -0.9057
  555TIP3   OH223079   3.261   6.643   4.107 -0.0747  1.1285  1.0219
  555TIP3    H123080   3.261   6.736   4.128  0.3294  0.8362  2.3996
  555TIP3    H223081   3.276   6.640   4.012  2.9325  2.3926  1.3457
  556TIP3   OH223082   4.982   2.334   5.049  0.4781 -0.4001  0.4225
  556TIP3    H123083   5.054   2.336   5.112  0.2951  1.7140  0.6123
  556TIP3    H223084   4.991   2.415   4.998 -0.1749 -1.4001 -1.3890
  557TIP3   OH223085   1.378   5.242   2.150  0.3861  0.3495  0.1203
  557TIP3    H123086   1.384   5.322   2.202  1.6161 -0.1537  0.7760
  557TIP3    H223087   1.412   5.267   2.064 -1.3575  1.0994 -0.4057
  558TIP3   OH223088   1.079   3.067  11.792 -0.6074 -0.1533 -0.0963
  558TIP3    H123089   1.034   3.141  11.752 -0.6216  0.3877  0.8894
  558TIP3    H223090   1.029   2.990  11.764 -1.0180  0.2735 -0.5489
  559TIP3   OH223091   5.356   2.142   5.029  0.4721 -0.3243  0.9451
  559TIP3    H123092   5.370   2.084   5.104 -0.8528 -1.4727  0.3569
  559TIP3    H223093   5.268   2.179   5.044 -0.1226 -1.1385 -0.3738
  560TIP3   OH223094   0.085   1.130   1.314 -0.0121 -0.5492 -0.6551
  560TIP3    H123095   0.095   1.135   1.409  0.7451  1.3563 -0.7779
  560TIP3    H223096   0.097   1.038   1.293 -1.5984 -1.2382  1.2120
  561TIP3   OH223097   4.905   1.315  14.914 -0.2494 -0.1243  0.4373
  561TIP3    H123098   4.853   1.319  14.834  0.0508 -1.5450  0.1466
  561TIP3    H223099   4.996   1.316  14.884 -0.1376 -0.7375  0.7446
  562TIP3   OH223100   5.298   6.723   4.322  0.4222 -0.4124  0.1865
  562TIP3    H123101   5.318   6.816   4.332 -0.0221  0.0752 -2.6179
  562TIP3    H223102   5.382   6.679   4.337  1.1907  0.6615 -0.7689
  563TIP3   OH223103   0.145   3.637   1.649 -0.2251  0.0287  0.9220
  563TIP3    H123104   0.236   3.652   1.672 -0.7268  2.4686  1.5308
  563TIP3    H223105   0.124   3.707   1.587 -1.4992 -0.9452  0.2036
  564TIP3   OH223106   6.588   0.838  15.201 -0.2305  0.2431  0.6260
  564TIP3    H123107   6.659   0.774  15.198 -1.3710 -1.0536 -1.8121
  564TIP3    H223108   6.628   0.920  15.171  0.3663 -0.3044 -0.0960
  565TIP3   OH223109   4.230   5.335   2.458 -0.1944  1.0575  0.6513
  565TIP3    H123110   4.313   5.382   2.462 -0.3990  1.4113  0.8370
  565TIP3    H223111   4.186   5.357   2.540  1.5082 -2.9449  2.8961
  566TIP3   OH223112   4.753   1.251   4.037 -0.3854  0.6696  0.4115
  566TIP3    H123113   4.837   1.247   3.991 -0.3337  1.6820  0.3911
  566TIP3    H223114   4.694   1.293   3.975 -0.2844  2.1646  1.2825
  567TIP3   OH223115   6.408   0.415  10.564  0.0201  0.0341  0.1881
  567TIP3    H123116   6.395   0.330  10.521  1.0122 -0.0666  0.0775
  567TIP3    H223117   6.411   0.478  10.492  0.3176  0.0310  0.1959
  568TIP3   OH223118   5.959   0.152  11.470  0.2937 -0.3855 -0.2219
  568TIP3    H123119   5.920   0.093  11.534 -0.8139  0.6321  0.0813
  568TIP3    H223120   6.009   0.215  11.523 -1.7385  1.2897 -0.1804
  569TIP3   OH223121   3.786   3.966   4.354 -0.1977 -0.5456  0.0042
  569TIP3    H123122   3.859   3.988   4.412 -0.9711  1.0049  0.4431
  569TIP3    H223123   3.827   3.918   4.282  1.0870 -0.6606  0.7694
  570TIP3   OH223124   6.238   6.334  13.254  0.4347  0.0640 -0.7206
  570TIP3    H123125   6.277   6.281  13.324  1.6627  1.1231 -0.5729
  570TIP3    H223126   6.164   6.378  13.296  1.8720  1.6276  0.2897
  571TIP3   OH223127   0.719   1.333  11.376 -0.1817 -0.5408 -0.6183
  571TIP3    H123128   0.632   1.367  11.356 -0.5090 -0.7683  0.3941
  571TIP3    H223129   0.721   1.247  11.334 -0.3306 -0.4063 -0.9017
  572TIP3   OH223130   5.849   0.865   1.351 -0.0494  0.1548 -0.6923
  572TIP3    H123131   5.822   0.856   1.260  2.0551  1.1980 -1.5103
  572TIP3    H223132   5.923   0.926   1.347  0.5273 -0.3023  1.6359
  573TIP3   OH223133   1.057   4.104  12.066  0.0612  0.6249 -0.6065
  573TIP3    H123134   1.089   4.021  12.100 -0.6122 -0.0676 -1.6008
  573TIP3    H223135   1.032   4.154  12.143  0.5221 -0.0816  0.0070
  574TIP3   OH223136   5.881   2.460   1.768 -0.1005 -0.2677 -0.2574
  574TIP3    H123137   5.884   2.492   1.858  0.2611  1.2814 -0.7814
  574TIP3    H223138   5.935   2.522   1.719 -0.4032 -0.9991 -1.5649
  575TIP3   OH223139   0.796   4.855   5.348  0.0407  0.3490 -0.1423
  575TIP3    H123140   0.738   4.916   5.301  2.2584  0.6835 -2.6514
  575TIP3    H223141   0.772   4.769   5.314  1.5822  0.5821 -1.9598
  576TIP3   OH223142   6.110   4.827   4.263 -0.4319  0.1182 -0.0404
  576TIP3    H123143   6.191   4.875   4.277 -1.2624  1.4612  0.2758
  576TIP3    H223144   6.087   4.846   4.172 -0.6262  0.0985  0.0057
  577TIP3   OH223145   3.526   3.088  14.236  0.2630  0.5626  0.8717
  577TIP3    H123146   3.467   3.071  14.163  2.3245  1.7265 -1.2189
  577TIP3    H223147   3.571   3.005  14.252 -0.5589  0.1731  1.1917
  578TIP3   OH223148   1.542   1.431  13.127  0.8143  0.0900 -0.7213
  578TIP3    H123149   1.458   1.459  13.091 -0.3127 -2.7839 -0.5969
  578TIP3    H223150   1.533   1.442  13.221  1.7549  2.4857 -0.8245
  579TIP3   OH223151   0.622   3.543  15.961  0.0265 -0.1168  0.3656
  579TIP3    H123152   0.589   3.457  15.936  1.1510 -0.8528  1.2949
  579TIP3    H223153   0.599   3.600  15.887 -0.2903 -1.3160 -0.4957
  580TIP3   OH223154   2.422   1.625   6.026 -0.2697  0.2880 -0.3205
  580TIP3    H123155   2.330   1.626   6.052 -0.3081  1.4588 -0.4588
  580TIP3    H223156   2.449   1.534   6.037 -2.0030 -0.5420 -2.2053
  581TIP3   OH223157   6.685   0.457  15.784 -0.4595  0.1599  0.4707
  581TIP3    H123158   6.600   0.495  15.804 -0.3598  0.2072  0.8153
  581TIP3    H223159   6.742   0.533  15.769 -1.0959  0.1620 -2.5669
  582TIP3   OH223160   4.242   0.663   5.332  0.1090  0.9584 -0.6773
  582TIP3    H123161   4.155   0.677   5.370  0.0774  0.2150 -0.4757
  582TIP3    H223162   4.288   0.609   5.396  0.2177  0.0997 -1.4641
  583TIP3   OH223163   0.280   0.230   0.278 -0.0662 -0.6231 -0.0015
  583TIP3    H123164   0.261   0.236   0.184  0.3553  0.9553 -0.0124
  583TIP3    H223165   0.222   0.294   0.318  0.8941 -0.1317  0.6342
  584TIP3   OH223166   3.765   2.737   1.688 -0.3998 -0.1729 -0.6404
  584TIP3    H123167   3.800   2.674   1.751 -1.5549 -0.9682 -0.7696
  584TIP3    H223168   3.776   2.694   1.603  0.7906  0.7294 -0.9617
  585TIP3   OH223169   6.071   4.542   2.286  1.0261 -0.3783 -0.5286
  585TIP3    H123170   6.113   4.471   2.334  2.0217 -0.2145 -1.1425
  585TIP3    H223171   5.985   4.551   2.327  2.2881  0.6504  2.1203
  586TIP3   OH223172   6.344   4.438   0.449 -0.2754 -0.9668 -0.2481
  586TIP3    H123173   6.292   4.377   0.397 -0.4504 -1.6545  0.7006
  586TIP3    H223174   6.294   4.450   0.530  1.3964 -2.3584  1.0817
  587TIP3   OH223175   2.571   4.822   4.340 -0.5883  0.0194  0.1124
  587TIP3    H123176   2.550   4.901   4.291 -3.1245 -0.4411  0.3431
  587TIP3    H223177   2.661   4.801   4.314 -0.0788  2.5766 -0.4448
  588TIP3   OH223178   2.445   5.597   7.354 -0.4090 -0.4572 -0.1932
  588TIP3    H123179   2.505   5.598   7.279  0.8037  2.3130  0.6965
  588TIP3    H223180   2.447   5.506   7.385  0.5539 -1.2272 -2.3251
  589TIP3   OH223181   0.850   3.116  14.039  0.2308  0.3519  0.5943
  589TIP3    H123182   0.780   3.064  14.080  0.5430 -0.9850 -0.4998
  589TIP3    H223183   0.815   3.205  14.037 -1.5455 -0.3035 -0.0736
  590TIP3   OH223184   3.867   2.195  14.044 -0.3564 -0.7079 -0.1447
  590TIP3    H123185   3.813   2.186  14.122  1.0509 -1.0366  0.8232
  590TIP3    H223186   3.931   2.263  14.066  0.9831 -1.8239 -0.4539
  591TIP3   OH223187   3.337   0.595   4.304 -0.1993  0.2361  0.1965
  591TIP3    H123188   3.294   0.621   4.385  0.3481 -0.6089  0.7741
  591TIP3    H223189   3.414   0.546   4.332  1.4022  2.0383 -0.8105
  592TIP3   OH223190   0.156   0.181  12.235 -0.6546 -0.1332  0.3630
  592TIP3    H123191   0.185   0.265  12.201  0.1466 -0.1131  1.0680
  592TIP3    H223192   0.078   0.160  12.183  0.0539  0.2682 -0.9245
  593TIP3   OH223193   3.052   2.956   0.356 -0.5406 -0.0492 -0.4614
  593TIP3    H123194   3.074   2.866   0.381 -1.9850  0.1846  1.9744
  593TIP3    H223195   3.101   2.971   0.275  2.4885 -1.8455  0.8722
  594TIP3   OH223196   6.364   6.711   2.484  0.0108  0.0832  0.3161
  594TIP3    H123197   6.427   6.640   2.494  1.1695  0.6546 -2.1156
  594TIP3    H223198   6.297   6.676   2.426 -1.2276 -0.0524  1.7633
  595TIP3   OH223199   6.086   5.436  12.628 -0.2255 -0.0453 -0.0120
  595TIP3    H123200   6.158   5.493  12.657 -0.4522  0.4318 -0.3618
  595TIP3    H223201   6.041   5.410  12.708  0.8430 -1.0487  0.2907
  596TIP3   OH223202   0.972   5.518   0.945 -0.2010 -0.4159 -0.5713
  596TIP3    H123203   1.050   5.523   0.890 -0.4861 -1.3338 -1.0750
  596TIP3    H223204   0.988   5.442   1.002 -0.6572 -0.5247 -0.5834
  597TIP3   OH223205   5.582   5.260   0.003 -0.0944  0.2703 -0.1025
  597TIP3    H123206   5.670   5.232  -0.018 -0.1974  0.1346 -0.3562
  597TIP3    H223207   5.534   5.256  -0.080 -0.8968 -1.7132  0.3877
  598TIP3   OH223208   4.615   3.307  15.863 -0.5533 -0.0522  0.6847
  598TIP3    H123209   4.606   3.287  15.956 -0.1947  0.3244  0.8033
  598TIP3    H223210   4.620   3.402  15.860  1.9496 -0.1229  0.5231
  599TIP3   OH223211   2.026   3.178  10.892 -0.2537 -0.2864 -0.2689
  599TIP3    H123212   1.968   3.254  10.894 -0.0179 -0.1317  1.2707
  599TIP3    H223213   1.970   3.107  10.860 -0.8060  0.2420 -0.5110
  600TIP3   OH223214   0.431   2.644  11.213 -0.3019  0.5709  0.0414
  600TIP3    H123215   0.506   2.607  11.166 -0.5458  1.0983 -0.7765
  600TIP3    H223216   0.356   2.629  11.155 -0.4400  2.1668 -0.2315
  601TIP3   OH223217   4.310   2.407   1.372 -0.5309  0.1241  0.0082
  601TIP3    H123218   4.360   2.436   1.449 -0.6272  1.8458 -0.5308
  601TIP3    H223219   4.218   2.413   1.400 -0.5993  1.3775 -0.3922
  602TIP3   OH223220   3.335   6.451  13.285  0.1827  0.2450  0.2857
  602TIP3    H123221   3.295   6.502  13.355  0.0650 -1.5168  1.5579
  602TIP3    H223222   3.272   6.455  13.213 -0.9766 -0.1468  1.2496
  603TIP3   OH223223   0.895   3.180   2.923  0.1882 -0.2923 -0.4228
  603TIP3    H123224   0.870   3.089   2.907 -1.1104  0.4586 -3.1628
  603TIP3    H223225   0.928   3.211   2.839 -1.0589  2.2349 -0.0798
  604TIP3   OH223226   6.539   2.608   3.153  0.2293 -0.1876  0.3490
  604TIP3    H123227   6.598   2.533   3.155 -1.4341 -1.6687 -1.3603
  604TIP3    H223228   6.541   2.637   3.061 -1.6833 -0.3513  0.2138
  605TIP3   OH223229   2.535   2.200  13.567  0.0169  0.2020  0.4036
  605TIP3    H123230   2.575   2.147  13.497 -0.5259 -0.0305  0.2611
  605TIP3    H223231   2.498   2.275  13.521  1.6647  1.2639  0.7177
  606TIP3   OH223232   3.110   2.111  11.888 -0.0792 -0.3047 -0.1974
  606TIP3    H123233   3.084   2.038  11.833 -0.7705  0.9650 -1.6292
  606TIP3    H223234   3.191   2.081  11.930  0.8230 -1.1277 -2.3732
  607TIP3   OH223235   6.732   1.421  15.799  0.0919 -0.1135 -0.7389
  607TIP3    H123236   6.738   1.468  15.716  0.9136 -0.2273 -0.7565
  607TIP3    H223237   6.823   1.414  15.829 -0.1101 -0.8526 -0.2682
  608TIP3   OH223238   3.313   2.203  12.122  0.3066  0.3864  0.4017
  608TIP3    H123239   3.352   2.232  12.039  0.9924  0.9558  0.9113
  608TIP3    H223240   3.387   2.174  12.174 -0.1175  0.1065  0.8525
  609TIP3   OH223241   4.086   1.521   2.302 -0.2749 -0.7015 -0.1732
  609TIP3    H123242   4.119   1.608   2.327 -1.3501  0.1570 -1.5955
  609TIP3    H223243   3.999   1.538   2.266 -1.4941 -2.6645  1.6410
  610TIP3   OH223244   3.196   3.528   3.601  0.1419  0.5852 -1.0540
  610TIP3    H123245   3.213   3.543   3.694  1.8536 -0.9948 -1.0539
  610TIP3    H223246   3.234   3.605   3.557 -2.9651  2.6626 -0.3931
  611TIP3   OH223247   3.292   1.495   5.390 -0.0381 -0.3988  0.2740
  611TIP3    H123248   3.345   1.416   5.401 -1.8766 -1.4368  2.7949
  611TIP3    H223249   3.306   1.545   5.470 -0.8240  0.5924 -0.1823
  612TIP3   OH223250   5.383   0.604   3.655  0.3997 -0.2564 -0.1053
  612TIP3    H123251   5.387   0.679   3.714 -3.3391 -1.2898  1.7773
  612TIP3    H223252   5.412   0.638   3.570  0.2374  2.8927  0.9834
  613TIP3   OH223253   1.795   2.509  16.638 -0.0398 -0.2584 -0.7403
  613TIP3    H123254   1.822   2.457  16.561 -1.6220 -1.0028 -0.8336
  613TIP3    H223255   1.877   2.541  16.675  0.9861 -2.3938 -1.0133
  614TIP3   OH223256   6.645   0.133   3.518  0.0451 -0.7745  0.6321
  614TIP3    H123257   6.583   0.099   3.453  0.2139  0.1490 -0.0470
  614TIP3    H223258   6.599   0.206   3.559 -0.1530 -1.5120  1.7527
  615TIP3   OH223259   1.125   4.849   3.766  0.7429  0.6414 -0.3400
  615TIP3    H123260   1.075   4.780   3.723  2.6070 -1.8799  1.2941
  615TIP3    H223261   1.070   4.876   3.840  1.0986 -1.1643  0.6552
  616TIP3   OH223262   3.541   5.714  12.951 -0.1385  0.2569 -0.1753
  616TIP3    H123263   3.541   5.763  12.869 -0.8155 -0.9793 -0.9507
  616TIP3    H223264   3.610   5.649  12.939 -0.0898  0.2160  0.3303
  617TIP3   OH223265   0.016   5.960   1.519  0.2504  0.1831 -0.1202
  617TIP3    H123266  -0.043   6.010   1.462 -0.2604 -0.9986 -0.6822
  617TIP3    H223267  -0.034   5.881   1.541  0.9463  0.0132  0.9043
  618TIP3   OH223268   4.774   0.946  12.712  0.5959  0.3226  0.3304
  618TIP3    H123269   4.776   0.881  12.782  0.9989  0.8359  0.8063
  618TIP3    H223270   4.792   0.896  12.632 -1.3724 -0.5355  0.3560
  619TIP3   OH223271   3.288   0.427   5.002  0.7570  0.3913 -0.3337
  619TIP3    H123272   3.377   0.460   4.990  1.5978 -1.1267  1.2970
  619TIP3    H223273   3.298   0.353   5.061 -1.4838 -0.5081 -1.0036
  620TIP3   OH223274   4.202   5.506  12.929 -0.5272  0.3032  0.5738
  620TIP3    H123275   4.240   5.423  12.902 -0.3963  0.4388  0.3351
  620TIP3    H223276   4.133   5.523  12.865 -1.7219 -0.4629  1.6206
  621TIP3   OH223277   5.335   3.486   6.228  0.2124  0.6641 -0.3796
  621TIP3    H123278   5.430   3.481   6.219  0.2525 -0.0376  0.3897
  621TIP3    H223279   5.306   3.395   6.228 -0.2226  0.7732  1.7076
  622TIP3   OH223280   1.412   2.112  16.721  0.0748  0.2126 -0.0432
  622TIP3    H123281   1.340   2.104  16.784 -0.9226  0.7949 -1.0623
  622TIP3    H223282   1.396   2.041  16.659 -0.0008  0.7354 -0.6299
  623TIP3   OH223283   5.609   4.715  17.300  0.0684 -0.2544  0.3969
  623TIP3    H123284   5.589   4.630  17.338 -1.8125 -0.7781 -1.5909
  623TIP3    H223285   5.525   4.750  17.272  1.0896  1.0569 -1.2419
  624TIP3   OH223286   6.091   2.654   1.681 -0.1733  0.0547 -0.0818
  624TIP3    H123287   6.171   2.608   1.655  2.4092  4.1894 -0.4610
  624TIP3    H223288   6.111   2.688   1.768 -1.4840  1.2367 -0.2067
  625TIP3   OH223289   2.138   5.402   2.377  0.2832 -0.2539 -0.4339
  625TIP3    H123290   2.228   5.375   2.394  0.1937 -0.2309  0.0824
  625TIP3    H223291   2.143   5.498   2.372  0.2843 -0.2505 -0.3719
  626TIP3   OH223292   2.581   5.081  16.008 -0.3358  0.1214  0.1947
  626TIP3    H123293   2.583   5.046  16.097 -0.8615 -0.1992  0.0819
  626TIP3    H223294   2.672   5.102  15.988 -0.4595  2.6351  1.7748
  627TIP3   OH223295   2.581   2.039  15.918 -0.6344 -0.1224  0.4046
  627TIP3    H123296   2.617   2.100  15.854 -0.0761 -0.4157  0.4369
  627TIP3    H223297   2.529   1.978  15.865 -0.5415 -0.0976  0.2846
  628TIP3   OH223298   4.104   0.989   0.499 -0.4512 -0.0068  0.0835
  628TIP3    H123299   4.156   0.962   0.575 -1.6174 -0.4381  0.7436
  628TIP3    H223300   4.157   0.962   0.424  1.7295  2.2861  0.6629
  629TIP3   OH223301   4.331   4.284  14.534  0.1905 -0.2781 -0.7257
  629TIP3    H123302   4.266   4.288  14.464  1.5556  1.8532 -1.9981
  629TIP3    H223303   4.297   4.342  14.602 -0.7219 -1.6707  0.0360
  630TIP3   OH223304   0.191   5.014   1.711 -0.2349 -0.2977 -0.2592
  630TIP3    H123305   0.148   5.070   1.647 -1.7033 -0.6219  0.3894
  630TIP3    H223306   0.246   4.956   1.660 -1.2860 -0.4718 -1.2243
  631TIP3   OH223307   2.040   3.659  13.238  0.8226 -0.3780  0.7645
  631TIP3    H123308   2.098   3.673  13.163  1.3932 -1.9745  0.8669
  631TIP3    H223309   2.086   3.595  13.292 -0.1988 -0.2666  1.8139
  632TIP3   OH223310   4.000   2.163  11.268 -0.0204  0.2318 -0.2583
  632TIP3    H123311   4.002   2.069  11.245 -2.6045  0.3083 -1.1178
  632TIP3    H223312   3.950   2.167  11.349  2.3294  0.7344  1.2963
  633TIP3   OH223313   2.305   2.704   2.452  0.1486 -0.3476 -0.4372
  633TIP3    H123314   2.253   2.784   2.460  0.0260 -0.4800  0.1211
  633TIP3    H223315   2.367   2.723   2.382 -0.3711 -0.0338 -0.8263
  634TIP3   OH223316   6.111   0.472   4.922  0.8116 -0.5346  0.2738
  634TIP3    H123317   6.088   0.413   4.850  0.8547 -0.7200  0.4126
  634TIP3    H223318   6.029   0.483   4.971  1.2479 -2.0883  1.4246
  635TIP3   OH223319   0.078   6.265  15.608 -0.2790 -0.4726  0.7271
  635TIP3    H123320   0.166   6.290  15.635  0.7386 -0.2621 -2.4157
  635TIP3    H223321   0.024   6.342  15.627  1.1079  1.0355 -1.0492
  636TIP3   OH223322   2.116   1.821  13.208  0.3323  0.4241 -1.2492
  636TIP3    H123323   2.034   1.774  13.224  1.6322 -1.1833  1.3067
  636TIP3    H223324   2.184   1.753  13.214  2.0115  2.0248 -1.3898
  637TIP3   OH223325   1.370   3.393   0.885 -0.6568  0.6745  0.2488
  637TIP3    H123326   1.418   3.465   0.843 -0.5156  0.7792  0.5822
  637TIP3    H223327   1.333   3.343   0.813  0.0288  0.5443 -0.0214
  638TIP3   OH223328   2.415   3.674   3.222 -0.4178  0.3179 -0.1148
  638TIP3    H123329   2.370   3.751   3.255  0.3128 -0.0284  1.8567
  638TIP3    H223330   2.363   3.600   3.252 -0.6242 -0.0071 -1.2112
  639TIP3   OH223331   2.295   0.276  15.094 -0.2330  0.4378 -0.4114
  639TIP3    H123332   2.347   0.354  15.115  1.6259 -0.3796 -1.6620
  639TIP3    H223333   2.247   0.300  15.015  0.1163  0.4256 -0.6304
  640TIP3   OH223334   6.130   2.360   0.665 -0.4317 -0.4153 -0.1057
  640TIP3    H123335   6.208   2.367   0.611  0.2915 -2.7922  0.5194
  640TIP3    H223336   6.159   2.315   0.744 -2.1387  0.0343  0.8311
  641TIP3   OH223337   3.021   5.418  16.330 -0.1044 -0.8531 -0.2036
  641TIP3    H123338   2.963   5.456  16.263  0.0454 -0.4921 -0.1284
  641TIP3    H223339   3.047   5.333  16.293  1.3762  0.0710 -1.4183
  642TIP3   OH223340   5.134   0.052   0.668 -0.3676 -0.3137 -0.2106
  642TIP3    H123341   5.067   0.092   0.724 -0.9176 -0.7712 -0.5303
  642TIP3    H223342   5.124   0.096   0.584 -0.3724 -0.4894 -0.3030
  643TIP3   OH223343   3.449   2.243  12.634  0.0493  0.7645 -0.2053
  643TIP3    H123344   3.501   2.269  12.558 -1.2071 -0.2971 -1.4773
  643TIP3    H223345   3.366   2.289  12.624 -1.6972 -2.4052 -1.7590
  644TIP3   OH223346   2.042   1.158   0.776  0.2666  0.3062 -0.0080
  644TIP3    H123347   1.995   1.228   0.730  0.1588  0.3847  0.2169
  644TIP3    H223348   2.106   1.126   0.713 -0.3313 -0.0538 -0.4503
  645TIP3   OH223349   3.519   2.029  12.249  0.0374 -0.1048 -0.0328
  645TIP3    H123350   3.563   1.983  12.177 -1.5578 -1.2364 -0.3473
  645TIP3    H223351   3.588   2.081  12.290  0.8600  1.2313 -2.8662
  646TIP3   OH223352   3.944   0.491  11.547  0.1344  0.2545 -0.0697
  646TIP3    H123353   3.993   0.573  11.557  1.3851 -0.1631 -2.2493
  646TIP3    H223354   4.011   0.424  11.537 -0.7567 -0.3481 -3.0662
  647TIP3   OH223355   3.090   3.391  14.810  0.2023  0.6181  0.3953
  647TIP3    H123356   3.129   3.408  14.895  1.7704  2.3829 -0.5892
  647TIP3    H223357   3.163   3.395  14.748 -0.9110 -0.3897 -1.0687
  648TIP3   OH223358   1.462   1.556   4.478  0.1309 -0.1069  0.0916
  648TIP3    H123359   1.448   1.622   4.546  0.2269  2.3654 -2.1443
  648TIP3    H223360   1.503   1.483   4.524 -0.9083  0.9243  2.8841
  649TIP3   OH223361   0.019   2.416   0.926  0.9937 -0.2561  0.9169
  649TIP3    H123362   0.066   2.473   0.865  1.6283 -1.9280 -0.2104
  649TIP3    H223363   0.009   2.470   1.005  3.5723  0.6737  0.7201
  650TIP3   OH223364   4.951   4.592  16.158  0.2583 -0.5560 -0.7909
  650TIP3    H123365   4.916   4.605  16.070 -1.9308  0.5561  0.1775
  650TIP3    H223366   4.909   4.659  16.211  1.7924 -0.9722  1.0722
  651TIP3   OH223367   0.586   1.859   3.045 -0.0908 -0.4363 -0.0763
  651TIP3    H123368   0.582   1.799   2.970 -0.7496 -1.4701  0.7397
  651TIP3    H223369   0.645   1.816   3.107 -1.7506 -1.0791  1.1644
  652TIP3   OH223370   2.728   3.054  14.025 -0.1014  0.3373 -0.1193
  652TIP3    H123371   2.722   2.962  14.002 -1.2527  0.4909 -0.4848
  652TIP3    H223372   2.780   3.093  13.955  0.2763  0.0009 -0.0318
  653TIP3   OH223373   0.982   3.051   2.475 -0.4717  0.0473  0.0662
  653TIP3    H123374   1.022   3.137   2.459  0.8962 -0.3860  0.9632
  653TIP3    H223375   0.926   3.037   2.399  0.3505  1.1278 -0.7890
  654TIP3   OH223376   3.269   1.098  16.240  0.0797 -0.4452 -0.0823
  654TIP3    H123377   3.347   1.141  16.276  1.1838 -0.4274 -2.2740
  654TIP3    H223378   3.231   1.050  16.314  2.4680 -0.8553  0.9792
  655TIP3   OH223379   0.820   2.820   1.627  0.3762 -0.2015 -0.5414
  655TIP3    H123380   0.912   2.834   1.649  1.4335 -2.3845 -3.0855
  655TIP3    H223381   0.822   2.782   1.540 -2.7553 -3.1026  0.4604
  656TIP3   OH223382   4.907   4.585   1.243  0.3106 -0.9734 -0.2169
  656TIP3    H123383   4.885   4.594   1.336  0.6489 -1.9490 -0.0372
  656TIP3    H223384   4.931   4.674   1.216  1.1069 -0.8410  0.8621
  657TIP3   OH223385   2.044   3.492   2.603  0.7341 -0.1480 -0.1257
  657TIP3    H123386   2.131   3.530   2.590  0.1748  0.2996 -3.7989
  657TIP3    H223387   1.985   3.553   2.559 -1.5761 -0.2098  2.6381
  658TIP3   OH223388   0.166   5.372  15.574 -0.1280  0.3502  0.5978
  658TIP3    H123389   0.076   5.363  15.605  0.5591 -0.3224  2.5324
  658TIP3    H223390   0.157   5.396  15.482 -2.2969 -4.0049 -0.5672
  659TIP3   OH223391   2.989   2.631   4.429 -0.1876 -0.6793 -0.2617
  659TIP3    H123392   2.908   2.594   4.395  0.4897 -0.5118 -2.1662
  659TIP3    H223393   3.019   2.691   4.361  0.2474  1.2220  1.5071
  660TIP3   OH223394   4.163   2.444  17.440 -0.6325 -0.2421 -0.2468
  660TIP3    H123395   4.119   2.483  17.365 -2.6351 -0.9374  0.4924
  660TIP3    H223396   4.183   2.518  17.498  1.3781  0.3615 -1.6078
  661TIP3   OH223397   3.423   0.184   5.493 -0.2030  0.3952 -0.0496
  661TIP3    H123398   3.437   0.092   5.472 -1.4046  0.0887  0.3899
  661TIP3    H223399   3.470   0.198   5.575 -0.7247 -0.0622  0.3341
  662TIP3   OH223400   3.373   2.665   2.559  0.5391  0.3171  0.2003
  662TIP3    H123401   3.334   2.609   2.492 -0.9491  0.9824  0.4615
  662TIP3    H223402   3.357   2.754   2.529  1.6575  0.6178  0.4638
  663TIP3   OH223403   1.893   5.459  16.720 -0.3733 -0.1666 -0.0425
  663TIP3    H123404   1.873   5.465  16.627  1.2071 -0.3015 -0.4177
  663TIP3    H223405   1.956   5.387  16.727  0.2963  0.4845  0.9840
  664TIP3   OH223406   1.084   5.424  12.292  0.0243  0.7168 -0.1650
  664TIP3    H123407   1.064   5.418  12.198  0.3930 -0.9408 -0.1812
  664TIP3    H223408   1.130   5.342  12.311  0.4736  1.2923  1.3520
  665TIP3   OH223409   5.867   5.646  16.090  0.5869  0.0550 -0.1057
  665TIP3    H123410   5.837   5.561  16.122  1.8561 -0.2825  0.2524
  665TIP3    H223411   5.818   5.660  16.009  0.0820 -0.8329  0.0293
  666TIP3   OH223412   6.305   4.974   5.540 -0.0454 -0.3965 -0.1363
  666TIP3    H123413   6.223   5.021   5.525 -0.4786 -1.1638 -0.2298
  666TIP3    H223414   6.322   4.929   5.458  0.2944 -0.5044 -0.0083
  667TIP3   OH223415   3.590   4.765   0.355  0.2231  0.5995 -0.7590
  667TIP3    H123416   3.506   4.741   0.317  0.6471 -0.7727 -0.9099
  667TIP3    H223417   3.570   4.790   0.445 -0.3542  0.3463 -0.8154
  668TIP3   OH223418   6.349   3.368   0.144 -0.0771  0.2865  0.4170
  668TIP3    H123419   6.422   3.375   0.206  0.2752  1.4587 -0.0950
  668TIP3    H223420   6.301   3.290   0.172 -0.0804  0.9046  2.3276
  669TIP3   OH223421   6.123   3.361   5.649 -0.5789 -0.2465 -0.3261
  669TIP3    H123422   6.124   3.424   5.578  2.5141  0.2637  0.0267
  669TIP3    H223423   6.150   3.410   5.726 -2.8456 -1.0134  1.0754
  670TIP3   OH223424   4.364   3.282   5.177 -0.2487 -0.2689 -0.5582
  670TIP3    H123425   4.419   3.210   5.206  0.2625  0.8428  1.4179
  670TIP3    H223426   4.275   3.257   5.202 -0.6706 -1.8164 -3.2516
  671TIP3   OH223427   5.884   0.759  11.168 -0.5055 -0.0977 -0.3715
  671TIP3    H123428   5.922   0.811  11.238 -2.0252 -1.3647  1.4716
  671TIP3    H223429   5.946   0.768  11.095  3.8022 -2.5847  2.5451
  672TIP3   OH223430   0.494   2.529   3.835  0.0218 -0.1572 -0.3060
  672TIP3    H123431   0.553   2.552   3.764  0.1279  1.9236  0.4070
  672TIP3    H223432   0.410   2.513   3.792  1.0223 -3.5541 -1.3816
  673TIP3   OH223433   6.149   1.227  12.427  0.3311  0.7891 -0.3831
  673TIP3    H123434   6.083   1.297  12.432  2.0739  2.5409 -0.3398
  673TIP3    H223435   6.150   1.189  12.514 -0.3725  1.0009 -0.2796
  674TIP3   OH223436   1.155   6.192   6.078 -0.0232 -1.1511  0.0696
  674TIP3    H123437   1.133   6.120   6.137 -0.0551 -1.3356 -0.1658
  674TIP3    H223438   1.134   6.159   5.991 -0.2199 -0.7840 -0.0228
  675TIP3   OH223439   5.484   6.173  16.728  0.1989  0.3296  0.2137
  675TIP3    H123440   5.456   6.246  16.782  1.0739  0.2572  0.7832
  675TIP3    H223441   5.403   6.125  16.708 -0.7387  2.5864 -1.9684
  676TIP3   OH223442   0.772   5.680   0.984  0.3709  0.0714 -0.2700
  676TIP3    H123443   0.775   5.701   1.077 -0.2137 -0.8737 -0.0251
  676TIP3    H223444   0.847   5.622   0.970 -0.6914 -1.4253  0.0591
  677TIP3   OH223445   2.480   0.241  16.319 -0.3180  0.7883 -0.4714
  677TIP3    H123446   2.404   0.204  16.274  0.2864 -0.6374 -0.3882
  677TIP3    H223447   2.549   0.177  16.304 -0.3848 -0.4921  3.5753
  678TIP3   OH223448   1.861   5.150  17.181 -0.6919 -0.7194 -0.2823
  678TIP3    H123449   1.936   5.210  17.191 -0.7402 -0.9194  1.8540
  678TIP3    H223450   1.818   5.179  17.101 -0.1985  1.5388  0.1831
  679TIP3   OH223451   6.355   1.319   5.262 -0.5054 -0.6732  0.2438
  679TIP3    H123452   6.451   1.322   5.266 -0.4926  1.5704 -0.3965
  679TIP3    H223453   6.330   1.259   5.332  1.3275 -0.3771  1.2189
  680TIP3   OH223454   6.467   2.637   5.967  0.3129  0.3502 -0.1619
  680TIP3    H123455   6.516   2.715   5.993 -0.0519  0.8150 -0.8322
  680TIP3    H223456   6.502   2.567   6.021 -0.1339  1.1929  1.2734
  681TIP3   OH223457   0.874   0.632  15.590  0.1188 -0.6864  0.1779
  681TIP3    H123458   0.892   0.564  15.525 -1.0718  0.3698 -1.3323
  681TIP3    H223459   0.959   0.669  15.611  0.5019 -0.8544 -1.0107
  682TIP3   OH223460   4.385   5.305  14.216  0.0571 -0.1657 -0.1577
  682TIP3    H123461   4.322   5.272  14.280  1.0950 -0.9342  0.5076
  682TIP3    H223462   4.333   5.359  14.156 -0.8766  1.0252  1.6280
  683TIP3   OH223463   6.501   6.381   1.376  0.8825 -0.3998  0.2646
  683TIP3    H123464   6.441   6.345   1.310 -0.1931 -0.5159  1.2681
  683TIP3    H223465   6.493   6.476   1.367  0.4926 -0.4154  0.4394
  684TIP3   OH223466   6.324   1.371   4.982 -0.2815 -0.1868  0.1057
  684TIP3    H123467   6.346   1.359   5.075 -0.4679  0.0072  0.1777
  684TIP3    H223468   6.293   1.286   4.953  0.1034 -0.3364  0.1319
  685TIP3   OH223469   4.167   5.901  13.462 -0.2980  0.1563 -0.0211
  685TIP3    H123470   4.145   5.935  13.548  0.6411 -1.2211  0.8064
  685TIP3    H223471   4.262   5.886  13.465 -0.4846 -1.3731 -0.7269
  686TIP3   OH223472   5.648   5.586   5.163  0.0450 -0.2901 -0.1867
  686TIP3    H123473   5.672   5.569   5.254 -0.7368  0.5538  0.1862
  686TIP3    H223474   5.554   5.599   5.165  0.2579  1.5625 -0.8243
  687TIP3   OH223475   4.551   2.922  17.262 -0.3866 -0.3039 -0.4362
  687TIP3    H123476   4.480   2.858  17.272  0.4723 -1.1412  0.5004
  687TIP3    H223477   4.525   2.974  17.186 -1.0588 -1.8373 -1.3102
  688TIP3   OH223478   0.926   5.204  15.140  0.2611 -0.2127  0.0738
  688TIP3    H123479   0.932   5.138  15.209  1.8321 -0.7044 -0.4816
  688TIP3    H223480   0.832   5.218  15.128 -0.0896 -1.7284  0.8034
  689TIP3   OH223481   3.975   2.898  16.289  0.1793  0.2163 -0.0697
  689TIP3    H123482   3.965   2.968  16.225  0.7311  0.7328  0.3944
  689TIP3    H223483   4.054   2.921  16.338 -0.0658 -0.3209  0.5962
  690TIP3   OH223484   5.320   1.121  15.155  0.2460 -0.6328 -0.5285
  690TIP3    H123485   5.355   1.034  15.173 -0.3798 -0.6877  0.4779
  690TIP3    H223486   5.263   1.140  15.229 -0.2899  0.2871 -1.1549
  691TIP3   OH223487   3.345   5.236   3.664 -0.5307  0.0362  0.4060
  691TIP3    H123488   3.328   5.210   3.573 -0.7420 -2.3924  1.0581
  691TIP3    H223489   3.431   5.199   3.683 -1.0306 -0.5948  1.5437
  692TIP3   OH223490   4.897   4.088   1.528  0.6437  0.3783 -0.2843
  692TIP3    H123491   4.858   4.093   1.441 -0.6412  0.0475  0.2545
  692TIP3    H223492   4.938   4.174   1.540 -2.1029  1.7614  0.0913
  693TIP3   OH223493   6.426   0.886   1.418  0.7751  0.3455  0.1221
  693TIP3    H123494   6.349   0.936   1.447  0.7677  0.0717  0.5858
  693TIP3    H223495   6.484   0.886   1.494 -0.4157 -2.7821  1.1739
  694TIP3   OH223496   6.491   2.695  16.274 -0.8734 -0.5553 -0.4016
  694TIP3    H123497   6.455   2.703  16.362 -1.9063 -3.3397 -0.4549
  694TIP3    H223498   6.573   2.649  16.286 -0.3346  0.2745 -0.8171
  695TIP3   OH223499   1.424   3.768  13.169  0.1027  0.1845 -0.3326
  695TIP3    H123500   1.455   3.853  13.136 -1.1798  0.2163 -1.5506
  695TIP3    H223501   1.337   3.787  13.205  1.1091 -0.0182  2.4765
  696TIP3   OH223502   3.367   6.621   3.232  0.3581  0.3291  0.4944
  696TIP3    H123503   3.435   6.582   3.286  0.7806  1.2285  0.6358
  696TIP3    H223504   3.383   6.716   3.238 -0.4112  0.5099 -0.1184
  697TIP3   OH223505   6.082   6.497   2.101 -0.0277  0.0364 -0.6586
  697TIP3    H123506   6.000   6.519   2.144  0.6120 -0.5762  0.9418
  697TIP3    H223507   6.105   6.576   2.051 -0.3855  1.0991  0.7987
  698TIP3   OH223508   2.012   1.599   4.074  0.6608  0.2480 -0.3769
  698TIP3    H123509   1.929   1.604   4.122  0.4008 -0.7460 -0.6926
  698TIP3    H223510   1.986   1.609   3.982  0.9150  0.1235 -0.4633
  699TIP3   OH223511   4.349   0.681  11.134 -0.4815  0.7512 -0.2050
  699TIP3    H123512   4.368   0.775  11.134  2.3841  0.2656 -0.1248
  699TIP3    H223513   4.283   0.669  11.067 -0.3416  2.7376 -0.7429
  700TIP3   OH223514   5.318   0.061   6.556 -0.0044  0.1750 -0.4295
  700TIP3    H123515   5.294   0.125   6.488  0.6967  0.1307 -0.7286
  700TIP3    H223516   5.248   0.069   6.621  0.0671  1.2573 -0.4560
  701TIP3   OH223517   2.610   1.748  12.596 -0.3135 -0.6548  0.4726
  701TIP3    H123518   2.628   1.656  12.574  0.9522 -0.9154  2.3618
  701TIP3    H223519   2.604   1.792  12.512  1.3939 -2.0698 -0.4518
  702TIP3   OH223520   2.461   4.467  15.258 -0.4135 -0.0660  0.0759
  702TIP3    H123521   2.532   4.528  15.278 -0.3613 -0.4496  1.0695
  702TIP3    H223522   2.384   4.505  15.301 -0.4562 -0.5096  0.4000
  703TIP3   OH223523   6.356   5.849  17.474  0.1030  0.2842 -0.5263
  703TIP3    H123524   6.369   5.786  17.545  0.6500  1.2413  0.2612
  703TIP3    H223525   6.271   5.888  17.492  0.6174  1.1532  0.1525
  704TIP3   OH223526   6.409   5.042   1.193 -0.1761  0.1193  0.2248
  704TIP3    H123527   6.345   4.981   1.156 -1.0496 -0.0176  1.8646
  704TIP3    H223528   6.447   4.995   1.267  0.7438  0.7594  0.1756
  705TIP3   OH223529   5.438   6.456  14.220 -0.2751  0.1672  0.3507
  705TIP3    H123530   5.364   6.426  14.271 -0.3358 -1.6591 -0.7387
  705TIP3    H223531   5.514   6.413  14.260 -0.2998 -1.1013 -0.8922
  706TIP3   OH223532   6.484   4.924   1.771  0.4025  0.3384 -0.0482
  706TIP3    H123533   6.480   4.832   1.795  1.3853  0.3178  0.1063
  706TIP3    H223534   6.401   4.961   1.801 -1.2803 -1.0399 -2.6377
  707TIP3   OH223535   4.837   1.900  15.232 -0.2382 -0.1715 -0.1243
  707TIP3    H123536   4.872   1.832  15.174 -1.2521 -1.0299  0.2434
  707TIP3    H223537   4.910   1.960  15.245  1.2230 -2.0431  0.8507
  708TIP3   OH223538   6.207   2.743   1.354  0.7810 -0.0336  0.3512
  708TIP3    H123539   6.142   2.807   1.383 -0.4883 -1.2718  0.3847
  708TIP3    H223540   6.277   2.747   1.420 -0.1846 -0.0284  1.4073
  709TIP3   OH223541   5.446   0.043   4.646 -0.1358  0.5975  0.6577
  709TIP3    H123542   5.536   0.013   4.634 -0.1567  0.8151 -0.0823
  709TIP3    H223543   5.440   0.123   4.594 -1.3702 -0.5839 -1.1486
  710TIP3   OH223544   4.569   0.457   3.724 -1.0139  0.3938  0.4751
  710TIP3    H123545   4.547   0.438   3.632 -0.5754 -0.2262  0.4865
  710TIP3    H223546   4.616   0.540   3.720  1.8414 -1.1076 -0.3201
  711TIP3   OH223547   1.638   4.368  14.682  0.7513  0.0447 -0.5000
  711TIP3    H123548   1.647   4.273  14.677 -0.5643 -0.1210 -0.0052
  711TIP3    H223549   1.722   4.401  14.649  2.3686 -1.3111  1.8783
  712TIP3   OH223550   2.227   3.292  13.719 -0.1470  0.3214 -0.3606
  712TIP3    H123551   2.217   3.301  13.813 -1.1062 -2.7734 -0.0592
  712TIP3    H223552   2.223   3.382  13.686 -0.9085  1.4195  2.4210
  713TIP3   OH223553   2.326   5.161   3.306  0.0587 -0.0065  0.0280
  713TIP3    H123554   2.302   5.114   3.227  0.0716 -0.9357  0.5621
  713TIP3    H223555   2.397   5.109   3.344 -0.3889  0.0595  0.9898
  714TIP3   OH223556   1.395   3.431   1.850 -0.2185 -0.2179 -0.3800
  714TIP3    H123557   1.394   3.523   1.874  0.3289 -0.3227  0.0547
  714TIP3    H223558   1.406   3.431   1.754  0.8404  0.1545 -0.2723
  715TIP3   OH223559   3.384   0.194   2.237  0.5269  0.3246  0.3168
  715TIP3    H123560   3.335   0.171   2.158 -0.7539 -1.2932  1.5165
  715TIP3    H223561   3.439   0.117   2.254 -0.0925  0.1391  1.6274
  716TIP3   OH223562   3.033   3.970   4.216  0.4540 -0.3108 -0.2434
  716TIP3    H123563   2.981   3.891   4.229 -0.8140  0.0547 -2.5524
  716TIP3    H223564   2.995   4.035   4.276  0.8570 -1.1412  0.9364
  717TIP3   OH223565   3.830   0.365  16.470  0.2284 -0.2890  0.1242
  717TIP3    H123566   3.787   0.283  16.495  1.4663 -1.0462 -0.1177
  717TIP3    H223567   3.816   0.372  16.375  1.1042 -0.8589 -0.0669
  718TIP3   OH223568   3.420   0.851   4.723 -0.2243  0.1288  0.0007
  718TIP3    H123569   3.487   0.907   4.683 -0.9686 -1.0226 -3.1542
  718TIP3    H223570   3.338   0.898   4.709 -0.5443 -0.4596 -0.1156
  719TIP3   OH223571   3.565   2.148   1.147 -0.0917  0.3269  0.4008
  719TIP3    H123572   3.471   2.137   1.164  0.1491 -3.7089  0.0672
  719TIP3    H223573   3.604   2.067   1.178  3.1341  1.2568 -0.8598
  720TIP3   OH223574   1.460   5.027  14.586 -0.1452  0.2154 -0.4813
  720TIP3    H123575   1.377   5.062  14.617 -0.8798  0.2494 -2.3480
  720TIP3    H223576   1.521   5.100  14.594 -0.2090  0.1272  1.1019
  721TIP3   OH223577   4.743   2.762  15.471  0.2034 -0.2640  0.4262
  721TIP3    H123578   4.665   2.816  15.487 -0.4268 -1.0489  0.0817
  721TIP3    H223579   4.798   2.776  15.547 -0.6437 -0.3129  1.0663
  722TIP3   OH223580   1.761   0.019   4.366  0.5203  0.2030 -0.1566
  722TIP3    H123581   1.684   0.072   4.346  1.1088  0.5966 -1.4800
  722TIP3    H223582   1.727  -0.068   4.386 -0.3625  0.7466  0.7915
  723TIP3   OH223583   3.872   3.281  17.050  0.2899 -0.6658 -0.2072
  723TIP3    H123584   3.865   3.368  17.087  0.7281 -1.6587  2.4078
  723TIP3    H223585   3.965   3.260  17.053  0.2212 -1.1574 -1.0336
  724TIP3   OH223586   4.572   5.131  14.310  0.6583 -0.4527  0.4654
  724TIP3    H123587   4.597   5.082  14.231 -1.4895 -1.3157  0.2601
  724TIP3    H223588   4.515   5.201  14.277 -2.2009 -2.2240  1.3731
  725TIP3   OH223589   2.324   4.088   0.293  0.5303 -0.4021  0.1069
  725TIP3    H123590   2.283   4.003   0.307 -1.7107  0.8435  1.8457
  725TIP3    H223591   2.303   4.111   0.203 -0.9857 -0.6707  0.3660
  726TIP3   OH223592   5.465   5.181  16.592 -0.1636 -0.0920 -0.0170
  726TIP3    H123593   5.526   5.111  16.615  1.0200  0.6513 -0.7376
  726TIP3    H223594   5.385   5.137  16.565  0.5804 -1.1585 -0.5138
  727TIP3   OH223595   6.264   1.166  10.848 -0.8529  0.0582 -0.0153
  727TIP3    H123596   6.342   1.110  10.839 -1.3045 -0.9181  1.7350
  727TIP3    H223597   6.298   1.255  10.842  0.0138 -0.3412 -1.9122
  728TIP3   OH223598   6.221   3.375  16.862  0.5998 -0.3901  0.2395
  728TIP3    H123599   6.227   3.304  16.926 -0.7536 -0.7143  0.0367
  728TIP3    H223600   6.127   3.388  16.849  0.8389  0.0683 -1.2445
  729TIP3   OH223601   3.130   2.008  16.204  0.0417  0.3425 -0.3599
  729TIP3    H123602   3.139   2.011  16.299  0.1818 -1.6272 -0.2642
  729TIP3    H223603   3.063   1.942  16.188  0.1755  0.4851 -1.6331
  730TIP3   OH223604   2.938   2.044  12.113  0.0804  0.3372 -0.5201
  730TIP3    H123605   2.970   2.074  12.028  1.2128  0.7187  0.0225
  730TIP3    H223606   2.884   2.116  12.146 -1.8143 -0.4899 -1.6401
  731TIP3   OH223607   1.581   0.426  16.867 -0.5361 -0.3934 -0.2153
  731TIP3    H123608   1.509   0.487  16.852 -0.2844  0.1242  0.5879
  731TIP3    H223609   1.654   0.463  16.817  0.1086  0.9567  1.6034
  732TIP3   OH223610   5.626   0.321   5.923 -0.2139  0.3789 -0.3016
  732TIP3    H123611   5.677   0.255   5.971 -1.9545 -1.4083 -0.7936
  732TIP3    H223612   5.692   0.382   5.889  1.3174 -0.1460  1.5560
  733TIP3   OH223613   5.921   0.946  17.169 -0.0269  0.1395  0.1320
  733TIP3    H123614   5.851   0.920  17.229  0.8909 -0.4819  0.9592
  733TIP3    H223615   5.992   0.976  17.226  0.2726  1.0720 -0.7005
  734TIP3   OH223616   5.133   3.793  12.083  0.4196 -0.7097 -0.5149
  734TIP3    H123617   5.195   3.750  12.143 -1.1412  0.1648  1.8943
  734TIP3    H223618   5.156   3.886  12.088 -0.1249 -0.5572 -0.7664
  735TIP3   OH223619   1.038   0.859  17.444  0.3250 -0.0720  0.2293
  735TIP3    H123620   1.034   0.948  17.479  2.0470  0.8790 -1.8299
  735TIP3    H223621   0.959   0.851  17.390 -1.7338 -1.1478  3.1478
  736TIP3   OH223622   3.689   0.939   0.405 -0.3422  0.3358  0.3582
  736TIP3    H123623   3.684   0.845   0.421  0.1236  0.2889  0.2434
  736TIP3    H223624   3.735   0.947   0.321 -0.0056  0.6789  0.5711
  737TIP3   OH223625   4.616   6.605  12.954 -0.4044 -0.0278 -0.7001
  737TIP3    H123626   4.528   6.599  12.916 -1.7077 -0.0370  2.1000
  737TIP3    H223627   4.629   6.698  12.971  0.0231 -0.0548 -0.8680
  738TIP3   OH223628   3.637   1.930  12.889  0.1752  0.0509  0.1092
  738TIP3    H123629   3.720   1.902  12.850 -0.3699 -1.1115 -0.2633
  738TIP3    H223630   3.658   1.943  12.982  0.1338 -3.4778  0.7524
  739TIP3   OH223631   2.053   5.009  12.281  0.3767  0.5279 -0.5757
  739TIP3    H123632   2.134   5.027  12.329  1.1314 -0.1851 -1.5549
  739TIP3    H223633   2.025   5.095  12.248 -1.9084  1.7099  3.6389
  740TIP3   OH223634   4.193   0.855   0.955  0.0006  0.2724  0.0822
  740TIP3    H123635   4.124   0.857   1.020  1.2620  1.2999  1.4529
  740TIP3    H223636   4.239   0.938   0.965  1.3970 -0.3413 -0.8327
  741TIP3   OH223637   2.588   5.133  15.013  0.0229 -0.4250 -0.6554
  741TIP3    H123638   2.528   5.064  14.985  0.4367 -0.9882 -0.1813
  741TIP3    H223639   2.557   5.212  14.969 -2.0827 -0.3426  0.8193
  742TIP3   OH223640   3.169   3.157  12.949  0.8000 -0.0184 -0.2338
  742TIP3    H123641   3.258   3.152  12.914  2.3056 -0.4647  3.2516
  742TIP3    H223642   3.135   3.068  12.943  2.5669 -1.0384  2.7270
  743TIP3   OH223643   2.410   5.076   6.287  0.3628 -0.3214 -0.3004
  743TIP3    H123644   2.456   5.004   6.329 -0.8843 -0.4994  0.7918
  743TIP3    H223645   2.329   5.086   6.336 -0.7850 -0.0029 -2.1703
  744TIP3   OH223646   2.351   5.319  17.097 -0.4547  0.8419 -0.0541
  744TIP3    H123647   2.381   5.327  17.007 -0.2806  1.8266  0.0803
  744TIP3    H223648   2.419   5.362  17.149 -1.4513  1.9713  0.3692
  745TIP3   OH223649   2.776   2.683   4.752 -0.2356 -0.0988 -0.0739
  745TIP3    H123650   2.700   2.628   4.734 -1.5290  1.0817  1.4574
  745TIP3    H223651   2.753   2.730   4.832  1.3637  1.6479 -0.5660
  746TIP3   OH223652   0.376   5.588  14.566  0.5628 -0.2934 -0.0856
  746TIP3    H123653   0.441   5.551  14.625  0.4292 -0.5655 -0.1053
  746TIP3    H223654   0.416   5.583  14.479  0.8642  0.3493  0.0109
  747TIP3   OH223655   0.691   1.031  13.491  0.2686 -0.5874 -0.0772
  747TIP3    H123656   0.766   1.040  13.433 -0.0883 -1.1786 -0.6421
  747TIP3    H223657   0.687   1.115  13.538 -0.0070  0.2988 -1.6110
  748TIP3   OH223658   2.037   3.151   2.000 -0.5263  0.0928 -0.0534
  748TIP3    H123659   2.091   3.179   2.074  0.4941  0.6237 -0.9843
  748TIP3    H223660   2.051   3.056   1.995 -0.9959 -0.0304  0.7255
  749TIP3   OH223661   2.718   0.369  16.819  0.0342  0.2785  0.2620
  749TIP3    H123662   2.740   0.287  16.774  0.4541 -0.5458  1.9005
  749TIP3    H223663   2.643   0.403  16.771  1.3131  0.1954 -1.9468
  750TIP3   OH223664   5.370   4.731   1.727  0.1800  0.1954 -0.3966
  750TIP3    H123665   5.360   4.784   1.648 -2.7008 -0.7244 -0.7667
  750TIP3    H223666   5.372   4.794   1.799  1.2253  0.9620 -1.0637
  751TIP3   OH223667   1.113   1.259   1.246  0.0426 -0.6885 -0.1567
  751TIP3    H123668   1.116   1.269   1.151  0.4709  2.9225  0.1221
  751TIP3    H223669   1.181   1.194   1.265  1.7341  0.3844 -2.1522
  752TIP3   OH223670   1.493   5.016   4.763 -0.0419  0.0409 -0.3246
  752TIP3    H123671   1.506   5.037   4.670 -0.7554 -2.4612 -1.0551
  752TIP3    H223672   1.402   4.988   4.768 -0.6443  2.0272  1.5916
  753TIP3   OH223673   5.135   5.174  16.098  0.5436  0.0285  0.2324
  753TIP3    H123674   5.056   5.215  16.134  0.8851 -1.2164  2.5353
  753TIP3    H223675   5.104   5.129  16.019 -0.9223  0.1853  0.6867
  754TIP3   OH223676   4.043   5.121   6.453 -0.3966 -0.6336  0.0445
  754TIP3    H123677   3.983   5.166   6.513  0.5062 -1.3195  1.5357
  754TIP3    H223678   3.989   5.098   6.378 -2.0073 -1.1778  1.2977
  755TIP3   OH223679   1.883   5.034  12.843 -0.6329  0.5796 -0.1544
  755TIP3    H123680   1.795   5.015  12.813 -0.0719 -0.3635 -1.2894
  755TIP3    H223681   1.937   5.029  12.764  0.7179 -0.6854  0.8009
  756TIP3   OH223682   1.001   3.487   3.513  0.3316  0.0059  0.1639
  756TIP3    H123683   0.951   3.558   3.553 -1.5766 -0.7030 -0.8372
  756TIP3    H223684   0.946   3.409   3.528  0.8221 -0.6967 -1.5455
  757TIP3   OH223685   4.204   4.750   3.613 -0.5154  0.7333  0.0239
  757TIP3    H123686   4.257   4.810   3.561 -0.7104 -0.1818 -1.2801
  757TIP3    H223687   4.261   4.722   3.685  0.2205  0.9876 -0.4605
  758TIP3   OH223688   6.073   0.158  12.870 -0.6035  0.1154 -0.2255
  758TIP3    H123689   5.983   0.136  12.895 -0.5544  0.1695  0.0045
  758TIP3    H223690   6.121   0.076  12.878 -0.3459  0.3580  0.9663
  759TIP3   OH223691   2.232   5.309   1.498  0.0504 -0.6270  0.0665
  759TIP3    H123692   2.236   5.288   1.405  1.2498  1.2563 -0.3545
  759TIP3    H223693   2.288   5.243   1.540  0.3858 -0.8231 -0.6755
  760TIP3   OH223694   3.752   3.406   6.391 -0.2394 -0.5616  0.2720
  760TIP3    H123695   3.794   3.489   6.367 -0.2873 -0.3125  1.0365
  760TIP3    H223696   3.686   3.431   6.456 -2.3168 -0.7726 -1.6281
  761TIP3   OH223697   2.565   1.249  16.835 -0.4217  0.2315  0.1335
  761TIP3    H123698   2.535   1.159  16.847  1.1759 -0.1361  1.8693
  761TIP3    H223699   2.660   1.242  16.825  0.2071  1.8393  3.5229
  762TIP3   OH223700   2.726   0.186  16.564 -0.1622 -0.4391 -0.7647
  762TIP3    H123701   2.670   0.111  16.546 -0.8085  0.4712 -2.7941
  762TIP3    H223702   2.815   0.153  16.549 -0.4764 -0.6773 -2.3128
  763TIP3   OH223703   0.754   5.383  17.084 -0.2659  1.1527 -0.0076
  763TIP3    H123704   0.818   5.437  17.130  0.3302  0.8599 -0.4767
  763TIP3    H223705   0.689   5.446  17.052 -0.3756  1.4192  0.7248
  764TIP3   OH223706   0.886   3.152  14.765  0.4297  0.6659 -0.1749
  764TIP3    H123707   0.867   3.221  14.700  0.8811  0.0502 -0.9837
  764TIP3    H223708   0.965   3.110  14.731  0.7824  0.4490  0.8920
  765TIP3   OH223709   0.989   2.630  11.213  0.4072  0.4882  0.1715
  765TIP3    H123710   0.997   2.605  11.121  1.3593  0.0439  0.3609
  765TIP3    H223711   0.971   2.548  11.259 -2.9562  1.0477  0.1104
  766TIP3   OH223712   3.010   5.795   0.276 -0.1618 -0.3362  0.1700
  766TIP3    H123713   2.992   5.869   0.219 -1.2706 -0.0808  0.8181
  766TIP3    H223714   3.104   5.799   0.292 -0.3733  1.8055  1.3232
  767TIP3   OH223715   4.865   6.714   4.917  0.0155 -0.1557 -0.0375
  767TIP3    H123716   4.952   6.675   4.922  0.8149  1.6741  1.9705
  767TIP3    H223717   4.805   6.643   4.941  0.7398 -1.7561 -2.5491
  768TIP3   OH223718   1.842   5.124   6.334 -0.3890  0.1116 -0.0575
  768TIP3    H123719   1.820   5.091   6.420 -0.2729 -1.0575 -0.4659
  768TIP3    H223720   1.813   5.056   6.273  2.2160 -0.4861 -0.7587
  769TIP3   OH223721   3.851   0.276  12.506  0.4040 -0.4486  0.1345
  769TIP3    H123722   3.796   0.343  12.545 -0.6533 -1.3079  0.1550
  769TIP3    H223723   3.920   0.325  12.461  1.1251  0.6010  2.2468
  770TIP3   OH223724   3.032   4.188  13.750 -0.6895 -0.1802  0.2082
  770TIP3    H123725   3.095   4.192  13.822 -2.5775 -0.3812  1.9429
  770TIP3    H223726   3.022   4.279  13.722  0.0266 -0.0993  0.1870
  771TIP3   OH223727   1.705   1.437   5.178  0.0557 -0.1107  0.1844
  771TIP3    H123728   1.645   1.451   5.251 -1.5781  0.0476 -1.1482
  771TIP3    H223729   1.761   1.515   5.178  0.3456 -0.2895  1.4679
  772TIP3   OH223730   5.420   1.012  12.272 -0.2941 -0.1440  0.0006
  772TIP3    H123731   5.448   0.970  12.191 -0.5719 -1.4649  0.5739
  772TIP3    H223732   5.402   0.940  12.332  0.5728  0.8219  1.4776
  773TIP3   OH223733   2.335   0.616  15.520  0.0886 -0.5506 -0.9904
  773TIP3    H123734   2.406   0.676  15.541 -1.6769  1.7272 -1.1116
  773TIP3    H223735   2.275   0.668  15.466 -1.9279 -2.1858 -0.4630
  774TIP3   OH223736   4.630   2.661   4.984  0.0779 -0.3715 -0.1731
  774TIP3    H123737   4.579   2.603   4.927 -0.8750 -0.4196  0.6922
  774TIP3    H223738   4.662   2.603   5.053  1.6835 -0.4194 -0.9090
  775TIP3   OH223739   4.282   2.723   0.827  0.2308 -0.6733 -0.0909
  775TIP3    H123740   4.222   2.732   0.754 -3.4969 -1.2280  2.6089
  775TIP3    H223741   4.323   2.638   0.815  0.6074 -0.2556 -2.0584
  776TIP3   OH223742   0.115   1.434  14.139  0.2643  0.1839  0.0666
  776TIP3    H123743   0.058   1.511  14.135  0.8389  0.5556 -1.5108
  776TIP3    H223744   0.079   1.382  14.211 -1.0530  1.1998  0.1871
  777TIP3   OH223745   5.867   4.485   1.145 -0.2038 -0.4679  0.2895
  777TIP3    H123746   5.838   4.420   1.210  0.1343 -0.0240  0.8934
  777TIP3    H223747   5.826   4.457   1.064 -0.9234 -0.8407  0.7662
  778TIP3   OH223748   0.968   0.898  13.132 -0.2070 -0.4380 -0.1634
  778TIP3    H123749   1.036   0.833  13.147  0.4376 -0.0476 -1.3008
  778TIP3    H223750   0.992   0.940  13.049 -1.4992  0.1275 -0.2751
  779TIP3   OH223751   2.358   0.915   0.847 -0.0731 -0.1514  0.0380
  779TIP3    H123752   2.405   0.931   0.764  2.4010  1.1173  1.5593
  779TIP3    H223753   2.419   0.861   0.898 -0.7183  0.6915  1.7564
  780TIP3   OH223754   4.399   5.343   4.828  0.0951  0.3760 -0.4119
  780TIP3    H123755   4.439   5.301   4.751 -2.1182 -1.1100 -0.8458
  780TIP3    H223756   4.468   5.399   4.863  2.6317 -2.1425 -0.9569
  781TIP3   OH223757   4.194   6.425   5.720  0.1542 -0.1524 -0.1149
  781TIP3    H123758   4.145   6.505   5.739 -0.4584 -0.1845 -1.4734
  781TIP3    H223759   4.169   6.364   5.789 -3.0673 -0.7303 -1.6144
  782TIP3   OH223760   2.557   3.394  11.796  0.6999  0.1872  0.5872
  782TIP3    H123761   2.624   3.432  11.740 -0.6162  0.0709 -1.1731
  782TIP3    H223762   2.478   3.445  11.777 -0.5201 -1.7997 -0.0146
  783TIP3   OH223763   6.247   5.931  12.070  0.0084  0.2052  0.3653
  783TIP3    H123764   6.278   5.990  12.002  0.8207 -1.5662 -0.8770
  783TIP3    H223765   6.291   5.961  12.150 -0.5867  2.0064  0.0732
  784TIP3   OH223766   2.785   5.034  17.052  0.2561  0.5960 -0.0250
  784TIP3    H123767   2.755   4.966  17.112  3.7375 -1.4344 -0.3179
  784TIP3    H223768   2.847   5.086  17.103  1.0281  0.7101 -1.0465
  785TIP3   OH223769   1.831   2.275  14.739  0.5933 -0.3803 -0.7018
  785TIP3    H123770   1.896   2.260  14.670 -0.7317  1.3240 -2.4228
  785TIP3    H223771   1.851   2.362  14.773  1.7513 -1.5166  1.7728
  786TIP3   OH223772   2.541   0.042  10.829 -0.0089 -0.0080 -0.2184
  786TIP3    H123773   2.485  -0.002  10.765  0.4577  0.6874 -1.1261
  786TIP3    H223774   2.545   0.133  10.798  1.4477 -0.0035 -0.0624
  787TIP3   OH223775   5.002   1.812   1.109 -0.9248  0.2731 -0.0334
  787TIP3    H123776   5.093   1.825   1.081 -1.0120 -0.0512 -0.4717
  787TIP3    H223777   5.009   1.787   1.201 -0.4952 -0.9699 -0.3897
  788TIP3   OH223778   0.120   3.117   7.021  0.4665  0.1826  0.5259
  788TIP3    H123779   0.086   3.112   6.932  1.5170 -1.9198  0.1594
  788TIP3    H223780   0.186   3.186   7.019  0.9220 -0.2654 -0.5302
  789TIP3   OH223781   2.523   2.612  13.037  0.0413  0.3774 -0.2481
  789TIP3    H123782   2.551   2.520  13.040 -2.1835 -0.3675 -0.3418
  789TIP3    H223783   2.604   2.662  13.040  1.2680 -1.4887  2.9114
  790TIP3   OH223784   5.887   0.859  13.551  0.8880 -0.0685 -0.1584
  790TIP3    H123785   5.950   0.880  13.619 -0.3267 -0.9402  1.3213
  790TIP3    H223786   5.804   0.848  13.598 -0.4463  1.2541 -2.0405
  791TIP3   OH223787   3.757   1.527   6.558 -0.0402 -0.3799 -0.0707
  791TIP3    H123788   3.759   1.597   6.493 -0.8173 -1.2138 -1.0188
  791TIP3    H223789   3.769   1.447   6.508  0.3190 -0.9760  0.9371
  792TIP3   OH223790   0.866   2.292   4.636 -0.5310 -0.5271 -0.0117
  792TIP3    H123791   0.841   2.377   4.671 -0.8605 -0.9238  0.7458
  792TIP3    H223792   0.876   2.306   4.542 -2.1390 -0.0038 -0.1301
  793TIP3   OH223793   3.088   6.146  16.883 -0.5072 -0.2298 -0.3846
  793TIP3    H123794   3.069   6.240  16.884 -0.5346 -0.2333 -0.5600
  793TIP3    H223795   3.092   6.121  16.976  0.0884  0.0666 -0.3243
  794TIP3   OH223796   5.167   3.082  11.612 -0.2915  0.1724  0.1147
  794TIP3    H123797   5.199   3.082  11.522 -2.2917  1.6385 -0.6613
  794TIP3    H223798   5.198   3.165  11.648  0.0715 -0.1846  0.6433
  795TIP3   OH223799   3.912   1.738   2.899 -0.0662 -0.1494 -0.1643
  795TIP3    H123800   3.998   1.777   2.882 -0.4682  1.0996  0.5383
  795TIP3    H223801   3.857   1.771   2.828 -0.3342  0.3487  0.2658
  796TIP3   OH223802   1.802   4.247   3.338 -0.1489 -0.5476 -0.5129
  796TIP3    H123803   1.860   4.283   3.270  0.4661 -1.4951 -0.4995
  796TIP3    H223804   1.714   4.270   3.308  0.2347  1.6735 -0.0943
  797TIP3   OH223805   0.520   5.559  14.901 -0.3302  0.8282  0.2066
  797TIP3    H123806   0.566   5.640  14.877  1.1030  0.0784  0.3155
  797TIP3    H223807   0.566   5.491  14.851 -0.8584 -0.0449  0.8978
  798TIP3   OH223808   1.115   2.238   1.249 -0.2681 -0.0962 -0.2021
  798TIP3    H123809   1.133   2.332   1.252 -1.2813  0.1386 -1.0555
  798TIP3    H223810   1.184   2.202   1.192  0.3405  0.0627  0.4234
  799TIP3   OH223811   5.183   1.002   0.002  0.0904  0.2826 -0.6317
  799TIP3    H123812   5.088   1.007   0.004 -0.0156 -1.1461  1.0725
  799TIP3    H223813   5.211   1.046   0.083  0.6913 -1.4404  0.1379
  800TIP3   OH223814   4.670   5.029  11.686  0.5501 -0.5916 -0.1421
  800TIP3    H123815   4.630   4.991  11.764 -0.2307  1.1737  0.3598
  800TIP3    H223816   4.617   4.996  11.613 -0.3890 -0.1129  0.3161
  801TIP3   OH223817   4.890   5.397   0.173 -0.2413  0.2085  0.7310
  801TIP3    H123818   4.799   5.369   0.179  0.4185 -2.1962  0.7279
  801TIP3    H223819   4.919   5.403   0.264 -0.0778 -0.3132  0.7193
  802TIP3   OH223820   0.009   5.630  12.282 -0.3219 -0.2416 -0.1893
  802TIP3    H123821   0.102   5.653  12.291 -0.4458 -0.4860  2.5994
  802TIP3    H223822   0.002   5.590  12.196  2.5601 -1.9712  0.2665
  803TIP3   OH223823   0.823   5.851  12.064 -0.1418  0.1416  0.3798
  803TIP3    H123824   0.885   5.924  12.061  0.2167 -0.0732  1.7207
  803TIP3    H223825   0.860   5.790  12.128 -0.3113 -1.3489 -0.8675
  804TIP3   OH223826   4.833   2.395  14.741  0.0049 -0.0671  0.2588
  804TIP3    H123827   4.855   2.346  14.820 -1.9712 -0.8447  0.3747
  804TIP3    H223828   4.738   2.402  14.742 -0.0033  0.7269 -1.5803
  805TIP3   OH223829   1.753   1.896  10.874  0.6557 -0.4619  0.0170
  805TIP3    H123830   1.837   1.868  10.838 -0.5217 -1.1395 -2.5053
  805TIP3    H223831   1.726   1.969  10.817 -0.8490 -0.8768  0.1408
  806TIP3   OH223832   2.459   0.216   1.277  0.0366  0.2487 -0.8087
  806TIP3    H123833   2.518   0.257   1.213 -1.3008 -0.4882 -2.5970
  806TIP3    H223834   2.445   0.128   1.242  0.4054 -0.7055  1.3144
  807TIP3   OH223835   1.636   6.472   0.937 -0.4054 -0.6033 -0.3328
  807TIP3    H123836   1.600   6.442   0.854  0.3960 -0.8698 -0.5921
  807TIP3    H223837   1.708   6.530   0.913 -0.6004 -0.1419  0.1757
  808TIP3   OH223838   4.884   1.431   6.036  0.3369  0.3125 -0.4082
  808TIP3    H123839   4.923   1.490   6.100 -1.3442  0.3149  0.6987
  808TIP3    H223840   4.932   1.447   5.955  0.8381  2.2049  0.2081
  809TIP3   OH223841   2.624   4.847  16.320 -0.1404  0.3812 -0.5271
  809TIP3    H123842   2.612   4.752  16.313  1.3501  0.2304 -1.4500
  809TIP3    H223843   2.606   4.867  16.412 -0.0723 -0.8543 -0.2301
  810TIP3   OH223844   5.467   2.039  17.432 -0.5109  0.0600 -0.4940
  810TIP3    H123845   5.517   2.081  17.362  0.3381 -0.1000  0.0027
  810TIP3    H223846   5.425   2.112  17.479 -0.8383  0.1868 -0.9784
  811TIP3   OH223847   3.972   1.978   6.163  0.1318 -0.4842  0.4350
  811TIP3    H123848   3.979   2.059   6.112  0.4423 -0.5935  0.3000
  811TIP3    H223849   3.989   2.005   6.254  0.7054 -0.4695  0.3297
  812TIP3   OH223850   2.891   6.179  12.109  0.3138  0.4351  0.3370
  812TIP3    H123851   2.904   6.121  12.034  1.8076 -0.4084  1.1917
  812TIP3    H223852   2.886   6.119  12.184 -1.0848  1.2595  0.9422
  813TIP3   OH223853   4.638   0.274  12.791  0.5627 -0.1589  1.1432
  813TIP3    H123854   4.693   0.309  12.721 -0.1037  1.2164  1.2619
  813TIP3    H223855   4.564   0.233  12.745  0.5099  0.0687  1.0220
  814TIP3   OH223856   4.776   4.909  14.869 -0.5585  0.5403 -0.3765
  814TIP3    H123857   4.756   4.889  14.777  0.9528 -0.1964 -0.5891
  814TIP3    H223858   4.871   4.924  14.869 -0.0547 -1.9974  1.4322
  815TIP3   OH223859   1.715   1.934   4.001 -0.5827  0.3678 -0.1240
  815TIP3    H123860   1.648   1.960   4.064 -0.1823  1.8972 -0.2969
  815TIP3    H223861   1.668   1.882   3.936 -1.4270  0.6355  0.2580
  816TIP3   OH223862   3.377   1.852  15.794 -0.3434 -0.0060 -0.2649
  816TIP3    H123863   3.393   1.828  15.703 -2.9854 -2.3885 -0.2447
  816TIP3    H223864   3.283   1.840  15.805 -0.2806  1.3610  2.5086
  817TIP3   OH223865   5.566   0.749   6.065 -0.2349  0.2144  0.1967
  817TIP3    H123866   5.554   0.659   6.096  1.4757 -0.4300 -0.8411
  817TIP3    H223867   5.622   0.790   6.131  1.3316 -0.3880 -0.7132
  818TIP3   OH223868   1.306   2.165   5.264 -0.6278 -0.3396  0.1279
  818TIP3    H123869   1.253   2.088   5.284 -0.9801  0.2954  1.7210
  818TIP3    H223870   1.256   2.213   5.198 -0.6745 -1.1618 -0.4507
  819TIP3   OH223871   5.568   5.493   6.074 -0.1580  0.6450  0.2339
  819TIP3    H123872   5.576   5.402   6.045  1.6538  1.3256 -1.7391
  819TIP3    H223873   5.626   5.499   6.150  0.3546  0.3276 -0.1277
  820TIP3   OH223874   6.457   4.291   3.055 -0.8604 -0.1320 -0.0014
  820TIP3    H123875   6.494   4.214   3.099  2.6087 -0.4138 -2.9707
  820TIP3    H223876   6.500   4.365   3.098  1.2448 -0.3329 -1.5797
  821TIP3   OH223877   4.213   6.180  16.449 -0.6275 -0.0594 -0.2919
  821TIP3    H123878   4.208   6.086  16.430  0.5871 -0.3282  0.6216
  821TIP3    H223879   4.197   6.187  16.543 -0.3473  0.6143 -0.2874
  822TIP3   OH223880   0.359   1.702  11.498  0.2208 -0.0671  0.0563
  822TIP3    H123881   0.303   1.658  11.562  0.1004  1.1412  0.8175
  822TIP3    H223882   0.323   1.790  11.491  0.7553  0.0797 -1.0481
  823TIP3   OH223883   2.870   4.701   1.938 -0.0712 -0.5131  0.0783
  823TIP3    H123884   2.833   4.618   1.968 -0.8070 -0.1086  0.3036
  823TIP3    H223885   2.936   4.723   2.004 -1.8045  0.4614  1.5601
  824TIP3   OH223886   2.113   3.975  14.562 -0.3196 -0.7452  0.0482
  824TIP3    H123887   2.061   3.895  14.551 -2.3475  0.4733  0.2364
  824TIP3    H223888   2.184   3.950  14.621  1.0353 -3.1968 -2.3642
  825TIP3   OH223889   1.429   3.659   3.593 -0.1348 -0.2064  0.0618
  825TIP3    H123890   1.448   3.716   3.520  1.7847 -2.2716 -1.1598
  825TIP3    H223891   1.450   3.711   3.671  1.4608  0.7909 -0.9827
  826TIP3   OH223892   1.208   5.691   5.331  0.4637  0.6151 -0.2509
  826TIP3    H123893   1.114   5.684   5.347  0.3923 -1.0210 -1.1764
  826TIP3    H223894   1.249   5.641   5.401  0.6294  1.0350 -0.0463
  827TIP3   OH223895   3.642   5.779   5.893 -0.1233  0.1347 -0.1851
  827TIP3    H123896   3.550   5.756   5.877  0.1069 -0.1541 -1.1271
  827TIP3    H223897   3.645   5.802   5.986 -0.9565 -0.7859  0.0853
  828TIP3   OH223898   5.676   3.339  15.245  0.9337  0.0464 -0.4348
  828TIP3    H123899   5.727   3.258  15.238 -1.0075 -1.3046  0.1643
  828TIP3    H223900   5.724   3.392  15.309  1.3655 -1.3685  0.4696
  829TIP3   OH223901   2.271   6.320   3.183 -0.5729  0.2839 -0.6689
  829TIP3    H123902   2.197   6.264   3.160 -0.2715  0.0364 -1.0633
  829TIP3    H223903   2.344   6.259   3.195 -0.2565  0.5798 -1.0482
  830TIP3   OH223904   5.039   6.299  13.122 -0.9364  0.6279 -0.2702
  830TIP3    H123905   5.111   6.237  13.109 -0.6351  0.9591 -0.1901
  830TIP3    H223906   4.974   6.273  13.058 -1.4674 -0.7441  0.7546
  831TIP3   OH223907   0.130   3.353   1.646  0.1797 -0.0734 -0.0426
  831TIP3    H123908   0.037   3.333   1.633 -0.4661 -0.7057  4.1509
  831TIP3    H223909   0.135   3.448   1.647 -0.3733 -0.0384 -0.5393
  832TIP3   OH223910   0.278   0.133   1.954 -0.2210  0.3522 -0.4356
  832TIP3    H123911   0.207   0.102   2.011 -0.0594 -2.6804 -1.7140
  832TIP3    H223912   0.293   0.223   1.983 -3.0954  0.4143  1.3312
  833TIP3   OH223913   5.326   3.595  12.185  0.3017 -0.4717 -0.5687
  833TIP3    H123914   5.275   3.580  12.265 -1.0887 -0.1304 -1.3574
  833TIP3    H223915   5.339   3.508  12.147  1.8748 -0.7619  0.5166
  834TIP3   OH223916   1.994   5.962   3.932 -0.0267 -0.2458 -0.0092
  834TIP3    H123917   2.040   5.880   3.913  0.5890 -0.2896  1.4978
  834TIP3    H223918   2.046   6.029   3.888 -0.8742 -0.7028 -1.7552
  835TIP3   OH223919   1.798   6.701   3.653  0.8676  0.1315 -0.3580
  835TIP3    H123920   1.842   6.618   3.669 -0.5808 -0.5877  0.0844
  835TIP3    H223921   1.839   6.762   3.714  1.5800 -0.3824 -0.3030
  836TIP3   OH223922   2.526   6.614  16.329  0.7531  0.7365  0.2379
  836TIP3    H123923   2.547   6.545  16.266  1.8207 -0.2188  1.5692
  836TIP3    H223924   2.608   6.661  16.341  0.0837  2.1498 -0.4912
  837TIP3   OH223925   5.277   0.694   0.349  0.4330  0.5466  0.1311
  837TIP3    H123926   5.226   0.614   0.339 -2.7023  2.0017  2.6635
  837TIP3    H223927   5.293   0.724   0.260 -0.1551 -1.7746 -0.8187
  838TIP3   OH223928   6.088   5.679  13.557 -0.0746 -0.1652 -0.2768
  838TIP3    H123929   6.067   5.764  13.596 -0.4068 -0.1732 -0.4303
  838TIP3    H223930   6.081   5.694  13.463 -2.2669 -0.8685 -0.2834
  839TIP3   OH223931   1.597   1.915  14.193  0.6473  0.6153 -0.6907
  839TIP3    H123932   1.521   1.945  14.243  0.5781  0.3641 -0.6440
  839TIP3    H223933   1.586   1.955  14.107 -0.5947 -0.9756 -1.3286
  840TIP3   OH223934   5.959   5.338   5.892  0.5269  0.0808 -0.0867
  840TIP3    H123935   5.957   5.400   5.964  0.2534 -0.8987  0.7668
  840TIP3    H223936   5.901   5.267   5.919  1.7420 -1.1179 -0.5102
  841TIP3   OH223937   4.932   4.305   5.302 -0.0254  0.1085  0.1826
  841TIP3    H123938   5.022   4.312   5.333  0.1322 -0.2730 -0.1949
  841TIP3    H223939   4.939   4.303   5.207 -0.2463 -2.2625  0.1600
  842TIP3   OH223940   3.103   5.971  17.487  0.2489 -0.0778 -0.7615
  842TIP3    H123941   3.164   6.036  17.521 -1.8819  0.7055  1.8400
  842TIP3    H223942   3.027   6.022  17.458 -1.0786 -1.2995  0.4412
  843TIP3   OH223943   4.994   6.693  17.140 -0.4322 -0.1770  0.1607
  843TIP3    H123944   4.968   6.752  17.069 -0.5907  0.6393  0.8790
  843TIP3    H223945   4.986   6.606  17.102 -1.7701  0.1756 -0.4336
  844TIP3   OH223946   1.462   0.158  12.935  0.1452 -0.2630  0.1095
  844TIP3    H123947   1.513   0.080  12.957 -0.7271 -0.8460  0.1246
  844TIP3    H223948   1.503   0.192  12.855 -0.4583 -1.7066 -0.8704
  845TIP3   OH223949   0.895   2.449  11.532 -0.6204  0.8073 -0.5522
  845TIP3    H123950   0.804   2.427  11.554 -0.4584  0.3793 -0.2938
  845TIP3    H223951   0.946   2.411  11.603 -0.1605  0.2232 -1.1892
  846TIP3   OH223952   0.439   5.938  17.413 -0.2274 -0.3501  0.1513
  846TIP3    H123953   0.516   5.994  17.411  0.3366 -1.1466 -0.7891
  846TIP3    H223954   0.471   5.851  17.392 -1.3631 -0.7112 -0.1586
  847TIP3   OH223955   2.907   0.705  13.555 -0.0244  0.0804 -0.7163
  847TIP3    H123956   2.879   0.732  13.642 -2.4045 -2.4675 -0.5145
  847TIP3    H223957   2.965   0.630  13.570  1.1451  0.8221 -1.3398
  848TIP3   OH223958   4.914   0.285  16.398 -0.0053 -0.0707  0.3520
  848TIP3    H123959   4.899   0.197  16.362 -1.4883  0.1411  0.3972
  848TIP3    H223960   4.861   0.288  16.478 -0.7790  1.1867 -0.1725
  849TIP3   OH223961   4.970   2.796  12.236  0.0149  0.1389  0.3368
  849TIP3    H123962   4.953   2.890  12.241  1.0415  0.3698 -0.3502
  849TIP3    H223963   4.884   2.757  12.221 -0.4491  0.9459  0.8386
  850TIP3   OH223964   3.488   0.422  17.299 -0.3674 -0.6290  0.1045
  850TIP3    H123965   3.552   0.352  17.283  3.2333  2.6702 -1.5212
  850TIP3    H223966   3.467   0.415  17.393  0.8738 -3.0055  0.2679
  851TIP3   OH223967   1.157   4.697  17.224  0.3054 -0.1216  0.1609
  851TIP3    H123968   1.175   4.786  17.254 -0.7473  0.1894 -0.1000
  851TIP3    H223969   1.180   4.698  17.131 -0.3983  0.0876 -0.0148
  852TIP3   OH223970   5.017   1.600   4.614 -0.5299  0.3308  0.2171
  852TIP3    H123971   5.048   1.681   4.655 -0.8933 -0.0587  1.3007
  852TIP3    H223972   5.097   1.553   4.590 -0.3016  0.4762  0.6812
  853TIP3   OH223973   5.152   2.478   6.122 -0.3887 -0.6951  0.2156
  853TIP3    H123974   5.058   2.463   6.117 -0.3929 -1.2241  1.6381
  853TIP3    H223975   5.161   2.556   6.177 -0.0265 -0.0716 -0.7076
  854TIP3   OH223976   0.819   5.917  16.342 -0.3721  0.0496  0.0853
  854TIP3    H123977   0.819   5.895  16.435  0.1252 -3.3763 -0.5875
  854TIP3    H223978   0.747   5.979  16.331  0.3129  1.4704  2.8799
  855TIP3   OH223979   3.359   1.450   0.293  1.2878  0.0936 -0.2638
  855TIP3    H123980   3.313   1.506   0.232  0.4667  0.4629  0.6754
  855TIP3    H223981   3.292   1.392   0.330  1.5294  0.6566  1.1371
  856TIP3   OH223982   5.866   3.071   4.114 -1.1566  0.4967  0.2335
  856TIP3    H123983   5.807   3.092   4.186 -0.3797 -0.1034  1.0577
  856TIP3    H223984   5.904   2.986   4.137  1.5434  1.7226  0.7556
  857TIP3   OH223985   0.509   4.852  14.909 -0.0135  0.2323  0.3963
  857TIP3    H123986   0.571   4.914  14.871  0.9393 -1.9133 -1.8213
  857TIP3    H223987   0.428   4.867  14.861 -0.3753  0.9898  1.2026
  858TIP3   OH223988   4.000   1.180   0.240 -0.2511 -0.3849 -0.3353
  858TIP3    H123989   4.053   1.119   0.292 -0.3576 -1.5234 -1.5095
  858TIP3    H223990   3.924   1.198   0.295  1.8657  2.3459  1.9833
  859TIP3   OH223991   6.273   6.114  11.843  0.1273 -0.0450  0.1996
  859TIP3    H123992   6.208   6.131  11.775  0.6290  0.3813 -0.1798
  859TIP3    H223993   6.331   6.190  11.841  0.0524  0.0533  1.2210
  860TIP3   OH223994   5.397   2.939  12.696 -0.3411  0.4589 -0.6471
  860TIP3    H123995   5.416   3.033  12.703 -1.3411  0.8914 -2.9306
  860TIP3    H223996   5.302   2.933  12.707 -0.3005 -0.2810 -0.6557
  861TIP3   OH223997   6.385   2.566   2.227 -0.0817 -0.4804  0.3675
  861TIP3    H123998   6.307   2.621   2.236 -0.1687  0.1900 -3.1161
  861TIP3    H223999   6.352   2.476   2.227 -0.7953 -0.2283 -0.2615
  862TIP3   OH224000   6.458   5.352   4.440  0.2958 -0.5652  0.2906
  862TIP3    H124001   6.459   5.439   4.399 -0.5131 -1.5687 -1.9804
  862TIP3    H224002   6.367   5.338   4.464 -0.0430 -1.6954 -1.5048
  863TIP3   OH224003   3.653   3.368   6.131 -0.3043 -0.2097 -0.0726
  863TIP3    H124004   3.642   3.380   6.225  0.4015  1.2216 -0.1598
  863TIP3    H224005   3.564   3.371   6.096 -0.6418 -1.4658  0.5950
  864TIP3   OH224006   2.067   0.297  15.289 -0.6652  0.0986  0.4794
  864TIP3    H124007   2.063   0.225  15.352 -0.8587  1.0422  1.5750
  864TIP3    H224008   2.154   0.289  15.249 -1.4291 -1.9789 -0.9719
  865TIP3   OH224009   0.006   3.768  14.200  0.0020  0.6503 -0.2982
  865TIP3    H124010   0.079   3.728  14.249 -0.6725  0.0965  0.2737
  865TIP3    H224011   0.046   3.843  14.155  1.1467 -0.2574 -0.8431
  866TIP3   OH224012   2.261   3.188  15.654 -0.5049 -0.1869 -0.0910
  866TIP3    H124013   2.190   3.201  15.590 -0.6078  0.1740  0.0949
  866TIP3    H224014   2.234   3.112  15.705 -1.1319  0.4095  0.4808
  867TIP3   OH224015   5.061   4.177  13.142  0.5112 -0.0372  0.1888
  867TIP3    H124016   5.109   4.106  13.099  0.2636 -0.5405  0.7320
  867TIP3    H224017   4.972   4.144  13.151  0.6731 -0.1849  1.5740
  868TIP3   OH224018   5.646   1.514  15.001  0.3262  0.3318  0.3222
  868TIP3    H124019   5.623   1.423  15.021  2.0353 -0.4424 -1.0022
  868TIP3    H224020   5.583   1.566  15.051 -1.0910 -1.5729  0.6333
  869TIP3   OH224021   6.233   6.248  15.745  0.8341  0.5207  0.2037
  869TIP3    H124022   6.259   6.315  15.682  0.9008  1.7729  1.4922
  869TIP3    H224023   6.273   6.277  15.828 -0.3555 -0.3157  1.1102
  870TIP3   OH224024   0.688   6.643   1.786 -0.5164  0.3019 -0.1036
  870TIP3    H124025   0.708   6.649   1.879 -1.6401  0.6425  0.1319
  870TIP3    H224026   0.767   6.606   1.747 -0.8378 -2.0509  1.2997
  871TIP3   OH224027   2.211   1.203  13.032 -1.3348 -0.1853  0.0949
  871TIP3    H124028   2.225   1.115  12.999  3.2199 -0.2119  1.3781
  871TIP3    H224029   2.236   1.261  12.959  3.3183 -0.2429  1.2885
  872TIP3   OH224030   3.895   2.844   3.202  0.3934  0.0800 -0.3563
  872TIP3    H124031   3.946   2.787   3.144  0.3348 -0.9986  0.6118
  872TIP3    H224032   3.956   2.868   3.272  0.2161  0.6673 -0.3945
  873TIP3   OH224033   1.588   2.524  14.574  0.1275 -0.0933 -0.2941
  873TIP3    H124034   1.678   2.505  14.601  0.6309  1.0522 -1.0822
  873TIP3    H224035   1.598   2.584  14.499 -1.2845 -0.2303 -0.6136
  874TIP3   OH224036   3.650   1.966   4.640 -0.2868  0.0403  0.0851
  874TIP3    H124037   3.584   2.024   4.601 -1.2892 -1.0287  0.1229
  874TIP3    H224038   3.732   1.988   4.596 -1.0700 -0.0072 -1.4588
  875TIP3   OH224039   3.784   1.660  14.769 -0.4287 -0.2563  0.3559
  875TIP3    H124040   3.879   1.665  14.775 -0.5077  0.0384  3.4380
  875TIP3    H224041   3.767   1.603  14.695  2.2017 -1.6168  0.6794
  876TIP3   OH224042   3.007   3.562   4.852  0.3510  0.7090 -0.0586
  876TIP3    H124043   2.927   3.533   4.808  1.3012  0.8241 -1.9643
  876TIP3    H224044   3.078   3.525   4.799  1.5980  0.0483  1.9645
  877TIP3   OH224045   0.119   1.938  13.753 -0.2067 -0.4600  0.2392
  877TIP3    H124046   0.053   1.948  13.821  0.6172  0.0623  0.9732
  877TIP3    H224047   0.147   1.846  13.760 -0.2762 -0.4637  0.4583
  878TIP3   OH224048   4.908   4.286  16.153 -0.0696  0.0104  0.0570
  878TIP3    H124049   4.832   4.343  16.159  0.0005  0.5038 -2.4905
  878TIP3    H224050   4.923   4.276  16.059  1.9009 -1.5802  0.4651
  879TIP3   OH224051   5.787   1.264  13.079  0.0798  0.1082  0.2746
  879TIP3    H124052   5.711   1.207  13.091 -1.3917  1.9143  0.1283
  879TIP3    H224053   5.783   1.324  13.153 -0.5037  2.1685 -1.3243
  880TIP3   OH224054   5.666   3.305   1.728 -0.1481  0.3470  0.1077
  880TIP3    H124055   5.737   3.336   1.783 -0.5452  0.7340  0.4116
  880TIP3    H224056   5.607   3.380   1.721 -0.8682 -0.1747  0.4286
  881TIP3   OH224057   5.188   0.675  16.942 -0.0494  0.2381  0.1246
  881TIP3    H124058   5.251   0.606  16.964 -1.2344 -1.7087 -2.0828
  881TIP3    H224059   5.104   0.639  16.971 -0.5916  1.1283 -0.3315
  882TIP3   OH224060   0.341   4.357   0.549 -0.1694 -0.6692 -0.4142
  882TIP3    H124061   0.387   4.429   0.507 -1.9293 -0.8754 -2.8886
  882TIP3    H224062   0.249   4.369   0.523 -1.1235 -1.7941  2.0858
  883TIP3   OH224063   0.309   1.385   4.200  0.3062 -0.6862 -0.0500
  883TIP3    H124064   0.322   1.339   4.283  2.0167  0.2862  0.2870
  883TIP3    H224065   0.259   1.463   4.223  1.2425 -0.1392  0.2025
  884TIP3   OH224066   6.024   4.467  10.546 -0.4961 -0.2138 -0.1247
  884TIP3    H124067   6.066   4.522  10.481  0.8123  1.5522  2.0670
  884TIP3    H224068   6.094   4.441  10.605 -1.6093 -1.8384  0.5689
  885TIP3   OH224069   2.958   4.979   6.788 -0.2328  0.1219 -0.1592
  885TIP3    H124070   2.892   4.914   6.762 -0.3927 -0.1022  0.7596
  885TIP3    H224071   2.908   5.059   6.802 -0.0706  0.3814 -1.0544
  886TIP3   OH224072   4.030   4.121  15.252  0.1440  0.1892 -0.6436
  886TIP3    H124073   4.055   4.108  15.161  0.3399  1.4143 -0.7775
  886TIP3    H224074   4.062   4.043  15.297  2.0405  0.5813 -1.2269
  887TIP3   OH224075   5.412   0.495   5.139  0.2335  0.3359  0.3588
  887TIP3    H124076   5.391   0.536   5.055  1.1422 -0.7384 -0.4150
  887TIP3    H224077   5.368   0.410   5.137 -1.2026  0.9882  1.7390
  888TIP3   OH224078   5.108   5.828  16.664 -0.5928 -0.8140 -0.1579
  888TIP3    H124079   5.166   5.831  16.587 -0.4105  1.2862 -0.0077
  888TIP3    H224080   5.031   5.878  16.637 -0.6919 -0.3907  0.8938
  889TIP3   OH224081   5.319   0.251  12.591  0.3708 -0.2465 -0.2589
  889TIP3    H124082   5.409   0.261  12.561  0.6904 -1.7082  0.1784
  889TIP3    H224083   5.303   0.157  12.590 -0.9644 -0.0430  0.2328
  890TIP3   OH224084   0.027   3.967  14.475 -0.4696 -0.0636 -0.9869
  890TIP3    H124085  -0.049   3.916  14.501  0.3815 -0.3638  1.0475
  890TIP3    H224086  -0.009   4.053  14.452 -1.3927 -0.0278  0.4622
  891TIP3   OH224087   0.320   1.864  14.227 -0.8286 -0.0887 -0.0553
  891TIP3    H124088   0.233   1.862  14.268 -1.4270 -0.7969 -1.2996
  891TIP3    H224089   0.303   1.879  14.134  0.4096  0.1234 -0.2663
  892TIP3   OH224090   2.430   4.881   1.727  0.1266 -0.4306 -0.2477
  892TIP3    H124091   2.495   4.933   1.776  1.5583 -1.7815 -0.6215
  892TIP3    H224092   2.431   4.796   1.770 -1.4601 -0.4804 -0.2600
  893TIP3   OH224093   2.547   0.132  14.253 -0.1234 -0.6482 -0.4191
  893TIP3    H124094   2.565   0.129  14.347 -2.4555 -0.9281  0.0836
  893TIP3    H224095   2.545   0.040  14.226  2.4936 -0.5493 -1.2449
  894TIP3   OH224096   1.622   3.082  11.646 -0.2942 -0.0230  0.4876
  894TIP3    H124097   1.653   3.028  11.573 -0.9115 -2.4331  1.9033
  894TIP3    H224098   1.529   3.094  11.629 -0.0355  1.2179 -0.1582
  895TIP3   OH224099   0.409   4.639  11.637 -0.0113  0.0021 -0.1700
  895TIP3    H124100   0.490   4.632  11.687  0.4632  1.4790 -0.6940
  895TIP3    H224101   0.340   4.626  11.702  0.6140 -2.0098  0.1621
  896TIP3   OH224102   2.821   6.295   4.524 -0.4160  0.4051 -0.2351
  896TIP3    H124103   2.870   6.221   4.560 -0.7927  0.5682  0.6400
  896TIP3    H224104   2.762   6.321   4.595 -2.1372 -0.1070 -1.4149
  897TIP3   OH224105   6.041   4.036  14.910  0.1806 -0.2495  0.0599
  897TIP3    H124106   6.114   3.994  14.955 -1.0725 -1.2894  1.2065
  897TIP3    H224107   5.969   4.032  14.973 -0.9265  0.5702 -1.1101
  898TIP3   OH224108   5.881   5.660  11.018  0.0893  0.3808  0.0944
  898TIP3    H124109   5.824   5.735  11.035  1.8244  1.5314  1.1602
  898TIP3    H224110   5.961   5.698  10.982  0.3142 -1.1594 -1.1224
  899TIP3   OH224111   0.703   4.708  15.538 -0.0754 -0.0487  0.6608
  899TIP3    H124112   0.721   4.685  15.629 -0.7376  0.9903  1.0707
  899TIP3    H224113   0.608   4.700  15.529 -0.1055  0.6571  0.2985
  900TIP3   OH224114   2.427   1.492  11.347  0.4118  0.3761 -0.2030
  900TIP3    H124115   2.517   1.514  11.372  0.8251 -2.0122  0.7024
  900TIP3    H224116   2.426   1.396  11.344 -2.2054  0.3295  0.2116
  901TIP3   OH224117   4.487   4.954  11.880  0.1516  0.1524  0.4227
  901TIP3    H124118   4.453   4.900  11.808  0.6014  0.2155  0.1533
  901TIP3    H224119   4.467   5.044  11.854  0.2871  0.1736  0.3925
  902TIP3   OH224120   0.265   5.036   4.619 -0.5373  0.0580  0.6622
  902TIP3    H124121   0.246   5.033   4.712 -0.6941 -0.2557  0.6231
  902TIP3    H224122   0.358   5.057   4.614 -0.5606  0.2146  0.8859
  903TIP3   OH224123   5.707   1.496  14.712 -0.1693  0.2951  0.1101
  903TIP3    H124124   5.680   1.552  14.785 -0.0511 -1.4615  1.5610
  903TIP3    H224125   5.639   1.428  14.707 -1.5694  1.7060 -3.0978
  904TIP3   OH224126   1.291   2.671   2.784 -0.5903  0.5404 -0.3620
  904TIP3    H124127   1.219   2.732   2.767 -0.9771 -0.3351 -2.0784
  904TIP3    H224128   1.370   2.723   2.766 -0.6923  1.7245  2.2468
  905TIP3   OH224129   1.489   0.010   1.267 -0.2800 -0.2629 -0.3058
  905TIP3    H124130   1.500   0.102   1.242 -0.1013 -0.2661 -0.2422
  905TIP3    H224131   1.467   0.013   1.360 -0.3184 -0.2825 -0.3143
  906TIP3   OH224132   2.322   3.206   0.834 -0.0142  0.4081 -0.3519
  906TIP3    H124133   2.341   3.184   0.925  0.5999  2.1873 -0.0139
  906TIP3    H224134   2.394   3.264   0.808 -1.3859  1.7839 -1.2280
  907TIP3   OH224135   0.683   5.212   4.980  0.2232  0.6904  0.3207
  907TIP3    H124136   0.717   5.220   5.069  0.0304  1.2776  0.3487
  907TIP3    H224137   0.755   5.240   4.924  0.1796  0.8078  0.3220
  908TIP3   OH224138   3.580   3.676   1.446  0.9098 -0.7627 -0.2715
  908TIP3    H124139   3.613   3.676   1.356  3.2081  1.5403  0.4610
  908TIP3    H224140   3.507   3.738   1.445  1.8220  0.3507 -0.3280
  909TIP3   OH224141   0.009   3.742  10.839 -0.3769 -0.3377  0.2521
  909TIP3    H124142   0.041   3.653  10.826 -0.8111 -0.2442 -1.7251
  909TIP3    H224143  -0.070   3.732  10.892 -1.0088 -1.2522 -0.8147
  910TIP3   OH224144   3.569   4.013  11.332 -0.7275  0.0317 -0.7708
  910TIP3    H124145   3.547   3.945  11.396 -2.3350  0.6961 -0.5779
  910TIP3    H224146   3.542   4.095  11.374  1.0742  0.8198 -1.0363
  911TIP3   OH224147   4.618   2.950   5.844  0.1231 -0.1044  0.2346
  911TIP3    H124148   4.660   3.000   5.774 -0.5705 -0.3125 -0.3370
  911TIP3    H224149   4.603   3.015   5.914  1.8006 -0.1268  0.6457
  912TIP3   OH224150   2.998   2.396   0.002  0.0312 -0.2876  0.5667
  912TIP3    H124151   2.972   2.312   0.041 -0.5523  0.2425  1.3516
  912TIP3    H224152   3.052   2.371  -0.073  1.0548 -1.3446  1.6006
  913TIP3   OH224153   4.350   6.267   4.092  0.6511  0.1065  0.1660
  913TIP3    H124154   4.327   6.175   4.080  1.6546 -0.2149  0.5781
  913TIP3    H224155   4.396   6.269   4.176  1.5875  0.8095 -0.3505
  914TIP3   OH224156   6.364   4.950   2.364 -0.0468 -0.3982 -0.2741
  914TIP3    H124157   6.284   4.900   2.352 -0.5672  0.2691  0.3088
  914TIP3    H224158   6.393   4.971   2.275 -1.4912  0.8369 -0.5045
  915TIP3   OH224159   2.061   3.457   5.521  0.4457 -0.0995  0.8547
  915TIP3    H124160   1.984   3.474   5.575 -0.0217  0.0508  0.1575
  915TIP3    H224161   2.050   3.368   5.489 -0.6661  0.6906 -1.1492
  916TIP3   OH224162   2.750   5.210  14.710 -0.3957  0.1480  0.0929
  916TIP3    H124163   2.777   5.165  14.790  0.5789 -2.9915 -1.8424
  916TIP3    H224164   2.662   5.178  14.693 -0.8202  1.2388  0.1246
  917TIP3   OH224165   4.929   4.305  11.894 -0.4590  0.0289 -0.0602
  917TIP3    H124166   4.915   4.373  11.828  2.6273  1.8717  0.9735
  917TIP3    H224167   4.890   4.339  11.974  0.2538  0.1785  0.2342
  918TIP3   OH224168   0.386   0.209  11.903 -0.0348 -0.0046 -0.3645
  918TIP3    H124169   0.415   0.132  11.854 -2.1292 -1.5802  0.6781
  918TIP3    H224170   0.341   0.263  11.839 -1.0135 -1.0784 -0.6224
  919TIP3   OH224171   6.544   4.562  15.555  0.8415 -0.2500  0.3911
  919TIP3    H124172   6.540   4.612  15.473 -0.3083 -0.8198  0.0835
  919TIP3    H224173   6.490   4.613  15.616 -1.3275 -1.6531 -0.2539
  920TIP3   OH224174   4.683   3.225  11.726  0.1386  0.4163 -0.5499
  920TIP3    H124175   4.589   3.241  11.729 -0.0498 -0.6854  0.0427
  920TIP3    H224176   4.691   3.130  11.734  1.3005  0.4847 -0.7229
  921TIP3   OH224177   1.008   1.103   4.908 -0.1311  0.1730  0.9568
  921TIP3    H124178   1.004   1.021   4.957 -0.0992  0.5513  1.6039
  921TIP3    H224179   0.916   1.127   4.895 -0.1797  1.1598  2.7211
  922TIP3   OH224180   0.755   1.343   3.508 -0.2175  0.0655  0.4371
  922TIP3    H124181   0.821   1.294   3.558 -0.0178  0.5420  0.6504
  922TIP3    H224182   0.772   1.434   3.530  0.5709  0.3782 -1.3332
  923TIP3   OH224183   3.675   1.415  15.942  0.2913  0.2329  0.4228
  923TIP3    H124184   3.686   1.362  16.021  1.0857 -0.0167  0.1569
  923TIP3    H224185   3.629   1.357  15.881  1.4331 -0.2833  0.0239
  924TIP3   OH224186   2.768   5.019   4.627 -0.0181  0.2293  0.2850
  924TIP3    H124187   2.796   5.013   4.535 -0.0460  1.2933  0.1900
  924TIP3    H224188   2.849   5.009   4.677  0.0041 -0.3099  0.1531
  925TIP3   OH224189   5.776   5.109   6.040  0.1458  0.5422  0.0107
  925TIP3    H124190   5.776   5.029   5.987 -0.9325  0.4371  0.1553
  925TIP3    H224191   5.861   5.107   6.085  0.3711 -0.2254 -0.4199
  926TIP3   OH224192   2.024   3.959  12.752  0.3956 -0.2256  0.2789
  926TIP3    H124193   1.935   3.993  12.757  0.5278  0.1791 -0.0717
  926TIP3    H224194   2.019   3.884  12.693 -0.0803 -1.4478  1.7816
  927TIP3   OH224195   4.971   6.062  16.250 -0.1457 -0.5439 -0.4645
  927TIP3    H124196   4.986   6.156  16.257  0.4607 -0.6774  0.1668
  927TIP3    H224197   4.975   6.044  16.156 -1.6325  0.2579 -0.7190
  928TIP3   OH224198   3.413   1.777  14.738 -0.4983 -0.4210  0.1028
  928TIP3    H124199   3.447   1.787  14.827 -0.7160  0.3493  0.1064
  928TIP3    H224200   3.343   1.712  14.746  0.6519 -1.7095  0.1643
  929TIP3   OH224201   4.257   0.813  16.995  0.3658  0.0456  0.1222
  929TIP3    H124202   4.302   0.766  17.065 -0.9310 -0.4140  0.6866
  929TIP3    H224203   4.206   0.746  16.950  1.2593  0.3094 -1.3673
  930TIP3   OH224204   0.685   3.421  10.934 -0.3339  0.2472  0.4315
  930TIP3    H124205   0.648   3.345  10.888  0.0056 -0.7384  1.7142
  930TIP3    H224206   0.630   3.495  10.908 -0.6397 -0.4256 -0.9023
  931TIP3   OH224207   6.420   3.483  13.528 -0.3094 -0.6632  0.0632
  931TIP3    H124208   6.508   3.445  13.528  0.6675  1.4513  0.5474
  931TIP3    H224209   6.390   3.474  13.618 -0.3538 -0.8183  0.0349
  932TIP3   OH224210   5.264   3.833   1.685  0.3567 -0.2408 -0.6629
  932TIP3    H124211   5.349   3.853   1.723 -0.0562 -1.0875  0.7696
  932TIP3    H224212   5.240   3.748   1.722 -1.2777  0.1493 -0.7403
  933TIP3   OH224213   1.275   5.949   5.198  0.5202 -0.2861 -0.0667
  933TIP3    H124214   1.252   5.863   5.231  1.8828 -0.2828  1.0018
  933TIP3    H224215   1.230   5.956   5.114  1.5663 -2.6572 -0.9242
  934TIP3   OH224216   1.117   2.026  11.932  0.6933 -0.8330 -0.2644
  934TIP3    H124217   1.101   1.956  11.868 -1.0526 -0.2336 -0.5526
  934TIP3    H224218   1.061   2.098  11.902  0.3007 -0.3191  1.6095
  935TIP3   OH224219   1.033   2.865  13.460 -0.3796  0.0501  0.3234
  935TIP3    H124220   1.124   2.880  13.435 -0.1299  0.2259  1.2811
  935TIP3    H224221   1.025   2.906  13.546 -1.6726  1.0286 -0.2257
  936TIP3   OH224222   3.850   4.419  12.215  0.6121 -0.0413 -0.4269
  936TIP3    H124223   3.922   4.455  12.267  0.0904 -0.2064  0.4340
  936TIP3    H224224   3.789   4.384  12.280  0.0620 -0.4844 -1.1682
  937TIP3   OH224225   6.274   2.503  15.623  0.2223 -0.4234  0.1611
  937TIP3    H124226   6.317   2.486  15.707  0.2026 -2.6845 -0.2172
  937TIP3    H224227   6.182   2.518  15.645  0.0639 -1.7895  0.5223
  938TIP3   OH224228   0.842   2.063   4.050  0.1036  0.5577  0.2050
  938TIP3    H124229   0.838   2.077   3.956 -0.7345  0.6874  0.2530
  938TIP3    H224230   0.804   2.143   4.088 -1.1790 -0.2219  0.6005
  939TIP3   OH224231   5.349   5.456   1.091 -0.1791 -0.0958 -0.7022
  939TIP3    H124232   5.341   5.536   1.039 -1.2438 -1.3428 -2.5894
  939TIP3    H224233   5.442   5.433   1.084  0.2046  1.1066  0.1259
  940TIP3   OH224234   3.188   0.948  14.588  0.4879 -0.1288 -0.4366
  940TIP3    H124235   3.146   0.893  14.521  2.1145 -2.5037  0.3493
  940TIP3    H224236   3.276   0.963  14.555  1.3168 -1.3418  1.0818
  941TIP3   OH224237   6.355   3.212  12.020  0.4269 -0.4408 -0.4364
  941TIP3    H124238   6.320   3.172  11.940  2.6419  1.4625 -2.4886
  941TIP3    H224239   6.447   3.185  12.022  0.5296 -0.0670  1.2341
  942TIP3   OH224240   6.403   4.079   4.330  0.2781 -0.7077 -0.2647
  942TIP3    H124241   6.371   4.143   4.394 -0.2431  0.3619 -1.5507
  942TIP3    H224242   6.326   4.026   4.309 -0.2392  0.5938 -1.8744
  943TIP3   OH224243   6.356   5.406  12.355  0.8135 -0.0740  0.0898
  943TIP3    H124244   6.326   5.341  12.419  2.9228 -1.8536 -0.6227
  943TIP3    H224245   6.388   5.479  12.409 -0.0881 -0.2789  0.9446
  944TIP3   OH224246   1.646   3.701  12.227  0.2999  0.6264 -0.6105
  944TIP3    H124247   1.574   3.752  12.264 -1.0892  0.0138 -2.2992
  944TIP3    H224248   1.645   3.722  12.134  2.3979  0.6421 -0.6753
  945TIP3   OH224249   0.918   0.823  13.929 -0.1090 -0.2068  0.5315
  945TIP3    H124250   0.997   0.854  13.972 -0.3637  1.0647  0.1402
  945TIP3    H224251   0.847   0.846  13.989 -0.2688 -0.4128  0.4225
  946TIP3   OH224252   0.675   5.349   0.951  0.4940 -0.2320  0.0720
  946TIP3    H124253   0.766   5.358   0.980  0.1024  1.7566  0.8438
  946TIP3    H224254   0.679   5.356   0.856  1.3161 -2.1519 -0.0755
  947TIP3   OH224255   3.724   5.183  12.516 -0.0570 -0.1674 -0.2824
  947TIP3    H124256   3.714   5.135  12.598  0.1619  0.9206  0.4079
  947TIP3    H224257   3.635   5.206  12.490 -0.1055 -0.1977 -0.1433
  948TIP3   OH224258   4.230   3.285  16.510  0.2846  0.0622  0.6864
  948TIP3    H124259   4.135   3.285  16.502  0.2208 -0.6642  1.2891
  948TIP3    H224260   4.262   3.305  16.422 -0.4241  0.6842  0.5572
  949TIP3   OH224261   4.348   0.353  11.271  0.1584  0.5222 -0.2849
  949TIP3    H124262   4.266   0.378  11.230 -0.1498 -0.2885 -0.1924
  949TIP3    H224263   4.412   0.355  11.200  0.0517  1.0884 -0.3703
  950TIP3   OH224264   6.078   3.432   1.655 -0.1226  0.6196  0.8123
  950TIP3    H124265   5.992   3.440   1.698 -1.3492 -2.1388 -0.8505
  950TIP3    H224266   6.135   3.395   1.722 -1.3954 -1.4633  0.8109
  951TIP3   OH224267   1.711   4.344   2.941  0.0107  0.4497 -0.2544
  951TIP3    H124268   1.637   4.329   2.883 -1.3538 -0.3334  1.6101
  951TIP3    H224269   1.673   4.381   3.021  1.4377 -0.9624  1.1680
  952TIP3   OH224270   3.089   1.497   2.216  0.1739 -0.2518 -0.1626
  952TIP3    H124271   3.047   1.583   2.216  1.3347  0.3807  1.8518
  952TIP3    H224272   3.119   1.486   2.126  0.4718  1.7284 -0.3609
  953TIP3   OH224273   4.384   2.691  11.261 -0.2690 -0.1110  0.7649
  953TIP3    H124274   4.324   2.688  11.336  0.4702  0.5384  1.3954
  953TIP3    H224275   4.459   2.741  11.292  1.2161 -2.0136  0.4027
  954TIP3   OH224276   4.067   1.472  11.503 -0.4215  0.0239 -0.2051
  954TIP3    H124277   4.150   1.486  11.548 -0.0699 -0.2908 -0.7466
  954TIP3    H224278   4.010   1.432  11.570  0.0892 -0.4375 -0.0370
  955TIP3   OH224279   3.790   2.517   1.512  0.0337  0.1017  0.1610
  955TIP3    H124280   3.860   2.451   1.515 -1.0606 -1.1191 -0.2259
  955TIP3    H224281   3.757   2.513   1.423 -1.3179 -0.2242  0.6467
  956TIP3   OH224282   3.381   2.284  17.110  0.4273  0.2894 -0.3182
  956TIP3    H124283   3.448   2.334  17.156  0.7844 -0.8637  0.4601
  956TIP3    H224284   3.298   2.318  17.143  0.6432  0.8177 -0.3041
  957TIP3   OH224285   2.182   6.709  14.153  0.4478  0.3889  0.5559
  957TIP3    H124286   2.100   6.662  14.168 -0.2226  1.2293 -0.2897
  957TIP3    H224287   2.200   6.754  14.236 -0.3366  0.7536  0.5404
  958TIP3   OH224288   4.071   3.899  13.541  0.8904  0.0515 -0.2698
  958TIP3    H124289   4.091   3.909  13.634 -1.4913  3.1309  0.1004
  958TIP3    H224290   4.155   3.914  13.496  1.7967 -0.0209  1.3461
  959TIP3   OH224291   2.661   4.650  13.227 -0.1166 -0.2197 -0.3592
  959TIP3    H124292   2.754   4.663  13.243 -0.2295 -1.5041  1.8533
  959TIP3    H224293   2.657   4.597  13.148  0.9020  1.2238 -1.4381
  960TIP3   OH224294   3.005   0.695   4.450 -0.2064  0.6819 -0.6414
  960TIP3    H124295   3.015   0.600   4.446 -0.8109  0.6464 -1.5920
  960TIP3    H224296   3.081   0.725   4.498 -0.9431 -0.4337  1.3104
  961TIP3   OH224297   2.462   4.668  16.559  0.1733 -0.3433 -0.3761
  961TIP3    H124298   2.522   4.743  16.560  0.6730 -0.7438  0.9977
  961TIP3    H224299   2.471   4.633  16.470  1.5961 -0.0868 -0.3665
  962TIP3   OH224300   1.484   2.217  11.782 -0.0056 -0.3556  0.0896
  962TIP3    H124301   1.434   2.183  11.708  0.5709  0.2804 -0.6148
  962TIP3    H224302   1.433   2.192  11.859 -1.3845  0.2332 -0.5930
  963TIP3   OH224303   0.529   3.528   3.159 -0.0460 -0.6354  0.5059
  963TIP3    H124304   0.487   3.612   3.139  1.5245  0.0275 -0.2281
  963TIP3    H224305   0.481   3.464   3.105  0.5752  0.2785 -1.2171
  964TIP3   OH224306   2.264   2.631  17.061  0.4156  0.8207  0.1971
  964TIP3    H124307   2.338   2.590  17.106  1.3094  0.3293 -1.6025
  964TIP3    H224308   2.293   2.720  17.042  1.2824  0.1608 -1.9272
  965TIP3   OH224309   0.358   0.920   0.850  0.0571 -0.1114  0.0768
  965TIP3    H124310   0.421   0.965   0.906 -0.5967  0.6605  0.2175
  965TIP3    H224311   0.272   0.944   0.886 -0.3865  0.5433 -1.3387
  966TIP3   OH224312   4.417   0.462   5.157  0.2522  0.3269 -0.3337
  966TIP3    H124313   4.473   0.495   5.087  0.5835 -0.5840 -0.5129
  966TIP3    H224314   4.456   0.497   5.237  0.5568  0.4255 -0.5223
  967TIP3   OH224315   6.537   1.606   0.840  0.2133  0.1990 -0.0646
  967TIP3    H124316   6.601   1.556   0.788  0.5516  1.3301 -0.7723
  967TIP3    H224317   6.571   1.695   0.840 -0.4493  0.4712  1.0691
  968TIP3   OH224318   6.317   5.985   2.039 -0.3711  0.1751 -0.3272
  968TIP3    H124319   6.322   5.913   2.102  0.2786  0.0038 -0.5728
  968TIP3    H224320   6.391   5.972   1.981 -0.2922  0.9969 -0.4255
  969TIP3   OH224321   6.407   5.324   3.699  0.5215 -0.3690 -0.3911
  969TIP3    H124322   6.401   5.415   3.728 -0.1150 -0.5720  0.1374
  969TIP3    H224323   6.486   5.321   3.646  0.4732  0.5262 -0.5334
  970TIP3   OH224324   4.257   6.620  10.293 -0.2061  0.1671 -0.1068
  970TIP3    H124325   4.252   6.707  10.252 -0.6813 -0.1187 -0.6689
  970TIP3    H224326   4.169   6.584  10.283 -0.2491 -0.0424  0.9026
  971TIP3   OH224327   6.124   2.948  15.851 -0.2663 -0.3538 -0.0490
  971TIP3    H124328   6.121   3.043  15.863  0.9688 -0.3428  0.2214
  971TIP3    H224329   6.032   2.923  15.841 -0.5510  0.9784 -1.0492
  972TIP3   OH224330   6.236   2.038   5.795 -0.1348  0.3071  0.2338
  972TIP3    H124331   6.180   2.012   5.868 -0.5283 -0.4544 -0.3344
  972TIP3    H224332   6.269   2.125   5.820 -3.7586  2.1191 -0.6065
  973TIP3   OH224333   1.133   2.193   3.631 -0.6966 -0.4214  0.1944
  973TIP3    H124334   1.182   2.274   3.644  0.4164 -1.2004  1.0829
  973TIP3    H224335   1.197   2.132   3.595 -1.9130 -0.4891 -1.9910
  974TIP3   OH224336   3.685   5.265   4.472  0.3442  0.2121  0.3746
  974TIP3    H124337   3.643   5.350   4.459  0.8300  0.4801  0.5168
  974TIP3    H224338   3.761   5.267   4.413 -1.1397 -1.2198 -1.7215
  975TIP3   OH224339   0.931   0.777  11.959 -0.1253  0.2834  0.3192
  975TIP3    H124340   0.996   0.730  11.907  1.0855 -0.2843  2.2357
  975TIP3    H224341   0.967   0.865  11.968  0.2186  0.0705  1.0848
  976TIP3   OH224342   1.523   4.640  17.158  0.0709 -0.3117  0.7826
  976TIP3    H124343   1.460   4.570  17.139  1.1497 -1.5640  1.6657
  976TIP3    H224344   1.608   4.598  17.149  0.7895  1.3037 -0.1748
  977TIP3   OH224345   3.303   0.114  13.039 -0.1078  0.0836  0.2203
  977TIP3    H124346   3.301   0.112  12.943 -0.4594  0.5239  0.2140
  977TIP3    H224347   3.395   0.123  13.061 -0.1565  1.6761 -0.1272
  978TIP3   OH224348   3.076   5.732  12.617  0.0781  0.2158 -0.6677
  978TIP3    H124349   2.998   5.779  12.644 -1.0690 -1.5337 -0.7813
  978TIP3    H224350   3.144   5.761  12.678 -1.0432  0.6194  0.4339
  979TIP3   OH224351   5.001   1.809  17.495 -0.0939 -0.0762  0.0510
  979TIP3    H124352   5.020   1.870  17.423 -1.9454  1.5603  0.8385
  979TIP3    H224353   5.081   1.809  17.548  1.1534 -1.0083 -1.7291
  980TIP3   OH224354   3.026   2.540  14.448  0.1511  0.0699  0.1615
  980TIP3    H124355   3.011   2.505  14.536 -0.5973  0.0337  0.0325
  980TIP3    H224356   2.945   2.588  14.429  0.1679 -0.2141 -0.6370
  981TIP3   OH224357   3.655   3.900   1.936 -0.0261 -0.5310  0.2016
  981TIP3    H124358   3.650   3.993   1.957  0.2954 -0.5273  0.2565
  981TIP3    H224359   3.741   3.872   1.967  0.8878 -0.3083 -1.9218
  982TIP3   OH224360   4.285   2.249  17.305 -0.3123  0.3783 -0.1085
  982TIP3    H124361   4.230   2.328  17.301  0.2720  0.7999 -0.0317
  982TIP3    H224362   4.358   2.274  17.362 -0.3779 -0.3877  0.3219
  983TIP3   OH224363   4.314   1.563  12.037 -0.1850 -0.8700  0.1944
  983TIP3    H124364   4.318   1.647  12.081  1.0695 -2.6542  3.8671
  983TIP3    H224365   4.227   1.528  12.059 -2.2531  0.6804 -4.2887
  984TIP3   OH224366   2.423   0.394  12.049 -0.0673  0.2757  0.1051
  984TIP3    H124367   2.408   0.423  12.139 -0.4101  0.1800  0.0775
  984TIP3    H224368   2.356   0.439  11.997  1.2287  1.7604 -0.3842
  985TIP3   OH224369   0.740   4.697  15.195  0.1714  0.3648 -0.1877
  985TIP3    H124370   0.714   4.789  15.204  1.6847  0.7240  0.9987
  985TIP3    H224371   0.691   4.652  15.263 -0.3411  0.3406 -0.5689
  986TIP3   OH224372   6.510   2.762  12.541  0.0638 -0.3061  0.0695
  986TIP3    H124373   6.573   2.737  12.474  0.8963 -0.7078  0.9622
  986TIP3    H224374   6.523   2.856  12.552 -2.4076  0.5024 -2.6196
  987TIP3   OH224375   5.901   1.461  14.524 -0.5111  0.2071 -0.4513
  987TIP3    H124376   5.839   1.478  14.594  0.3334  0.1073  0.3402
  987TIP3    H224377   5.918   1.547  14.485 -1.1615  0.2287 -0.7004
  988TIP3   OH224378   3.693   0.874   4.134  0.2907  0.0138  0.3503
  988TIP3    H124379   3.676   0.808   4.066  2.4875  0.9024 -1.1738
  988TIP3    H224380   3.727   0.823   4.208  0.2034 -0.7374 -0.1106
  989TIP3   OH224381   5.667   4.244   4.322 -0.3406 -0.1101 -0.5041
  989TIP3    H124382   5.602   4.313   4.335  2.0849  2.3190 -0.1805
  989TIP3    H224383   5.658   4.187   4.398 -0.2073  1.8871  1.0821
  990TIP3   OH224384   1.114   3.692  13.677 -0.1061 -0.7963  0.6267
  990TIP3    H124385   1.089   3.624  13.614  1.7489  0.2678 -1.4092
  990TIP3    H224386   1.196   3.659  13.716 -1.0281 -1.2613  2.2849
  991TIP3   OH224387   5.174   4.912   4.230  0.3660  0.3748 -0.0695
  991TIP3    H124388   5.161   5.004   4.253  1.2513  0.4969 -0.0385
  991TIP3    H224389   5.246   4.883   4.285  1.1704  0.1130 -1.2268
  992TIP3   OH224390   4.981   5.501  15.988  0.2094  0.3502 -0.1608
  992TIP3    H124391   4.907   5.528  15.934  0.1847 -1.2997 -1.0244
  992TIP3    H224392   4.954   5.520  16.078 -0.2556  1.9936 -0.6134
  993TIP3   OH224393   4.505   0.153  12.172 -0.3425  0.3061 -0.4164
  993TIP3    H124394   4.445   0.090  12.132  1.3358 -1.2139 -0.6915
  993TIP3    H224395   4.490   0.234  12.123  0.0204 -0.8788 -2.6410
  994TIP3   OH224396   1.271   5.983  13.435 -0.1950  0.1472  0.3944
  994TIP3    H124397   1.282   6.077  13.451 -1.1679  0.2064  0.8266
  994TIP3    H224398   1.345   5.959  13.380  0.3691  1.0563  0.7283
  995TIP3   OH224399   5.198   4.339   4.050 -0.2900  0.1235 -0.4378
  995TIP3    H124400   5.175   4.371   4.137  0.5344  0.1846 -0.2316
  995TIP3    H224401   5.288   4.368   4.037 -0.8154  1.2634 -1.8574
  996TIP3   OH224402   6.446   5.729   1.853 -0.2484  0.2050 -0.3801
  996TIP3    H124403   6.514   5.744   1.919 -0.9479  0.6890  0.2508
  996TIP3    H224404   6.469   5.788   1.781  0.6682 -0.5161 -0.6900
  997TIP3   OH224405   4.355   0.948  11.974  0.3495  0.0764  0.5727
  997TIP3    H124406   4.425   0.969  12.035  1.4613  1.1897 -1.0168
  997TIP3    H224407   4.298   1.025  11.975  0.4132  0.1347  0.1881
  998TIP3   OH224408   5.617   5.216   6.419  0.6826  0.4650 -0.3336
  998TIP3    H124409   5.526   5.235   6.396  1.1698  1.4475 -1.5545
  998TIP3    H224410   5.648   5.296   6.462  0.9031  0.0319  0.3345
  999TIP3   OH224411   2.981   4.358   3.216 -0.4838  0.7565  0.0923
  999TIP3    H124412   2.959   4.304   3.291 -0.1919  1.7690  0.9431
  999TIP3    H224413   2.954   4.446   3.241  1.9619  1.5940  0.1124
 1000TIP3   OH224414   3.787   0.777  11.391 -0.3566  0.4552  0.0267
 1000TIP3    H124415   3.855   0.839  11.420 -0.7722  1.2644 -0.6801
 1000TIP3    H224416   3.714   0.832  11.364 -0.8882 -0.3681 -0.2569
 1001TIP3   OH224417   1.351   2.997  12.206 -0.1982  0.4535 -0.1484
 1001TIP3    H124418   1.427   3.011  12.261 -0.6367  0.0585  0.5721
 1001TIP3    H224419   1.377   3.028  12.119  0.6977  0.5267  0.1457
 1002TIP3   OH224420   3.624   3.782   1.174  0.2052 -0.2752 -0.4142
 1002TIP3    H124421   3.642   3.715   1.108 -0.4298 -1.2516  0.3699
 1002TIP3    H224422   3.578   3.851   1.126 -0.7734 -1.2240 -0.9009
 1003TIP3   OH224423   2.812   3.765  16.734  0.3797 -0.2032 -0.0987
 1003TIP3    H124424   2.814   3.793  16.643  0.0765 -0.8619 -0.3167
 1003TIP3    H224425   2.777   3.840  16.782 -1.0645 -0.4228 -0.7632
 1004TIP3   OH224426   5.774   5.740  13.188 -0.5725  0.1500 -0.5406
 1004TIP3    H124427   5.793   5.663  13.241 -1.1080  1.1842  1.2538
 1004TIP3    H224428   5.692   5.775  13.225 -0.2507  1.6720 -1.1677
 1005TIP3   OH224429   2.011   3.218  13.588 -0.4120 -0.1659  0.7677
 1005TIP3    H124430   1.951   3.287  13.559 -0.9021 -0.8317  0.1528
 1005TIP3    H224431   2.066   3.259  13.654 -0.1730  1.0407 -0.1487
 1006TIP3   OH224432   1.259   6.455  12.650 -0.3584 -0.0772 -0.0602
 1006TIP3    H124433   1.176   6.442  12.696 -0.3626 -0.9599 -0.2901
 1006TIP3    H224434   1.234   6.480  12.561 -0.3497  2.2559  0.5306
 1007TIP3   OH224435   0.669   3.831   2.207 -0.3418  0.0634 -0.1257
 1007TIP3    H124436   0.732   3.873   2.265  0.8637 -1.4814 -0.2501
 1007TIP3    H224437   0.612   3.781   2.266 -0.9039  0.7459 -0.0806
 1008TIP3   OH224438   5.492   2.798   1.167 -0.5316  0.1838  0.0309
 1008TIP3    H124439   5.520   2.844   1.088  1.3166  0.0422  0.5562
 1008TIP3    H224440   5.569   2.749   1.194 -0.8957  0.7856  2.3324
 1009TIP3   OH224441   6.028   5.711   1.542  0.0010 -0.1455  0.4489
 1009TIP3    H124442   5.958   5.661   1.499 -0.0459  0.1663  0.1626
 1009TIP3    H224443   6.008   5.704   1.635 -0.5622  0.1606  0.3555
 1010TIP3   OH224444   3.790   2.454   0.189  0.1917 -0.4368  0.0694
 1010TIP3    H124445   3.842   2.376   0.206  2.3580  1.1041  0.8628
 1010TIP3    H224446   3.853   2.520   0.163 -1.2413  1.7495  1.7669
 1011TIP3   OH224447   3.493   5.477   5.512  0.3248  0.1755 -0.1438
 1011TIP3    H124448   3.540   5.532   5.574  1.6927 -0.5221 -0.5290
 1011TIP3    H224449   3.536   5.492   5.428  0.9048 -1.6346 -0.2173
 1012TIP3   OH224450   6.466   4.336   2.742 -0.5197 -0.1950 -0.1044
 1012TIP3    H124451   6.463   4.303   2.832 -0.0552 -1.5471 -0.5583
 1012TIP3    H224452   6.453   4.258   2.688  0.9370  0.2984 -1.2381
 1013TIP3   OH224453   5.647   1.469   6.474  0.3440 -0.3527 -0.0340
 1013TIP3    H124454   5.639   1.378   6.446  0.3056 -0.7734  1.2985
 1013TIP3    H224455   5.624   1.468   6.566  0.1879  1.0439 -0.0368
 1014TIP3   OH224456   5.594   0.910   2.716 -0.3084 -0.3833  0.4558
 1014TIP3    H124457   5.632   0.863   2.790  0.3065  0.3495  0.6185
 1014TIP3    H224458   5.592   1.001   2.744 -0.4719 -0.1588 -0.2654
 1015TIP3   OH224459   4.296   5.291   5.489 -0.0534  0.1437  0.0730
 1015TIP3    H124460   4.238   5.367   5.477 -0.4927 -0.4150 -1.7682
 1015TIP3    H224461   4.284   5.266   5.580 -1.6420  0.9103  0.1154
 1016TIP3   OH224462   1.824   6.058  17.096 -0.3402 -0.1086  0.1420
 1016TIP3    H124463   1.892   5.992  17.107  1.2487  1.5069  0.6101
 1016TIP3    H224464   1.793   6.045  17.006  0.6011 -0.9029 -0.0886
 1017TIP3   OH224465   5.791   4.977  16.334  0.3409 -0.1792  0.4989
 1017TIP3    H124466   5.839   5.059  16.328 -0.6941  0.3296 -3.7170
 1017TIP3    H224467   5.732   4.989  16.409  1.1318  2.3804  0.8072
 1018TIP3   OH224468   6.353   3.805  14.402  0.2271  0.5624  0.4800
 1018TIP3    H124469   6.261   3.831  14.404 -0.3917 -1.3780 -0.3674
 1018TIP3    H224470   6.360   3.738  14.470  0.8668  0.3106  0.1716
 1019TIP3   OH224471   0.143   5.291   0.790  0.7376  0.4807  0.0914
 1019TIP3    H124472   0.092   5.307   0.711 -0.3485 -0.5347  0.5614
 1019TIP3    H224473   0.108   5.351   0.855 -0.5275 -0.8289  0.6721
 1020TIP3   OH224474   5.830   5.142  17.476  0.5928  0.0742  0.3728
 1020TIP3    H124475   5.892   5.102  17.538  1.0724  1.2431  0.6823
 1020TIP3    H224476   5.824   5.078  17.405  0.0182 -1.3127  1.5998
 1021TIP3   OH224477   6.565   0.648   4.062  0.1890 -0.3516  0.0737
 1021TIP3    H124478   6.519   0.690   4.135  0.9205 -1.9790  1.5540
 1021TIP3    H224479   6.526   0.686   3.984 -3.0580 -0.9715  1.2384
 1022TIP3   OH224480   2.975   1.546  17.061  0.1016  0.2006 -0.0699
 1022TIP3    H124481   2.937   1.467  17.023 -1.2850  1.2257 -0.9285
 1022TIP3    H224482   3.001   1.599  16.985  0.0419  0.9973  0.4472
 1023TIP3   OH224483   4.905   0.347   2.429 -0.7243 -0.2627 -0.2786
 1023TIP3    H124484   4.969   0.366   2.361  1.5922  2.4017  2.3281
 1023TIP3    H224485   4.938   0.268   2.471  0.7586  0.8362  0.7515
 1024TIP3   OH224486   0.588   0.623   4.174 -0.2006  0.3055 -0.3930
 1024TIP3    H124487   0.544   0.606   4.090 -1.3573 -1.4263  0.4916
 1024TIP3    H224488   0.648   0.550   4.185 -0.6346  0.0833  0.6271
 1025TIP3   OH224489   3.727   6.088  12.822 -0.3103  0.1931 -0.6020
 1025TIP3    H124490   3.746   6.115  12.912 -0.5207 -1.6457  0.0293
 1025TIP3    H224491   3.634   6.065  12.824 -0.1141 -0.6522 -1.0675
 1026TIP3   OH224492   3.764   4.224  17.265  0.1063  0.2938  0.2355
 1026TIP3    H124493   3.774   4.174  17.184 -1.4441 -0.2406  0.3301
 1026TIP3    H224494   3.801   4.310  17.245  2.2206 -0.6445 -0.1477
 1027TIP3   OH224495   1.770   5.019  14.217  0.4939 -0.5722 -0.0550
 1027TIP3    H124496   1.729   4.963  14.283 -0.8589  2.7186  2.1821
 1027TIP3    H224497   1.719   5.100  14.219  3.2898  1.4216 -1.8065
 1028TIP3   OH224498   5.854   4.401   4.189  0.3384  0.5058 -0.3211
 1028TIP3    H124499   5.779   4.380   4.245  0.2778 -1.4334 -1.0480
 1028TIP3    H224500   5.852   4.496   4.181 -0.6960  0.6761  1.5097
 1029TIP3   OH224501   3.416   4.555   3.074  0.6950 -0.1015  0.0314
 1029TIP3    H124502   3.384   4.465   3.078  1.5637 -0.5735 -1.9996
 1029TIP3    H224503   3.351   4.601   3.021  1.7175 -0.3326 -1.5182
 1030TIP3   OH224504   4.024   5.566  13.154  0.3146 -1.5558 -0.2270
 1030TIP3    H124505   3.967   5.521  13.091  1.4358 -1.4436 -1.3514
 1030TIP3    H224506   4.108   5.572  13.110  0.9760 -0.9472  1.0743
 1031TIP3   OH224507   1.494   5.601  11.392  0.1618 -0.0381 -0.0487
 1031TIP3    H124508   1.465   5.618  11.303  2.0941 -1.3756 -0.9979
 1031TIP3    H224509   1.414   5.606  11.445 -1.0832  0.3918 -1.8819
 1032TIP3   OH224510   1.039   2.296   0.866 -0.0260  0.6902  0.2279
 1032TIP3    H124511   1.021   2.378   0.912 -1.4398  1.3047 -1.3316
 1032TIP3    H224512   1.089   2.244   0.929 -1.2150  1.7759  2.1620
 1033TIP3   OH224513   0.554   6.520  13.713  0.3169 -0.2338 -1.2209
 1033TIP3    H124514   0.647   6.529  13.690 -0.2322  3.6609 -2.5772
 1033TIP3    H224515   0.507   6.543  13.633 -1.8071  0.2601  0.1024
 1034TIP3   OH224516   3.642   3.779   6.213  0.2897  0.0880  0.1186
 1034TIP3    H124517   3.560   3.745   6.247  0.2091 -0.2445 -0.4029
 1034TIP3    H224518   3.710   3.731   6.262  0.1762 -0.2699 -0.0758
 1035TIP3   OH224519   3.930   2.623  13.266 -0.6874  0.0859  0.0560
 1035TIP3    H124520   3.922   2.600  13.359 -1.1046  0.3225  0.0795
 1035TIP3    H224521   3.848   2.592  13.226 -0.5811  0.1366 -0.2043
 1036TIP3   OH224522   2.496   1.231  16.549 -0.1837  0.0790  0.0472
 1036TIP3    H124523   2.544   1.309  16.578 -2.7678  2.3415 -1.2990
 1036TIP3    H224524   2.447   1.202  16.626 -0.1548  0.5485  0.2438
 1037TIP3   OH224525   2.880   5.256   0.374 -0.6338 -0.3430  0.2244
 1037TIP3    H124526   2.871   5.162   0.359 -2.2391 -0.4206  1.4681
 1037TIP3    H224527   2.919   5.289   0.293  1.7388 -2.3026  0.4443
 1038TIP3   OH224528   6.583   3.205   5.943 -0.2376 -0.0206 -0.7066
 1038TIP3    H124529   6.553   3.114   5.936 -0.3004 -0.0796  0.2972
 1038TIP3    H224530   6.505   3.257   5.923 -0.3727 -0.1794 -0.5933
 1039TIP3   OH224531   4.976   4.538   6.013 -0.1072 -0.5179  0.0663
 1039TIP3    H124532   4.978   4.628   5.981  0.9985 -0.6187 -0.1949
 1039TIP3    H224533   4.949   4.486   5.938 -3.6826 -0.1738  0.9352
 1040TIP3   OH224534   6.371   6.618   1.779  0.4184  0.1484  0.5939
 1040TIP3    H124535   6.441   6.556   1.757  0.0058  0.2296 -1.0679
 1040TIP3    H224536   6.410   6.674   1.846  2.2910  0.7029 -0.8502
 1041TIP3   OH224537   0.571   0.929  15.562 -0.4928  1.0635  0.1381
 1041TIP3    H124538   0.596   1.018  15.541  2.2960 -0.2025 -2.6545
 1041TIP3    H224539   0.640   0.897  15.620  0.4902 -0.2558 -1.6759
 1042TIP3   OH224540   4.359   6.475   2.775  0.3258  0.1396 -0.8692
 1042TIP3    H124541   4.418   6.502   2.845  1.4977  1.3534 -2.2552
 1042TIP3    H224542   4.300   6.412   2.816  1.2735  0.4425  1.0690
 1043TIP3   OH224543   6.170   6.032  15.172 -1.0936 -0.2023  0.6342
 1043TIP3    H124544   6.118   6.101  15.131 -1.7603 -0.7295  0.5856
 1043TIP3    H224545   6.114   5.998  15.242 -0.5631 -0.3437  0.9952
 1044TIP3   OH224546   0.997   0.872   2.268 -0.0088  0.1222 -0.0081
 1044TIP3    H124547   1.090   0.855   2.284  0.0391 -0.7204 -1.1148
 1044TIP3    H224548   0.970   0.806   2.204 -1.5183 -0.0180  0.7134
 1045TIP3   OH224549   0.282   1.930   5.848 -0.2801 -0.3984  0.9631
 1045TIP3    H124550   0.337   1.867   5.894  1.0643  0.7246  0.9727
 1045TIP3    H224551   0.344   1.985   5.800 -1.3291  1.4168  1.5920
 1046TIP3   OH224552   4.663   6.457  14.446  0.1639  0.0787  0.4068
 1046TIP3    H124553   4.680   6.365  14.426  1.4119  0.3115  0.2994
 1046TIP3    H224554   4.750   6.495  14.459 -0.2554  1.4778 -0.5726
 1047TIP3   OH224555   2.504   0.622  12.744 -0.4323  0.5739 -0.5111
 1047TIP3    H124556   2.449   0.545  12.736 -0.8336  0.7328  0.5100
 1047TIP3    H224557   2.484   0.675  12.667 -0.6759 -0.0126 -0.8525
 1048TIP3   OH224558   2.073   1.898  16.317  0.0387 -0.5988  0.3422
 1048TIP3    H124559   2.015   1.965  16.279 -0.0673 -0.9163 -0.0676
 1048TIP3    H224560   2.017   1.849  16.377 -0.0558 -0.7311  0.1505
 1049TIP3   OH224561   0.728   0.442   6.670 -0.5455  0.2156  0.0535
 1049TIP3    H124562   0.745   0.348   6.670  0.3175  0.3067 -2.0615
 1049TIP3    H224563   0.814   0.481   6.684 -0.2824  0.6507 -2.3264
 1050TIP3   OH224564   5.846   5.963   5.108  0.0238 -0.2794 -0.0441
 1050TIP3    H124565   5.925   5.974   5.056 -0.4361 -0.6846 -0.8416
 1050TIP3    H224566   5.793   6.039   5.087  0.0739 -0.1551  0.2713
 1051TIP3   OH224567   6.004   4.377   0.832  0.2101  0.1250  0.5212
 1051TIP3    H124568   5.969   4.466   0.841 -0.4998  0.0138 -0.8510
 1051TIP3    H224569   5.956   4.325   0.896  1.1647  0.8405  1.8836
 1052TIP3   OH224570   5.082   5.791  11.021  0.2852 -0.0456  0.8012
 1052TIP3    H124571   5.106   5.767  10.931  1.7901  0.6446  0.9854
 1052TIP3    H224572   5.077   5.707  11.067  1.0640 -0.3083  0.4265
 1053TIP3   OH224573   5.118   0.205   4.114 -0.0770  0.1913  0.3337
 1053TIP3    H124574   5.115   0.123   4.163  2.6302 -0.0611  0.2377
 1053TIP3    H224575   5.096   0.179   4.024 -2.0795  0.1272  0.8081
 1054TIP3   OH224576   2.087   2.164  14.134  0.4429  0.4812  0.1035
 1054TIP3    H124577   2.037   2.148  14.215  0.2818  1.4330  0.2131
 1054TIP3    H224578   2.147   2.235  14.157 -0.0120  1.1700 -0.7707
 1055TIP3   OH224579   3.292   2.877  11.560 -0.4710  0.4130 -0.0626
 1055TIP3    H124580   3.208   2.904  11.598 -0.3192  1.3089 -0.3523
 1055TIP3    H224581   3.273   2.865  11.467 -0.7552 -1.4232  0.1894
 1056TIP3   OH224582   5.855   6.505  16.992  0.0751 -0.6437 -0.2121
 1056TIP3    H124583   5.849   6.492  17.087 -1.3489  0.7989 -0.0592
 1056TIP3    H224584   5.929   6.565  16.981  0.0850 -0.6132  0.0143
 1057TIP3   OH224585   5.593   0.996  10.993 -0.7836  1.2540 -0.4133
 1057TIP3    H124586   5.499   0.988  11.006 -0.5804 -1.8508 -0.0724
 1057TIP3    H224587   5.613   0.939  10.919  1.0964 -0.2988  1.1733
 1058TIP3   OH224588   1.476   2.869  16.784 -0.6198  0.1787  0.6407
 1058TIP3    H124589   1.454   2.780  16.809  0.8195 -0.0975  1.0044
 1058TIP3    H224590   1.391   2.913  16.774 -1.3379 -1.2037  0.4915
 1059TIP3   OH224591   0.149   0.427   3.570 -0.1101  0.2068 -0.0011
 1059TIP3    H124592   0.204   0.385   3.504 -1.8523 -3.9438  0.8873
 1059TIP3    H224593   0.078   0.467   3.520  1.6627  2.5244 -0.8818
 1060TIP3   OH224594   4.785   3.002  15.857  0.3268  0.4564 -0.2281
 1060TIP3    H124595   4.694   3.030  15.858  0.5754  1.2793  0.9378
 1060TIP3    H224596   4.820   3.030  15.941  1.6258  0.0309 -0.6022
 1061TIP3   OH224597   1.305   4.048  15.509  0.0043 -0.4701 -0.2318
 1061TIP3    H124598   1.372   3.980  15.507  2.0885  1.2221  2.8290
 1061TIP3    H224599   1.337   4.115  15.448  1.3228  0.3776  1.2932
 1062TIP3   OH224600   1.634   6.662   2.099 -0.1289  0.4658  0.3298
 1062TIP3    H124601   1.619   6.596   2.031 -0.2585 -2.1210  2.6954
 1062TIP3    H224602   1.549   6.677   2.138  0.2669  0.3935  1.2345
 1063TIP3   OH224603   5.037   4.883   1.551  0.1228 -0.4234 -0.1092
 1063TIP3    H124604   5.126   4.914   1.534 -0.0043 -0.3833 -0.6916
 1063TIP3    H224605   5.033   4.876   1.647  0.1552  1.3638  0.0466
 1064TIP3   OH224606   3.339   3.697   3.442 -0.0763  0.0821  0.2276
 1064TIP3    H124607   3.367   3.785   3.418  0.0789 -0.2302 -0.7823
 1064TIP3    H224608   3.326   3.652   3.358  1.3485 -1.3176  0.7035
 1065TIP3   OH224609   1.066   3.656   1.312 -0.7928  0.0586 -0.2114
 1065TIP3    H124610   0.984   3.636   1.265 -0.6044 -0.2103 -0.4277
 1065TIP3    H224611   1.077   3.751   1.300 -0.6936 -0.0203 -0.8072
 1066TIP3   OH224612   6.143   1.405   5.695 -0.2320 -0.1437 -0.3430
 1066TIP3    H124613   6.094   1.450   5.627  1.9910  1.1577 -1.1969
 1066TIP3    H224614   6.233   1.434   5.682  0.4764 -0.9299  2.3328
 1067TIP3   OH224615   0.278   1.789   3.016 -0.2273  0.0951  0.1252
 1067TIP3    H124616   0.345   1.817   2.954 -0.5458 -0.2759 -0.3905
 1067TIP3    H224617   0.197   1.829   2.984 -0.7335 -1.5757 -0.7550
 1068TIP3   OH224618   6.680   1.728  11.135 -0.3692  0.6845 -0.0985
 1068TIP3    H124619   6.611   1.722  11.069 -0.1788 -0.0555 -0.2346
 1068TIP3    H224620   6.761   1.727  11.085 -0.0955 -2.5346  0.2120
 1069TIP3   OH224621   3.162   0.611   5.747 -0.3219  0.0821  0.0867
 1069TIP3    H124622   3.196   0.677   5.808 -0.0653  0.0258  0.0050
 1069TIP3    H224623   3.075   0.641   5.725  0.7940  1.9276 -2.1751
 1070TIP3   OH224624   5.761   4.633   3.559 -0.1200 -0.4302  0.0613
 1070TIP3    H124625   5.725   4.697   3.498 -1.9668 -0.2293  1.2516
 1070TIP3    H224626   5.821   4.580   3.507 -1.6867 -0.3484 -1.9616
 1071TIP3   OH224627   4.633   4.444   0.916 -0.6181  0.0765 -0.1836
 1071TIP3    H124628   4.579   4.375   0.878  0.0046  0.6402 -2.2012
 1071TIP3    H224629   4.721   4.426   0.885 -0.2303  1.0574  0.3140
 1072TIP3   OH224630   4.858   2.389   1.037 -0.7635 -0.1234 -0.3653
 1072TIP3    H124631   4.910   2.309   1.028  0.0140  0.4784 -1.4734
 1072TIP3    H224632   4.768   2.363   1.015 -0.3047 -0.4557 -1.9385
 1073TIP3   OH224633   0.558   1.155   6.399  0.0215  0.2914 -0.2440
 1073TIP3    H124634   0.605   1.168   6.316  0.7051  1.2656  0.2665
 1073TIP3    H224635   0.466   1.160   6.375  0.1837 -0.7472 -1.1391
 1074TIP3   OH224636   6.190   3.744   4.922 -0.1104  0.0676 -0.0759
 1074TIP3    H124637   6.113   3.710   4.967  0.0384  0.8232  0.8105
 1074TIP3    H224638   6.178   3.721   4.830 -0.9826 -0.5406  0.1827
 1075TIP3   OH224639   2.523   4.321  11.145 -0.0738 -0.1004 -0.1274
 1075TIP3    H124640   2.496   4.229  11.141  0.0667 -0.1762  0.6290
 1075TIP3    H224641   2.493   4.358  11.061 -0.2888 -0.7881 -0.3608
 1076TIP3   OH224642   4.785   6.433   6.528 -0.4643 -0.5686  0.0248
 1076TIP3    H124643   4.873   6.422   6.563 -0.5013 -3.4425 -0.6057
 1076TIP3    H224644   4.797   6.442   6.433 -0.7168  2.3563  0.1551
 1077TIP3   OH224645   3.861   4.362   2.879 -0.0133  0.0041 -0.1219
 1077TIP3    H124646   3.890   4.432   2.820  2.5518 -0.9575 -0.1153
 1077TIP3    H224647   3.809   4.408   2.946 -0.1753  1.5839 -1.2708
 1078TIP3   OH224648   3.749   2.597  14.858 -0.2561  0.0213  0.0131
 1078TIP3    H124649   3.832   2.585  14.906  0.0723 -2.4828 -1.0156
 1078TIP3    H224650   3.693   2.526  14.890 -1.0816  0.1172 -1.1522
 1079TIP3   OH224651   1.948   4.111   1.028  0.5047  0.2022 -0.4096
 1079TIP3    H124652   1.882   4.043   1.019  0.3828  0.4824 -1.9655
 1079TIP3    H224653   2.030   4.064   1.037  0.1809 -0.1428  1.0076
 1080TIP3   OH224654   3.856   2.447  12.923 -0.1618 -0.5128  0.7543
 1080TIP3    H124655   3.828   2.359  12.946  0.8075 -0.4928  2.1515
 1080TIP3    H224656   3.939   2.436  12.877  1.0130 -0.2904  2.7055
 1081TIP3   OH224657   0.144   2.668   1.690 -0.0307 -0.2838  0.9140
 1081TIP3    H124658   0.225   2.672   1.639 -0.3172 -0.7335  0.4139
 1081TIP3    H224659   0.172   2.670   1.781  0.5325 -0.3022  0.7419
 1082TIP3   OH224660   3.218   0.343   5.775 -0.2557  0.5020  0.2605
 1082TIP3    H124661   3.192   0.435   5.770  1.3156  0.9649  0.0390
 1082TIP3    H224662   3.310   0.345   5.803  0.2711 -0.9266 -1.1782
 1083TIP3   OH224663   5.072   5.704  15.101 -0.7283 -0.4299 -0.0322
 1083TIP3    H124664   5.096   5.650  15.025  0.6636  0.2635 -0.1270
 1083TIP3    H224665   5.088   5.794  15.072 -0.5513 -0.1391  0.9440
 1084TIP3   OH224666   3.654   1.210  17.422 -1.2079  0.1491  0.4842
 1084TIP3    H124667   3.598   1.273  17.466 -0.1015  0.8416  0.9565
 1084TIP3    H224668   3.743   1.235  17.448 -0.7494 -1.7275  0.8549
 1085TIP3   OH224669   6.492   2.634  14.820 -0.2548 -0.3568  0.7492
 1085TIP3    H124670   6.473   2.569  14.753 -0.7285  1.4877 -1.0274
 1085TIP3    H224671   6.523   2.711  14.771 -2.2016  1.6573  2.4329
 1086TIP3   OH224672   2.714   5.443   1.552  0.1068  0.2273  0.2259
 1086TIP3    H124673   2.796   5.394   1.553 -0.5589 -1.0650 -1.8250
 1086TIP3    H224674   2.660   5.401   1.620  0.8558  0.6317  1.0948
 1087TIP3   OH224675   4.202   0.325   0.779  0.2843 -0.7161 -0.5539
 1087TIP3    H124676   4.148   0.298   0.853 -1.1293  2.1537 -0.3947
 1087TIP3    H224677   4.139   0.335   0.707  1.3593 -1.7259 -1.6701
 1088TIP3   OH224678   1.793   6.502   4.784  0.3554 -0.2295 -0.1815
 1088TIP3    H124679   1.853   6.541   4.848  0.0428 -0.6654  0.3948
 1088TIP3    H224680   1.851   6.459   4.721  0.6613 -0.7944  0.4633
 1089TIP3   OH224681   2.399   5.165   0.137  0.2580 -0.1188 -0.1508
 1089TIP3    H124682   2.305   5.167   0.122  0.4088  0.3445 -1.1143
 1089TIP3    H224683   2.408   5.169   0.232 -0.6906 -0.1930 -0.0468
 1090TIP3   OH224684   0.437   4.115   0.451  0.4049 -0.0301  0.2768
 1090TIP3    H124685   0.387   4.108   0.369  0.9715  1.2192 -0.1974
 1090TIP3    H224686   0.415   4.201   0.485 -0.5522 -0.9010  1.9563
 1091TIP3   OH224687   2.587   5.565   7.119  0.5278 -0.0077 -1.1091
 1091TIP3    H124688   2.568   5.477   7.084  0.4909 -1.1430  1.5023
 1091TIP3    H224689   2.682   5.565   7.131  0.3027 -0.8546  1.4221
 1092TIP3   OH224690   4.060   1.353  10.977  0.4802 -0.3329  0.5935
 1092TIP3    H124691   4.058   1.444  10.947  0.5631 -0.4137  0.3330
 1092TIP3    H224692   4.117   1.355  11.054 -0.3509  0.0070  1.2146
 1093TIP3   OH224693   5.346   5.171  10.687 -0.0957  0.5931  0.0822
 1093TIP3    H124694   5.316   5.184  10.777  0.8729  3.2618  0.1097
 1093TIP3    H224695   5.439   5.196  10.689 -0.1606  1.1386 -1.7323
 1094TIP3   OH224696   2.218   0.093   0.620  0.2302 -0.4221 -0.4962
 1094TIP3    H124697   2.240   0.177   0.580 -2.0522 -0.3332 -1.7521
 1094TIP3    H224698   2.262   0.028   0.564  0.9649 -0.1305 -0.2697
 1095TIP3   OH224699   2.009   0.447   3.839 -0.4023 -0.2002 -0.3877
 1095TIP3    H124700   1.985   0.539   3.843  2.5486  0.8448 -2.7227
 1095TIP3    H224701   1.958   0.411   3.766 -3.4002 -1.2202  2.0198
 1096TIP3   OH224702   6.581   6.585  16.928 -0.1457 -0.0628 -0.0756
 1096TIP3    H124703   6.500   6.545  16.960  0.1108 -2.2134 -1.8442
 1096TIP3    H224704   6.560   6.678  16.920 -1.7103 -0.2226  1.5473
 1097TIP3   OH224705   4.433   1.603   1.826  0.3883  0.3115  0.1190
 1097TIP3    H124706   4.491   1.656   1.881  1.6090 -1.2215  0.3747
 1097TIP3    H224707   4.367   1.569   1.886  1.5330 -1.1015  0.6334
 1098TIP3   OH224708   5.423   2.938  16.561 -0.1327  0.1111  0.6273
 1098TIP3    H124709   5.497   2.930  16.501 -1.7027  1.0902 -1.5362
 1098TIP3    H224710   5.448   3.008  16.622  0.8024  0.2750  0.0623
 1099TIP3   OH224711   5.964   6.440  16.690 -0.7423 -0.0923 -0.3181
 1099TIP3    H124712   5.890   6.381  16.678 -0.5496 -0.5355  0.6429
 1099TIP3    H224713   6.005   6.412  16.772  1.0553 -0.4689 -1.2911
 1100TIP3   OH224714   6.167   4.400  17.004 -0.5259  0.2846 -0.6437
 1100TIP3    H124715   6.182   4.472  16.943  0.2121 -0.1291 -0.9564
 1100TIP3    H224716   6.172   4.441  17.091  2.7718  0.2003 -0.6738
 1101TIP3   OH224717   1.670   0.828   6.668 -0.6817 -0.4282  0.1293
 1101TIP3    H124718   1.638   0.883   6.597  0.5649  0.8409  0.5087
 1101TIP3    H224719   1.764   0.848   6.674 -0.6212 -1.0218  1.6802
 1102TIP3   OH224720   1.777   3.197  12.181  0.0412  0.2743  0.2686
 1102TIP3    H124721   1.835   3.272  12.187 -0.3382  0.5052  1.2808
 1102TIP3    H224722   1.835   3.122  12.169  0.6603  0.3718  2.2621
 1103TIP3   OH224723   2.445   3.472   0.131  0.6237  0.6323  0.1315
 1103TIP3    H124724   2.453   3.439   0.042 -3.1941 -1.6922  0.4282
 1103TIP3    H224725   2.422   3.565   0.121  0.5119  0.4618 -1.2832
 1104TIP3   OH224726   1.833   4.022   5.252  0.0447  0.1699 -0.2174
 1104TIP3    H124727   1.875   4.087   5.196 -0.5415  0.9981  0.2862
 1104TIP3    H224728   1.881   3.941   5.235  0.6256  0.6750 -1.0361
 1105TIP3   OH224729   0.460   3.304   2.550 -0.5113 -0.5609  0.2825
 1105TIP3    H124730   0.515   3.383   2.544 -0.3542 -0.7693 -1.5604
 1105TIP3    H224731   0.511   3.244   2.604 -0.6975  0.6189  1.8631
 1106TIP3   OH224732   3.625   3.518   4.961 -0.5553  0.1847  0.4152
 1106TIP3    H124733   3.654   3.597   4.914 -2.3999  0.0760 -0.9983
 1106TIP3    H224734   3.660   3.445   4.910 -1.3843  0.0742 -0.0004
 1107TIP3   OH224735   5.068   6.594  10.935 -0.1234 -0.1257 -0.0783
 1107TIP3    H124736   5.141   6.595  10.997 -0.6096  0.4487  0.4887
 1107TIP3    H224737   5.104   6.550  10.857  0.3682 -1.2319  0.7429
 1108TIP3   OH224738   6.686   2.367  11.624  0.1450  0.1125  0.2248
 1108TIP3    H124739   6.592   2.347  11.625  0.3019 -0.7004  0.0205
 1108TIP3    H224740   6.728   2.281  11.613  1.0288  0.0659  3.2011
 1109TIP3   OH224741   2.899   0.234  12.186  0.7344 -0.0197  0.2568
 1109TIP3    H124742   2.832   0.257  12.122  0.9527  1.0033  0.3752
 1109TIP3    H224743   2.869   0.151  12.223  0.4700 -0.4811 -0.9657
 1110TIP3   OH224744   5.681   0.339  15.920 -0.2592 -0.2329  0.4244
 1110TIP3    H124745   5.653   0.271  15.859  2.6610 -2.1233  0.9615
 1110TIP3    H224746   5.671   0.300  16.006 -1.4886  1.2776  1.0115
 1111TIP3   OH224747   2.794   3.479   3.132 -0.2958 -1.0195 -0.2383
 1111TIP3    H124748   2.816   3.570   3.111  0.0979 -0.8747  0.7494
 1111TIP3    H224749   2.863   3.451   3.192 -1.6335 -1.2459  1.2552
 1112TIP3   OH224750   5.875   0.110  16.936  0.1550 -0.0740 -0.2628
 1112TIP3    H124751   5.784   0.140  16.935 -0.2222 -1.1658 -1.5717
 1112TIP3    H224752   5.910   0.143  17.019 -0.6725  2.5410 -0.8526
 1113TIP3   OH224753   1.206   4.136   2.180 -0.2647 -0.4906  0.4886
 1113TIP3    H124754   1.120   4.175   2.166 -0.2750 -0.4911  0.5516
 1113TIP3    H224755   1.228   4.157   2.270 -0.3392 -0.7606  0.5717
 1114TIP3   OH224756   6.479   2.160   0.535  0.1417 -0.3184  0.0363
 1114TIP3    H124757   6.494   2.225   0.602 -0.2436  1.6736 -1.7077
 1114TIP3    H224758   6.391   2.179   0.502 -0.1113 -1.9276 -0.3308
 1115TIP3   OH224759   2.062   1.631  11.230  0.1542  0.0679 -0.0975
 1115TIP3    H124760   2.014   1.709  11.256 -0.1613 -0.4157  0.8458
 1115TIP3    H224761   1.994   1.569  11.203  0.0449 -1.1227  2.5847
 1116TIP3   OH224762   6.654   4.163   4.307 -0.1822  0.4225 -0.1384
 1116TIP3    H124763   6.564   4.133   4.299 -0.3333  0.9443 -0.3634
 1116TIP3    H224764   6.649   4.245   4.355  0.2521  0.0147  0.6216
 1117TIP3   OH224765   4.251   1.762  11.686 -0.0525 -0.0114 -0.1109
 1117TIP3    H124766   4.275   1.808  11.606  0.8922  1.3112  0.8932
 1117TIP3    H224767   4.244   1.831  11.752 -1.7098 -0.9592  0.7786
 1118TIP3   OH224768   6.238   5.770  13.917 -0.6052 -0.4019  0.2803
 1118TIP3    H124769   6.165   5.802  13.864  2.1932  1.5100 -2.8486
 1118TIP3    H224770   6.239   5.675  13.901 -1.1372 -0.1573 -1.4806
 1119TIP3   OH224771   6.007   1.812   4.946  0.5478  0.1959 -0.0639
 1119TIP3    H124772   6.102   1.804   4.955  0.4711  0.7384  1.6147
 1119TIP3    H224773   5.991   1.907   4.951 -0.1095  0.0779  0.1539
 1120TIP3   OH224774   4.754   2.329  14.067 -0.0820  0.6908  0.2112
 1120TIP3    H124775   4.660   2.329  14.051 -0.5049  2.3235  2.2907
 1120TIP3    H224776   4.789   2.393  14.004 -0.4249  0.5005 -0.1798
 1121TIP3   OH224777   6.305   6.198   3.216  0.3620 -0.2121 -0.0651
 1121TIP3    H124778   6.226   6.206   3.269 -0.9484  0.9740 -2.0345
 1121TIP3    H224779   6.348   6.284   3.223  0.0198  0.0611 -1.0867
 1122TIP3   OH224780   3.456   4.173   4.938 -0.0907  0.0539  0.2928
 1122TIP3    H124781   3.396   4.246   4.924 -1.4776 -0.8902  1.0118
 1122TIP3    H224782   3.463   4.131   4.852 -0.3833  0.2411  0.1741
 1123TIP3   OH224783   0.284   5.799  11.283 -0.0256  0.1489 -0.0025
 1123TIP3    H124784   0.335   5.739  11.338  1.7514  1.3636 -0.2159
 1123TIP3    H224785   0.319   5.886  11.305 -1.4922  0.9579 -0.7668
 1124TIP3   OH224786   3.948   1.379   0.039 -0.1313  0.0724  0.6113
 1124TIP3    H124787   4.037   1.369   0.006 -0.5931 -0.7550 -0.4406
 1124TIP3    H224788   3.937   1.306   0.100 -0.0464  0.2814  0.8845
 1125TIP3   OH224789   0.257   3.422   3.840 -0.0359 -0.0987 -0.2348
 1125TIP3    H124790   0.225   3.450   3.754 -0.8390  0.3827  0.2106
 1125TIP3    H224791   0.265   3.503   3.890  1.4094 -0.2614 -0.1556
 1126TIP3   OH224792   4.026   2.767  14.698  0.1561 -0.2251  0.0732
 1126TIP3    H124793   4.028   2.760  14.603  0.4957  1.1206 -0.0508
 1126TIP3    H224794   4.096   2.710  14.729  0.8884  0.3147 -0.5717
 1127TIP3   OH224795   3.686   5.574   2.316 -0.0071  0.2666 -0.4166
 1127TIP3    H124796   3.597   5.561   2.347 -0.3516 -0.5232 -1.6922
 1127TIP3    H224797   3.700   5.668   2.322 -0.3203  0.2283  1.3628
 1128TIP3   OH224798   6.076   5.578   1.223  0.2959 -0.4396 -0.1738
 1128TIP3    H124799   5.999   5.623   1.258  0.5856 -0.9826  1.2660
 1128TIP3    H224800   6.129   5.648   1.185 -0.0589  0.2099  0.4801
 1129TIP3   OH224801   0.055   3.261   5.483 -0.3735 -0.0272  0.4914
 1129TIP3    H124802   0.012   3.176   5.485 -0.8859  0.1625 -0.8943
 1129TIP3    H224803   0.069   3.284   5.575 -1.1926 -1.1127  0.9046
 1130TIP3   OH224804   5.676   0.374   0.639 -0.3762 -0.9025  0.3549
 1130TIP3    H124805   5.697   0.354   0.547 -3.1617  0.4095 -0.6838
 1130TIP3    H224806   5.720   0.305   0.689  2.0567 -1.1125 -1.8346
 1131TIP3   OH224807   4.997   6.027   2.384 -0.9937  0.4845  0.4372
 1131TIP3    H124808   4.906   6.021   2.414 -0.2939  1.1394  2.8948
 1131TIP3    H224809   5.039   5.948   2.418 -1.0746 -1.0324 -2.6764
 1132TIP3   OH224810   5.105   4.256  17.123  0.2039  0.5319 -0.2580
 1132TIP3    H124811   5.192   4.224  17.099  0.2409  1.0925 -0.9292
 1132TIP3    H224812   5.063   4.183  17.169  0.6384 -0.1162 -0.8763
 1133TIP3   OH224813   4.209   3.545  13.189  0.6774 -0.4106  0.1356
 1133TIP3    H124814   4.132   3.499  13.156  1.2173  0.0097 -1.8506
 1133TIP3    H224815   4.281   3.482  13.180  0.7156 -0.5924  1.4145
 1134TIP3   OH224816   2.805   5.680   6.079 -0.0962 -0.7326 -0.1866
 1134TIP3    H124817   2.804   5.586   6.062  1.1757 -0.9083  0.5530
 1134TIP3    H224818   2.883   5.712   6.032 -1.8202  0.4102 -2.4656
 1135TIP3   OH224819   1.569   2.503   2.973  0.0204  1.1213 -0.4306
 1135TIP3    H124820   1.474   2.510   2.961 -0.1113  0.6108  0.2805
 1135TIP3    H224821   1.597   2.594   2.989 -0.0260  1.5977 -2.7355
 1136TIP3   OH224822   1.535   4.560  13.496 -0.2789 -0.1799  0.2470
 1136TIP3    H124823   1.541   4.470  13.463 -1.2253 -1.3345  2.9408
 1136TIP3    H224824   1.621   4.598  13.477  0.0387 -1.5154 -1.2304
 1137TIP3   OH224825   0.632   2.388  13.184 -0.6446 -0.2528  0.3386
 1137TIP3    H124826   0.720   2.365  13.216 -0.6919 -1.0272 -0.0661
 1137TIP3    H224827   0.627   2.348  13.097 -0.2772  2.3562 -0.9953
 1138TIP3   OH224828   4.118   5.326   5.808  0.7055 -0.2350  0.0493
 1138TIP3    H124829   4.114   5.422   5.814  3.3382  0.1950 -2.6732
 1138TIP3    H224830   4.186   5.301   5.872  1.4697 -0.0062 -0.6520
 1139TIP3   OH224831   1.479   3.833  15.450 -0.0523  0.4763  0.3516
 1139TIP3    H124832   1.454   3.746  15.420 -3.1719  0.1164  3.3691
 1139TIP3    H224833   1.575   3.830  15.455  0.1640 -1.5914 -2.6046
 1140TIP3   OH224834   5.431   4.211  12.465 -0.2286  0.0805 -0.5582
 1140TIP3    H124835   5.513   4.222  12.417 -0.4351  0.1561 -0.8997
 1140TIP3    H224836   5.453   4.153  12.538  0.9368  2.7440  1.3640
 1141TIP3   OH224837   3.134   1.248   0.962 -0.0747 -0.1722  0.1311
 1141TIP3    H124838   3.140   1.183   0.892 -1.7654 -0.7039  0.4407
 1141TIP3    H224839   3.184   1.210   1.035 -3.1681 -2.5186  1.2603
 1142TIP3   OH224840   1.230   2.478  13.465 -0.0546 -0.0804  0.3595
 1142TIP3    H124841   1.198   2.507  13.379  2.1548  0.7921 -0.2200
 1142TIP3    H224842   1.247   2.385  13.454 -2.3878 -0.6313  0.7395
 1143TIP3   OH224843   3.479   3.711   5.703  0.1430  0.2131 -0.4306
 1143TIP3    H124844   3.546   3.654   5.665  1.0576  2.0104 -1.6547
 1143TIP3    H224845   3.516   3.741   5.786 -0.0469 -0.4169 -0.1151
 1144TIP3   OH224846   0.422   5.296   5.630  0.2797  0.1176  0.8934
 1144TIP3    H124847   0.340   5.294   5.679  0.4206 -0.1771  1.1172
 1144TIP3    H224848   0.409   5.233   5.559 -0.8170  2.2161 -0.9013
 1145TIP3   OH224849   1.519   0.979   2.039 -0.8002  0.2676  0.0369
 1145TIP3    H124850   1.591   0.919   2.020 -1.6624 -0.0982 -2.4521
 1145TIP3    H224851   1.445   0.943   1.990 -2.5977  0.8787  2.1603
 1146TIP3   OH224852   0.515   6.487  12.283 -0.6623  0.2283  0.1470
 1146TIP3    H124853   0.581   6.434  12.325  1.0090  1.1469 -1.1971
 1146TIP3    H224854   0.510   6.567  12.336 -2.9007 -0.9789  1.9452
 1147TIP3   OH224855   6.242   0.376  11.984  0.0860 -0.8560 -0.3512
 1147TIP3    H124856   6.263   0.433  12.058 -0.8269  0.4431 -1.0555
 1147TIP3    H224857   6.328   0.354  11.946  0.4564  0.0372 -0.0603
 1148TIP3   OH224858   6.156   5.999  15.596  0.0689  0.4654  0.2428
 1148TIP3    H124859   6.084   5.960  15.647 -0.0983 -0.0217 -0.3582
 1148TIP3    H224860   6.167   6.086  15.634 -0.0883  0.1314  1.0799
 1149TIP3   OH224861   4.420   1.722  16.534 -0.0891  0.0340  0.5329
 1149TIP3    H124862   4.370   1.641  16.547  0.2797 -0.2831  0.0102
 1149TIP3    H224863   4.408   1.743  16.442 -3.2547  2.6444  1.3344
 1150TIP3   OH224864   3.558   1.793  11.710  0.1433 -0.5198  0.0493
 1150TIP3    H124865   3.496   1.783  11.638 -0.5511 -0.1850  0.5849
 1150TIP3    H224866   3.635   1.742  11.683 -0.1661 -0.5285 -0.8454
 1151TIP3   OH224867   1.363   2.541   5.138  0.4275  0.3999 -0.7668
 1151TIP3    H124868   1.313   2.460   5.150 -0.2887  1.0410  0.7362
 1151TIP3    H224869   1.371   2.550   5.043  0.4706 -1.3972 -0.9638
 1152TIP3   OH224870   3.719   2.892   4.984 -0.5280  0.3316 -0.5752
 1152TIP3    H124871   3.642   2.903   4.928 -1.0840 -1.4511 -0.2153
 1152TIP3    H224872   3.685   2.891   5.073 -0.0829 -0.3545 -0.4043
 1153TIP3   OH224873   4.935   0.235   4.820  0.3233 -1.0556 -0.2452
 1153TIP3    H124874   5.014   0.248   4.874  0.1971  1.0074 -0.5027
 1153TIP3    H224875   4.898   0.153   4.853  2.5529 -2.0829 -0.1089
 1154TIP3   OH224876   6.334   0.503  12.216  0.2134  0.4994 -0.7965
 1154TIP3    H124877   6.380   0.439  12.271  0.5324  0.2562 -1.3452
 1154TIP3    H224878   6.306   0.571  12.278 -1.9598 -1.1425  0.1772
 1155TIP3   OH224879   1.949   6.137  14.192 -0.1403 -0.9384 -0.1248
 1155TIP3    H124880   1.912   6.225  14.190  0.7174 -0.3656  3.3722
 1155TIP3    H224881   1.991   6.126  14.107 -0.8851  1.7215 -0.9078
 1156TIP3   OH224882   6.208   3.092   0.790  0.2922  0.3665  0.0100
 1156TIP3    H124883   6.115   3.093   0.766 -0.1178  0.7215  1.5133
 1156TIP3    H224884   6.214   3.155   0.862  1.8392  0.8600 -0.5245
 1157TIP3   OH224885   2.025   6.527   4.319 -0.5584 -0.7912  0.1996
 1157TIP3    H124886   2.036   6.444   4.366  0.8908 -0.7103  0.0267
 1157TIP3    H224887   1.954   6.571   4.367 -1.0452 -1.9159  0.5654
 1158TIP3   OH224888   4.683   2.823   4.760  0.4851 -0.0265 -0.0949
 1158TIP3    H124889   4.695   2.751   4.698 -2.3667 -0.6494 -0.0336
 1158TIP3    H224890   4.697   2.784   4.846  1.4493  0.1289 -0.1690
 1159TIP3   OH224891   3.469   0.169  11.531  0.6998 -0.0802 -0.5494
 1159TIP3    H124892   3.480   0.108  11.458  3.1796 -0.2352 -0.1522
 1159TIP3    H224893   3.401   0.130  11.585 -2.1101  0.6581 -3.3012
 1160TIP3   OH224894   6.663   5.619  15.980  0.4649  0.5274  0.6765
 1160TIP3    H124895   6.698   5.531  15.994  2.4310  1.4179  1.6941
 1160TIP3    H224896   6.585   5.622  16.035 -0.0976 -0.8210  0.0036
 1161TIP3   OH224897   2.608   3.869   0.418 -0.1168  0.0751 -0.0022
 1161TIP3    H124898   2.525   3.839   0.382 -0.4465  0.5207  0.3944
 1161TIP3    H224899   2.661   3.789   0.425  0.0392 -0.0000 -1.6669
 1162TIP3   OH224900   0.280   3.298  16.411  0.8824  0.1634 -0.3512
 1162TIP3    H124901   0.270   3.318  16.318 -0.1012 -0.3805 -0.3658
 1162TIP3    H224902   0.326   3.214  16.412 -1.7342 -1.3831 -0.4451
 1163TIP3   OH224903   5.918   0.617   5.139  0.1656 -0.2079 -0.1742
 1163TIP3    H124904   5.857   0.543   5.145  0.7466 -0.5882  1.7659
 1163TIP3    H224905   5.975   0.607   5.215  1.5293  1.1404 -0.9708
 1164TIP3   OH224906   1.425   0.565   2.550  0.2797  0.8810 -0.4254
 1164TIP3    H124907   1.516   0.535   2.557  0.5847  1.7417 -0.5709
 1164TIP3    H224908   1.414   0.625   2.624 -0.1721  0.7774 -0.4066
 1165TIP3   OH224909   1.131   0.732   5.295  0.2748 -0.2386  0.0112
 1165TIP3    H124910   1.153   0.730   5.388 -0.3046  1.1011  0.2011
 1165TIP3    H224911   1.198   0.787   5.256 -0.2760  0.3611 -0.1123
 1166TIP3   OH224912   3.334   6.309  14.946  0.0348 -0.3257 -0.5916
 1166TIP3    H124913   3.378   6.294  14.862  0.7901 -0.4119 -0.1877
 1166TIP3    H224914   3.322   6.222  14.983  0.4303 -0.2317 -0.2445
 1167TIP3   OH224915   5.100   4.040  15.554 -0.1936 -0.2216  0.0647
 1167TIP3    H124916   5.174   4.095  15.527  1.3550 -2.8376 -1.4403
 1167TIP3    H224917   5.031   4.059  15.490 -0.1360  0.8030  0.2894
 1168TIP3   OH224918   1.591   5.850   4.720 -0.0373  0.0434  0.1677
 1168TIP3    H124919   1.551   5.867   4.805 -0.2320  0.3299  0.0218
 1168TIP3    H224920   1.657   5.783   4.737 -0.2290 -0.0631  0.5038
 1169TIP3   OH224921   5.937   1.303   1.077  0.0730  0.1595  0.4069
 1169TIP3    H124922   5.870   1.372   1.074  1.0686  1.2336  1.5312
 1169TIP3    H224923   5.902   1.233   1.021 -2.6483  0.0632  2.0568
 1170TIP3   OH224924   6.054   1.420   5.428 -0.3067 -0.3912 -0.7059
 1170TIP3    H124925   5.961   1.411   5.451  0.3310 -2.5393  1.4939
 1170TIP3    H224926   6.077   1.508   5.459 -0.9124 -1.0369  1.8285
 1171TIP3   OH224927   5.252   6.085   1.455 -0.0663  0.3471  0.3706
 1171TIP3    H124928   5.302   6.161   1.424  0.0860 -0.3676 -1.2420
 1171TIP3    H224929   5.228   6.038   1.375 -2.8028  0.3118  1.0930
 1172TIP3   OH224930   4.362   4.065   6.212  0.1424 -0.3901 -0.0272
 1172TIP3    H124931   4.419   4.103   6.279 -0.7283  0.9800 -0.0212
 1172TIP3    H224932   4.287   4.124   6.208  0.9887  0.6817 -3.4945
 1173TIP3   OH224933   2.963   2.942   0.031 -0.2615  0.4285 -0.2792
 1173TIP3    H124934   2.939   2.904  -0.053 -0.0470 -2.4177  0.8197
 1173TIP3    H224935   3.057   2.958   0.025 -0.3644  0.8496 -0.7858
 1174TIP3   OH224936   0.654   0.009  13.986 -0.0180 -0.2631  0.4635
 1174TIP3    H124937   0.686  -0.080  13.971 -1.1333 -0.7352  0.7273
 1174TIP3    H224938   0.582  -0.002  14.048  1.2713  1.0890  2.3142
 1175TIP3   OH224939   6.662   5.099   1.629 -0.1906 -0.1143  0.2393
 1175TIP3    H124940   6.621   5.151   1.698 -0.1763  0.1608  0.0396
 1175TIP3    H224941   6.654   5.009   1.660 -0.8116 -0.0529  0.2813
 1176TIP3   OH224942   2.763   3.095  13.037 -0.3040 -0.7068  0.4012
 1176TIP3    H124943   2.770   3.027  13.105 -1.1583 -0.1198  1.1020
 1176TIP3    H224944   2.771   3.178  13.085  0.3781 -0.2919 -0.3977
 1177TIP3   OH224945   5.292   4.445  12.217 -0.3128 -0.2525  0.1836
 1177TIP3    H124946   5.355   4.429  12.147  0.1176 -2.9031  1.0497
 1177TIP3    H224947   5.236   4.515  12.184  1.7288  0.6735 -1.5210
 1178TIP3   OH224948   1.620   2.623  16.934 -0.5448  0.2084 -0.0156
 1178TIP3    H124949   1.552   2.570  16.892  0.4614 -0.9757 -0.1943
 1178TIP3    H224950   1.693   2.563  16.947  0.8951  1.7172 -0.8174
 1179TIP3   OH224951   2.842   0.280   1.324  0.6134  0.0216 -0.0569
 1179TIP3    H124952   2.765   0.336   1.330  0.7985  0.2587  0.1552
 1179TIP3    H224953   2.807   0.193   1.308  0.3220  0.1933 -0.3558
 1180TIP3   OH224954   3.233   1.199   4.908  0.0797 -0.2815  0.1562
 1180TIP3    H124955   3.257   1.145   4.833 -0.4455  0.6055 -0.6629
 1180TIP3    H224956   3.301   1.180   4.973  0.1097 -1.6439 -0.2380
 1181TIP3   OH224957   2.756   5.489  15.477  0.4455  0.2619  0.4635
 1181TIP3    H124958   2.845   5.471  15.509  0.3478 -1.7851 -0.2517
 1181TIP3    H224959   2.700   5.439  15.536  0.1430 -2.1858 -1.7065
 1182TIP3   OH224960   0.278   4.487   1.599  0.1753 -0.2688 -0.5097
 1182TIP3    H124961   0.248   4.571   1.565 -0.2154 -1.3856 -3.2140
 1182TIP3    H224962   0.218   4.466   1.670 -0.7247  0.9865 -0.8714
 1183TIP3   OH224963   4.104   1.658  17.304  0.1976 -0.5490  0.3494
 1183TIP3    H124964   4.120   1.727  17.240 -0.1809 -1.8483 -1.1865
 1183TIP3    H224965   4.118   1.576  17.257 -1.7126 -1.5876  1.4275
 1184TIP3   OH224966   3.286   5.881  12.387 -0.2302 -0.4640  0.1013
 1184TIP3    H124967   3.284   5.967  12.427  1.9253  0.2776 -1.2447
 1184TIP3    H224968   3.216   5.832  12.432 -0.3091  1.3841  2.1456
 1185TIP3   OH224969   2.788   4.289   4.233 -0.1359  0.0197 -0.3869
 1185TIP3    H124970   2.734   4.356   4.274  1.0753  0.0829  1.1907
 1185TIP3    H224971   2.807   4.227   4.303  0.2884 -1.0068 -1.3665
 1186TIP3   OH224972   1.861   4.933  11.875  0.3087  0.0267 -0.1373
 1186TIP3    H124973   1.948   4.940  11.913  0.5720 -1.4132 -0.4210
 1186TIP3    H224974   1.861   4.849  11.829 -1.5262 -0.4828  0.6689
 1187TIP3   OH224975   1.567   6.342   1.870  0.2768 -0.1589 -0.5818
 1187TIP3    H124976   1.495   6.403   1.883 -0.5036 -1.2422  0.4319
 1187TIP3    H224977   1.573   6.331   1.775  1.7057  2.8921 -0.9593
 1188TIP3   OH224978   3.710   4.700  14.931  0.4381 -0.0445  0.0728
 1188TIP3    H124979   3.637   4.697  14.869 -0.0523 -0.4396  0.6603
 1188TIP3    H224980   3.724   4.793  14.947 -1.3757  0.0366  1.5910
 1189TIP3   OH224981   3.700   0.934   3.819 -0.0202 -0.2390 -0.4055
 1189TIP3    H124982   3.668   0.918   3.730  0.0364  0.5861 -0.5818
 1189TIP3    H224983   3.690   0.850   3.863  1.4268 -1.1207 -1.6370
 1190TIP3   OH224984   4.191   4.701   5.656 -0.1512  0.2628  0.1267
 1190TIP3    H124985   4.203   4.621   5.706 -1.3056 -1.1818 -1.7623
 1190TIP3    H224986   4.125   4.751   5.705 -1.0722 -0.9931  0.2167
 1191TIP3   OH224987   5.600   1.103  16.539  0.0665 -0.0573 -0.3802
 1191TIP3    H124988   5.650   1.087  16.459  1.6007  0.2590  0.4670
 1191TIP3    H224989   5.636   1.040  16.603 -0.9868 -0.1706  0.1182
 1192TIP3   OH224990   4.802   5.096  16.072  0.1141  0.2541 -0.0661
 1192TIP3    H124991   4.736   5.158  16.043 -0.1354  0.7912  1.5208
 1192TIP3    H224992   4.773   5.012  16.037 -1.2638  0.5333  0.3481
 1193TIP3   OH224993   3.975   2.608   4.482  0.2438  0.8381 -0.5126
 1193TIP3    H124994   3.926   2.575   4.557  0.6057 -1.1394 -1.0947
 1193TIP3    H224995   3.950   2.700   4.476 -0.8147  0.7139  1.2057
 1194TIP3   OH224996   6.143   3.272  13.104  0.6472 -0.2560 -1.1430
 1194TIP3    H124997   6.181   3.290  13.190  2.0723  1.9487 -2.1466
 1194TIP3    H224998   6.050   3.292  13.114  1.0880  1.6644 -0.5165
 1195TIP3   OH224999   2.226   0.403  14.256 -0.0297 -0.2995 -0.7508
 1195TIP3    H125000   2.195   0.449  14.178 -0.3137 -0.5869 -0.8062
 1195TIP3    H225001   2.151   0.350  14.285 -0.1639  0.3407  0.1247
 1196TIP3   OH225002   2.832   1.496   3.054 -0.0230 -0.4042  0.4117
 1196TIP3    H125003   2.751   1.475   3.009 -0.9932  1.5530  1.1379
 1196TIP3    H225004   2.870   1.568   3.003  1.9485 -2.0877 -0.6389
 1197TIP3   OH225005   2.506   4.583  14.290  0.3539  0.4063 -0.3745
 1197TIP3    H125006   2.539   4.523  14.223  3.8922  0.1355  1.3472
 1197TIP3    H225007   2.440   4.533  14.338  0.2177 -0.5710 -1.5467
 1198TIP3   OH225008   2.185   3.230  11.116  0.2907 -0.5384  0.2938
 1198TIP3    H125009   2.142   3.203  11.035 -0.1170 -1.2097  0.7148
 1198TIP3    H225010   2.136   3.307  11.145  0.5219 -0.2195 -0.1628
 1199TIP3   OH225011   0.471   0.985   1.739 -0.2289  0.3019  0.3415
 1199TIP3    H125012   0.535   1.023   1.679  1.2642  0.4148  1.9216
 1199TIP3    H225013   0.504   0.896   1.756 -0.0330  0.6176  1.7568
 1200TIP3   OH225014   6.620   0.590   6.011  0.0904  0.0551 -0.1220
 1200TIP3    H125015   6.619   0.495   6.021  0.2504 -0.0819 -1.2641
 1200TIP3    H225016   6.581   0.623   6.092  4.0269 -0.7379  2.3997
 1201TIP3   OH225017   0.392   3.721   3.771  0.1800  0.1917 -0.2234
 1201TIP3    H125018   0.328   3.772   3.820 -0.2684  0.2564 -0.8725
 1201TIP3    H225019   0.418   3.652   3.832 -1.4678 -0.6089 -0.3722
 1202TIP3   OH225020   6.085   0.316   2.868  0.6412 -0.6857 -0.4536
 1202TIP3    H125021   5.995   0.308   2.836 -0.4364 -2.1048  2.5317
 1202TIP3    H225022   6.136   0.259   2.810 -0.5535 -0.6694 -1.5605
 1203TIP3   OH225023   6.479   3.806   6.633  0.1824  0.3214 -0.0428
 1203TIP3    H125024   6.399   3.853   6.608 -0.6071 -1.7190 -1.7031
 1203TIP3    H225025   6.447   3.732   6.684  1.4547  1.8031  3.1980
 1204TIP3   OH225026   2.734   2.096  12.442 -0.0141  0.1260 -0.4631
 1204TIP3    H125027   2.712   2.023  12.384 -0.7715  1.3369 -1.7564
 1204TIP3    H225028   2.824   2.078  12.470 -0.4456 -1.6844 -0.1152
 1205TIP3   OH225029   2.593   3.295  10.982  0.3716  0.0316 -0.1362
 1205TIP3    H125030   2.523   3.340  11.029  1.2817  1.8022 -0.3843
 1205TIP3    H225031   2.609   3.215  11.032 -1.2135  0.0181  0.4019
 1206TIP3   OH225032   0.400   3.725  17.191 -0.0671 -0.2367 -0.5084
 1206TIP3    H125033   0.422   3.633  17.180  0.4327  0.0264 -1.9978
 1206TIP3    H225034   0.484   3.770  17.194 -0.2491  0.4322 -2.8549
 1207TIP3   OH225035   5.687   2.866  11.940  0.2758  0.0267  0.4523
 1207TIP3    H125036   5.599   2.884  11.973  0.6530  0.6832  1.1341
 1207TIP3    H225037   5.679   2.872  11.844 -0.0414  2.0347  0.5583
 1208TIP3   OH225038   2.955   3.118   2.534  0.2182  0.4376 -0.0983
 1208TIP3    H125039   2.988   3.055   2.597 -0.0220 -0.9330 -1.2984
 1208TIP3    H225040   2.860   3.117   2.547  0.0547 -0.6816 -1.1834
 1209TIP3   OH225041   1.188   2.070  15.615  0.2309  0.5573 -0.1688
 1209TIP3    H125042   1.130   2.011  15.567  0.3913  0.9613 -0.8779
 1209TIP3    H225043   1.236   2.013  15.675 -2.7778  0.5014  2.4252
 1210TIP3   OH225044   5.344   4.155  15.451  0.2189  0.1898 -0.5520
 1210TIP3    H125045   5.386   4.109  15.378 -0.5452 -0.1225 -0.8035
 1210TIP3    H225046   5.407   4.223  15.476  1.1014 -0.6075 -0.5697
 1211TIP3   OH225047   3.782   0.055  14.744  0.1925 -0.4610 -0.2205
 1211TIP3    H125048   3.874   0.032  14.761  0.1552 -0.6463 -0.2690
 1211TIP3    H225049   3.738  -0.029  14.736 -0.0785 -0.3726  0.3122
 1212TIP3   OH225050   5.309   3.733  16.092  0.0571 -0.2212  0.0838
 1212TIP3    H125051   5.335   3.708  16.003 -0.9443  0.3329 -0.3811
 1212TIP3    H225052   5.216   3.754  16.085 -1.0828 -3.7546  1.9610
 1213TIP3   OH225053   1.843   3.253  11.699  1.0167 -0.0045 -0.4548
 1213TIP3    H125054   1.842   3.224  11.608 -0.4414  0.7626 -0.7209
 1213TIP3    H225055   1.762   3.217  11.736 -1.1372  3.8329 -0.9056
 1214TIP3   OH225056   0.084   0.809   5.421 -0.5107  0.4041 -0.1354
 1214TIP3    H125057   0.144   0.791   5.493  1.3159  0.6582 -1.5155
 1214TIP3    H225058   0.026   0.733   5.418  0.5012 -0.4212  0.5319
 1215TIP3   OH225059   0.214   5.069   1.966  0.2806  0.3639 -0.2377
 1215TIP3    H125060   0.232   5.163   1.978 -2.3036  1.0011 -0.8684
 1215TIP3    H225061   0.190   5.061   1.874 -0.0763 -0.8195 -0.0540
 1216TIP3   OH225062   5.884   5.581  13.781 -0.1001 -0.4433  0.2406
 1216TIP3    H125063   5.836   5.653  13.739  1.4527 -0.4426 -1.6522
 1216TIP3    H225064   5.906   5.522  13.710  3.2010 -0.1452  0.8851
 1217TIP3   OH225065   5.844   2.245  12.985  0.0759  0.2499  0.2340
 1217TIP3    H125066   5.772   2.192  13.021 -0.0160  0.9737  1.1444
 1217TIP3    H225067   5.810   2.334  12.983  1.3863  0.8466  2.0030
 1218TIP3   OH225068   5.337   0.900   0.530  0.2645 -0.0320  0.1381
 1218TIP3    H125069   5.379   0.891   0.445 -0.3945 -1.0457 -0.1007
 1218TIP3    H225070   5.257   0.847   0.523  0.1546 -0.0572  1.3541
 1219TIP3   OH225071   5.349   4.486  16.677  0.3343  0.2026 -0.2088
 1219TIP3    H125072   5.345   4.417  16.612 -2.6576 -0.9299  0.9892
 1219TIP3    H225073   5.419   4.460  16.737 -0.6331 -1.8143  0.1348
 1220TIP3   OH225074   0.117   4.421  13.244 -0.4062 -0.2207 -0.1368
 1220TIP3    H125075   0.070   4.436  13.326 -1.7090 -0.4704 -0.8145
 1220TIP3    H225076   0.114   4.505  13.199  0.1130 -0.1434 -0.0309
 1221TIP3   OH225077   2.719   3.701  13.205  0.7926  1.3073 -0.3643
 1221TIP3    H125078   2.804   3.740  13.226  0.4992  2.0329 -0.5079
 1221TIP3    H225079   2.661   3.776  13.190 -0.1587  0.8473  0.8364
 1222TIP3   OH225080   0.636   6.163   5.074  0.1346  0.5231 -0.4207
 1222TIP3    H125081   0.592   6.102   5.014  1.0617 -0.5822 -0.0032
 1222TIP3    H225082   0.726   6.130   5.079  0.9826  2.5948 -1.0636
 1223TIP3   OH225083   5.834   1.649   3.719  0.1020 -0.2916 -0.0974
 1223TIP3    H125084   5.880   1.685   3.795  2.4392 -1.0504 -1.0803
 1223TIP3    H225085   5.896   1.657   3.647 -2.1493  0.7140 -2.0714
 1224TIP3   OH225086   3.258   0.281  14.617 -0.5936 -0.6782  0.0732
 1224TIP3    H125087   3.222   0.292  14.529 -0.3064 -1.0903 -0.1025
 1224TIP3    H225088   3.234   0.191  14.641 -0.1770 -0.7671  0.1759
 1225TIP3   OH225089   4.212   3.090  14.965  0.0280 -0.0199  0.5245
 1225TIP3    H125090   4.199   3.148  15.041  0.3365  2.0102 -0.8863
 1225TIP3    H225091   4.126   3.049  14.952 -0.8351  1.7397  0.3367
 1226TIP3   OH225092   1.170   4.173  15.132  0.3683  0.2072 -0.3435
 1226TIP3    H125093   1.218   4.090  15.127  1.2018  0.6510  0.1053
 1226TIP3    H225094   1.207   4.218  15.208  0.1079  1.1066 -0.7323
 1227TIP3   OH225095   1.311   4.584  12.077 -0.7131  0.6982 -0.2915
 1227TIP3    H125096   1.381   4.546  12.130 -0.6522  1.4758  0.2135
 1227TIP3    H225097   1.348   4.594  11.990  0.1742  2.0295  0.2003
 1228TIP3   OH225098   0.227   4.382  11.420 -0.5451  0.1287  0.3645
 1228TIP3    H125099   0.282   4.317  11.377  0.0052  0.3489  0.7246
 1228TIP3    H225100   0.275   4.464  11.411 -0.9087  0.3628  0.5122
 1229TIP3   OH225101   3.540   4.700   4.837  0.1149  0.1951 -0.2749
 1229TIP3    H125102   3.510   4.676   4.750 -0.9813  0.3135  0.0602
 1229TIP3    H225103   3.630   4.668   4.841  0.3101  0.5322 -1.5775
 1230TIP3   OH225104   2.259   1.369   4.289  0.2204  0.3017 -0.2261
 1230TIP3    H125105   2.254   1.401   4.379 -1.1325 -1.0161  0.2088
 1230TIP3    H225106   2.192   1.420   4.242 -0.9427 -0.8274  0.1484
 1231TIP3   OH225107   4.580   4.363  15.649  0.1285  0.1013 -0.4505
 1231TIP3    H125108   4.610   4.274  15.630  0.6856  0.1064  0.3542
 1231TIP3    H225109   4.640   4.419  15.600  0.8472  0.0776  0.3735
 1232TIP3   OH225110   3.204   1.324  12.013 -0.2708  0.9121 -0.0646
 1232TIP3    H125111   3.247   1.389  11.958  2.0310 -0.6258 -0.2542
 1232TIP3    H225112   3.247   1.333  12.098  0.5074 -0.6428 -0.2450
 1233TIP3   OH225113   1.403   0.193  15.442  0.1167 -0.0067 -0.7127
 1233TIP3    H125114   1.342   0.130  15.403  0.0744 -0.5053  0.1265
 1233TIP3    H225115   1.405   0.170  15.535  1.9348 -0.3038 -0.7875
 1234TIP3   OH225116   6.324   0.553   3.332 -0.0603  0.2102 -0.2422
 1234TIP3    H125117   6.250   0.494   3.340 -0.9934  1.1957 -1.1496
 1234TIP3    H225118   6.316   0.589   3.243  2.2304 -0.5940 -0.8348
 1235TIP3   OH225119   3.484   2.029  16.264  0.0900 -0.2537  0.0183
 1235TIP3    H125120   3.512   1.984  16.185  0.1743 -0.1191 -0.0282
 1235TIP3    H225121   3.388   2.031  16.259  0.1391  2.3035 -1.5081
 1236TIP3   OH225122   2.026   2.763  13.279 -0.1993 -0.2565 -0.2788
 1236TIP3    H125123   2.101   2.736  13.331  0.3221  0.4400 -0.6499
 1236TIP3    H225124   1.952   2.715  13.316  0.6065 -1.8384 -0.6410
 1237TIP3   OH225125   5.444   2.697   4.748  0.3117  0.1889  0.1895
 1237TIP3    H125126   5.398   2.670   4.668  1.3940  1.1113 -0.7660
 1237TIP3    H225127   5.391   2.659   4.819 -0.5784 -0.7914 -0.9470
 1238TIP3   OH225128   4.019   6.685   1.581  0.4680 -0.0259 -0.2206
 1238TIP3    H125129   4.040   6.763   1.530  1.1378 -0.8678 -1.2553
 1238TIP3    H225130   3.925   6.672   1.567 -0.2901  2.0381  2.0546
 1239TIP3   OH225131   5.910   5.353   4.078 -0.1113 -0.4659 -0.0506
 1239TIP3    H125132   5.960   5.419   4.125  0.9724  0.3838 -2.2504
 1239TIP3    H225133   5.824   5.393   4.064  0.7149  0.7944 -1.8662
 1240TIP3   OH225134   5.773   0.212   0.356  0.3526  0.3030 -0.3084
 1240TIP3    H125135   5.858   0.244   0.325 -0.4857  0.3837 -2.7623
 1240TIP3    H225136   5.724   0.193   0.276 -0.7519 -3.0586  0.9758
 1241TIP3   OH225137   2.700   3.285   4.013 -0.3192  0.5964 -0.4107
 1241TIP3    H125138   2.648   3.289   3.933  0.1523 -1.3699 -0.8792
 1241TIP3    H225139   2.762   3.213   3.997  1.0987  1.4495  0.9608
 1242TIP3   OH225140   0.353   5.956   0.635  0.3888 -0.0400  0.3277
 1242TIP3    H125141   0.401   5.997   0.707  1.4127 -0.9742  0.1871
 1242TIP3    H225142   0.373   6.011   0.559 -0.9744  1.1554  0.7838
 1243TIP3   OH225143   1.222   0.534  12.809 -0.0569  0.3768 -0.7010
 1243TIP3    H125144   1.237   0.596  12.881 -0.4397  0.9314 -1.0910
 1243TIP3    H225145   1.197   0.452  12.853  2.0531 -0.0182 -0.0976
 1244TIP3   OH225146   2.758   6.408  13.829 -0.4624 -0.8602  0.0640
 1244TIP3    H125147   2.751   6.382  13.738 -0.4371 -2.5063  0.4932
 1244TIP3    H225148   2.834   6.466  13.832 -1.6012  0.8018 -1.2458
 1245TIP3   OH225149   1.085   3.641  15.604  0.0804  0.0775  0.3259
 1245TIP3    H125150   1.083   3.622  15.510 -0.9262  0.8733  0.1694
 1245TIP3    H225151   0.995   3.633  15.633  0.6894 -2.6095  1.7831
 1246TIP3   OH225152   2.320   1.636  13.566 -0.1902 -0.3518  0.5584
 1246TIP3    H125153   2.332   1.700  13.636  0.3877 -0.4766  0.5746
 1246TIP3    H225154   2.402   1.586  13.565 -0.5179 -0.8922  0.3451
 1247TIP3   OH225155   3.605   5.508   4.358 -0.6018 -0.4545  0.2158
 1247TIP3    H125156   3.644   5.594   4.341  0.0856 -0.3189  2.2172
 1247TIP3    H225157   3.601   5.466   4.272 -1.5653  1.7955 -0.9138
 1248TIP3   OH225158   6.073   1.960  16.649 -0.1645 -0.7333  0.4163
 1248TIP3    H125159   6.083   1.917  16.733 -1.5471 -0.6994  0.6083
 1248TIP3    H225160   6.120   2.043  16.659  0.2964 -1.0466  0.9021
 1249TIP3   OH225161   2.963   5.304   3.069 -0.3568 -0.2039 -0.3372
 1249TIP3    H125162   2.933   5.230   3.121  1.6263 -0.6285  0.2694
 1249TIP3    H225163   3.029   5.268   3.010 -0.4611  0.8069 -1.1099
 1250TIP3   OH225164   0.860   5.002   3.421 -0.2971 -0.2673  0.1352
 1250TIP3    H125165   0.906   4.975   3.500 -0.1297  0.9907  0.4951
 1250TIP3    H225166   0.903   5.083   3.394 -1.6645  0.4407 -0.0519
 1251TIP3   OH225167   4.352   0.563   2.993 -0.4053 -0.0053  0.2673
 1251TIP3    H125168   4.432   0.515   2.974 -0.2295 -0.4804  2.0002
 1251TIP3    H225169   4.319   0.591   2.908  1.5719  0.1681 -0.4899
 1252TIP3   OH225170   5.252   0.371  17.315 -0.5829  0.3903  0.0831
 1252TIP3    H125171   5.241   0.283  17.352  0.1215 -0.3171 -1.2801
 1252TIP3    H225172   5.246   0.430  17.390 -0.0300 -0.8934  1.1859
 1253TIP3   OH225173   2.311   2.694  14.181 -0.3622 -0.0040  0.1072
 1253TIP3    H125174   2.341   2.713  14.270 -0.9724  1.5069  0.0183
 1253TIP3    H225175   2.286   2.779  14.145 -1.3934 -0.7584 -1.0521
 1254TIP3   OH225176   5.724   3.263  11.005 -0.0500  0.6648 -0.0505
 1254TIP3    H125177   5.689   3.207  11.074 -1.0617  1.9810  0.5431
 1254TIP3    H225178   5.809   3.223  10.983 -1.3232 -1.9318 -0.6977
 1255TIP3   OH225179   5.802   3.840   5.702  0.1033  0.0746  0.7176
 1255TIP3    H125180   5.881   3.814   5.655  0.2281  0.0592  0.9371
 1255TIP3    H225181   5.829   3.915   5.755  0.4700 -1.1301  2.3004
 1256TIP3   OH225182   1.843   2.555  14.792 -0.0247  0.1911 -0.8432
 1256TIP3    H125183   1.893   2.636  14.782  0.4563  0.2051  1.3362
 1256TIP3    H225184   1.757   2.584  14.822  0.0599 -0.0766 -0.3329
 1257TIP3   OH225185   0.692   0.047   0.683 -0.7910  0.1529 -0.8852
 1257TIP3    H125186   0.685  -0.047   0.670 -1.2217  0.1018 -0.3089
 1257TIP3    H225187   0.691   0.083   0.594  0.8909 -0.4626 -1.1987
 1258TIP3   OH225188   3.480   1.855   0.543  0.8535  0.1668 -0.7019
 1258TIP3    H125189   3.503   1.913   0.470  1.8370 -0.3394 -0.8133
 1258TIP3    H225190   3.510   1.902   0.621 -0.4042  0.8113 -0.5833
 1259TIP3   OH225191   3.965   3.237   1.102 -0.2460  0.0301  0.6710
 1259TIP3    H125192   3.909   3.202   1.171 -0.4217  0.7565  0.9083
 1259TIP3    H225193   4.046   3.262   1.148  0.3910 -1.2603  0.2875
 1260TIP3   OH225194   6.489   0.751   2.206  0.3472 -0.5925  0.1649
 1260TIP3    H125195   6.526   0.825   2.253  0.2690 -0.0736 -0.5640
 1260TIP3    H225196   6.417   0.720   2.261  0.4315 -0.1718  0.5105
 1261TIP3   OH225197   6.684   3.711  11.765  0.3233  0.8876  0.1955
 1261TIP3    H125198   6.723   3.624  11.777  1.9447  1.3089 -1.6185
 1261TIP3    H225199   6.592   3.693  11.747  0.1590 -0.2922  1.9090
 1262TIP3   OH225200   1.889   1.691  13.448  0.1827 -0.1775 -0.5869
 1262TIP3    H125201   1.799   1.703  13.478  0.3337  0.7349 -0.4725
 1262TIP3    H225202   1.942   1.705  13.527  0.5078  0.8406 -0.9800
 1263TIP3   OH225203   6.638   5.106   0.777  0.4544  0.7219  0.7922
 1263TIP3    H125204   6.645   5.011   0.782 -3.1250  0.2729  0.4703
 1263TIP3    H225205   6.636   5.135   0.869  0.2607  0.3032  0.9231
 1264TIP3   OH225206   5.728   3.925   2.181 -0.1831  0.3112  0.7107
 1264TIP3    H125207   5.814   3.965   2.171 -0.4972  1.2292  1.5529
 1264TIP3    H225208   5.667   3.999   2.185 -1.1886 -0.3329 -1.1725
 1265TIP3   OH225209   5.335   4.565  13.459 -0.0172 -0.1615  0.2601
 1265TIP3    H125210   5.275   4.640  13.451 -1.2313 -0.8855  1.9458
 1265TIP3    H225211   5.301   4.501  13.397 -1.4159 -0.7739  1.5710
 1266TIP3   OH225212   1.631   3.434  16.251 -0.1434  0.4790 -0.1080
 1266TIP3    H125213   1.696   3.380  16.205  0.3308 -1.3832  2.5006
 1266TIP3    H225214   1.681   3.510  16.282  0.5160 -0.2956  0.7717
 1267TIP3   OH225215   5.312   4.123  16.999 -0.2121  0.4526 -0.3175
 1267TIP3    H125216   5.342   4.148  16.911  0.0320 -1.1674 -0.7252
 1267TIP3    H225217   5.389   4.087  17.042 -0.9514 -1.4367 -0.4925
 1268TIP3   OH225218   1.575   1.639   6.190 -1.0894  0.2771 -0.4579
 1268TIP3    H125219   1.557   1.594   6.272 -0.8136 -1.5736 -1.3522
 1268TIP3    H225220   1.655   1.689   6.206 -1.1944  0.1636  0.4627
 1269TIP3   OH225221   4.183   6.703  12.537  0.4902  0.1008 -0.5452
 1269TIP3    H125222   4.151   6.614  12.524 -0.5696  0.5697 -1.2763
 1269TIP3    H225223   4.273   6.701  12.504  0.2709 -0.5512 -1.1217
 1270TIP3   OH225224   0.633   5.844  14.462  0.4823  0.0118 -0.4198
 1270TIP3    H125225   0.662   5.792  14.387  0.3171 -0.3620 -0.2270
 1270TIP3    H225226   0.641   5.785  14.537 -0.5768 -0.0371 -0.3326
 1271TIP3   OH225227   4.594   5.800  17.150 -0.0562 -0.0223  0.8997
 1271TIP3    H125228   4.528   5.733  17.133 -0.8832  1.1326 -0.7905
 1271TIP3    H225229   4.595   5.810  17.245  0.0027 -2.2788  1.1982
 1272TIP3   OH225230   5.923   0.956   3.782  0.6530 -0.2623  0.3818
 1272TIP3    H125231   5.871   1.012   3.840  1.5815 -1.3663  2.3830
 1272TIP3    H225232   5.877   0.873   3.780 -0.6167  0.3881 -2.4365
 1273TIP3   OH225233   0.135   5.306  11.542  0.1702 -0.1780  0.0529
 1273TIP3    H125234   0.114   5.220  11.579 -1.5389  0.6161  1.0584
 1273TIP3    H225235   0.124   5.295  11.448 -1.4361 -0.7502  0.2714
 1274TIP3   OH225236   5.209   3.552   5.895  0.3778 -0.2247 -0.4088
 1274TIP3    H125237   5.243   3.467   5.923  0.8555 -0.3663 -1.3597
 1274TIP3    H225238   5.283   3.611   5.906 -0.2835  0.3390  1.3376
 1275TIP3   OH225239   0.955   1.400   1.058 -0.2587 -0.9387  0.3030
 1275TIP3    H125240   1.023   1.379   0.995 -0.8988  0.2013 -0.8375
 1275TIP3    H225241   0.979   1.487   1.091 -0.9072 -0.7143  0.2094
 1276TIP3   OH225242   0.009   4.601   4.927  0.1183 -0.2385  0.2471
 1276TIP3    H125243   0.042   4.591   4.838  0.3545 -0.7745  0.3910
 1276TIP3    H225244  -0.078   4.638   4.916  0.0052 -0.6305 -0.2261
 1277TIP3   OH225245   2.664   2.725  15.211 -0.7421  0.6228 -0.1822
 1277TIP3    H125246   2.646   2.819  15.216 -2.3541  0.4116 -1.2972
 1277TIP3    H225247   2.741   2.718  15.155  1.0510  1.3738  2.0148
 1278TIP3   OH225248   1.009   0.101   4.410  0.1854 -0.3414  0.0713
 1278TIP3    H125249   1.094   0.069   4.440  2.0434  3.5767 -0.4625
 1278TIP3    H225250   1.008   0.082   4.317  0.1380 -0.9666  0.1911
 1279TIP3   OH225251   1.518   1.373   6.037 -0.9523  0.1729 -0.3093
 1279TIP3    H125252   1.586   1.439   6.028 -1.0332  0.2868 -0.0876
 1279TIP3    H225253   1.518   1.351   6.131 -1.0038 -0.0556 -0.3623
 1280TIP3   OH225254   5.782   1.373  15.358  0.6872 -0.2121 -0.4044
 1280TIP3    H125255   5.855   1.351  15.300  1.6346 -0.5654  0.8671
 1280TIP3    H225256   5.708   1.323  15.324  1.1477 -0.2108 -1.4481
 1281TIP3   OH225257   4.951   1.526  11.518 -0.7246  0.2255  0.7391
 1281TIP3    H125258   4.993   1.603  11.558 -0.8448  1.5712 -1.5712
 1281TIP3    H225259   4.859   1.532  11.546 -0.4074 -0.0471  1.9105
 1282TIP3   OH225260   6.671   5.391   1.422 -0.2817 -0.7466  0.0077
 1282TIP3    H125261   6.684   5.437   1.339  0.7402 -1.5738 -0.3176
 1282TIP3    H225262   6.599   5.331   1.405  1.2300 -2.3800 -0.9690
 1283TIP3   OH225263   0.847   5.071   2.718 -0.0900 -0.2461  0.6965
 1283TIP3    H125264   0.786   5.095   2.788  0.4523  1.2413  0.7094
 1283TIP3    H225265   0.920   5.133   2.729  0.1319 -0.1745 -1.0139
 1284TIP3   OH225266   2.851   2.809   5.731  0.0288  0.3837 -0.2678
 1284TIP3    H125267   2.871   2.874   5.664  0.1182  0.0368 -0.5790
 1284TIP3    H225268   2.934   2.790   5.773  0.2988 -0.6999 -1.2398
 1285TIP3   OH225269   6.202   1.031   1.471 -0.1874 -0.2342  0.1131
 1285TIP3    H125270   6.130   1.055   1.414  2.3216 -0.1983 -3.3125
 1285TIP3    H225271   6.170   1.051   1.560 -3.6121  1.5091 -1.3315
 1286TIP3   OH225272   0.349   2.910   3.244 -0.6470  0.1863  0.3653
 1286TIP3    H125273   0.383   2.864   3.321  1.1343  0.1228 -0.4107
 1286TIP3    H225274   0.397   2.873   3.170 -1.2881  1.2408 -0.6187
 1287TIP3   OH225275   1.528   1.588  16.654  0.3088  0.2255 -0.5293
 1287TIP3    H125276   1.541   1.676  16.618 -0.8564  1.0166  0.9003
 1287TIP3    H225277   1.473   1.544  16.590 -1.4430  1.4961  0.0162
 1288TIP3   OH225278   6.508   4.598   5.943 -0.6918  1.0598 -0.3943
 1288TIP3    H125279   6.446   4.633   6.006  0.1862  0.5874  0.7708
 1288TIP3    H225280   6.564   4.672   5.920  0.7350  0.6750  1.5477
 1289TIP3   OH225281   2.800   5.071   1.481 -0.4510  0.0260 -0.0847
 1289TIP3    H125282   2.796   5.063   1.385 -0.4135 -0.5452 -0.0429
 1289TIP3    H225283   2.838   4.988   1.510 -2.5953 -0.7967  0.5834
 1290TIP3   OH225284   5.619   3.318   6.105 -0.4291 -0.0735  0.3089
 1290TIP3    H125285   5.620   3.333   6.200 -0.1089 -0.8226  0.4330
 1290TIP3    H225286   5.547   3.256   6.092  0.0291 -0.5807  0.1661
 1291TIP3   OH225287   4.634   0.912   5.996  0.4485 -0.0484  0.0919
 1291TIP3    H125288   4.658   1.001   5.969  0.9975 -0.5418 -1.0890
 1291TIP3    H225289   4.606   0.869   5.915  1.5424 -1.3767  0.3905
 1292TIP3   OH225290   3.743   0.327   5.132 -0.0739 -0.9083  0.1111
 1292TIP3    H125291   3.789   0.318   5.048 -0.6584 -1.0697 -0.1997
 1292TIP3    H225292   3.652   0.343   5.107 -0.0090  0.4682  0.7093
 1293TIP3   OH225293   6.239   3.946   1.957  0.4465 -0.3130  0.1491
 1293TIP3    H125294   6.170   3.985   2.011  0.1676 -1.3234  0.5408
 1293TIP3    H225295   6.254   4.010   1.888 -1.9432 -0.7247 -0.8307
 1294TIP3   OH225296   6.040   1.052  16.160 -0.0893  0.2553 -0.2328
 1294TIP3    H125297   5.947   1.034  16.176 -0.1587  0.3899 -0.4821
 1294TIP3    H225298   6.083   1.034  16.244 -0.1952 -0.7954 -0.3917
 1295TIP3   OH225299   5.620   1.158   2.834  0.7662 -0.3058  0.1497
 1295TIP3    H125300   5.646   1.152   2.926 -1.9959 -3.0986  0.9528
 1295TIP3    H225301   5.554   1.227   2.833  2.9513  1.9230 -0.5035
 1296TIP3   OH225302   6.414   2.673   0.033  0.2410 -0.1876  0.0524
 1296TIP3    H125303   6.371   2.759   0.032 -2.8422 -1.5830 -0.9897
 1296TIP3    H225304   6.401   2.641   0.123  2.7055  0.9231  0.8874
 1297TIP3   OH225305   1.435   2.513  16.181  0.2121  0.2130  0.4874
 1297TIP3    H125306   1.356   2.528  16.234 -0.4923 -0.3746 -0.3622
 1297TIP3    H225307   1.432   2.420  16.159  0.4740  0.4456 -0.5880
 1298TIP3   OH225308   6.675   4.109   6.314  0.0230  0.7530  0.6217
 1298TIP3    H125309   6.754   4.139   6.270 -0.8790  1.7242 -0.4082
 1298TIP3    H225310   6.693   4.121   6.407  1.1248  0.8492  0.4086
 1299TIP3   OH225311   4.028   0.609   0.099  0.1952 -0.4070  0.0434
 1299TIP3    H125312   4.026   0.634   0.007  1.4942  0.5203  0.2296
 1299TIP3    H225313   4.020   0.514   0.099 -2.8575 -0.2411 -0.8249
 1300TIP3   OH225314   5.630   0.776  15.773  0.3675  0.8253 -0.1377
 1300TIP3    H125315   5.707   0.764  15.717 -0.2916 -0.3573 -0.8231
 1300TIP3    H225316   5.563   0.812  15.714 -0.8988 -2.0860 -0.6608
 1301TIP3   OH225317   5.745   0.089   5.036 -0.3215 -0.0371 -0.5462
 1301TIP3    H125318   5.817   0.114   5.094 -0.5343  0.8910 -0.6789
 1301TIP3    H225319   5.788   0.065   4.954 -0.2582  2.3605 -1.2648
 1302TIP3   OH225320   1.026   6.493  15.612  0.2090 -0.2650  0.7005
 1302TIP3    H125321   0.937   6.467  15.639 -0.5077  2.6876  1.5241
 1302TIP3    H225322   1.023   6.492  15.516 -0.5955 -0.5155  0.7162
 1303TIP3   OH225323   2.954   3.841  13.236 -0.0720  0.5623 -0.7965
 1303TIP3    H125324   3.028   3.781  13.228  0.4365  1.0174  0.2789
 1303TIP3    H225325   2.984   3.908  13.297 -1.2360  0.9758 -0.6495
 1304TIP3   OH225326   3.364   3.864  16.583  0.1579 -0.5311  0.2374
 1304TIP3    H125327   3.391   3.951  16.609 -2.1302 -0.1414  1.5522
 1304TIP3    H225328   3.445   3.822  16.552  1.4779  1.6957  0.4581
 1305TIP3   OH225329   3.619   2.523   4.305 -0.7771 -0.0616 -0.3156
 1305TIP3    H125330   3.628   2.581   4.380 -0.5899 -2.2791  1.4678
 1305TIP3    H225331   3.633   2.580   4.229 -0.8658  2.2415  1.2918
 1306TIP3   OH225332   5.290   1.842   1.077  0.0686 -0.2095  0.5386
 1306TIP3    H125333   5.319   1.908   1.139  0.4368  0.3932 -0.2644
 1306TIP3    H225334   5.332   1.866   0.994  0.5490 -1.6824  0.3244
 1307TIP3   OH225335   6.640   1.388   0.697 -0.0318  0.1032  0.4250
 1307TIP3    H125336   6.698   1.315   0.678 -1.0750 -0.4195 -0.9181
 1307TIP3    H225337   6.651   1.447   0.623 -0.8033  0.2544  0.4228
 1308TIP3   OH225338   2.055   2.172  11.970  0.4855 -0.5162 -0.0671
 1308TIP3    H125339   2.044   2.191  11.877  1.3683 -1.6827 -0.4298
 1308TIP3    H225340   1.988   2.107  11.990  1.2381 -1.3595 -0.2520
 1309TIP3   OH225341   6.395   4.417   1.751 -0.2756  0.0864 -0.6279
 1309TIP3    H125342   6.358   4.328   1.752 -0.9215  0.2636  2.4688
 1309TIP3    H225343   6.478   4.407   1.704 -0.6976 -1.9799 -1.0660
 1310TIP3   OH225344   5.496   4.508  17.444 -0.1270  0.6545  0.3102
 1310TIP3    H125345   5.436   4.441  17.478 -0.7251  0.8715 -0.2811
 1310TIP3    H225346   5.509   4.568  17.517  0.5998 -0.2144  0.9258
 1311TIP3   OH225347   4.768   1.459   4.224 -0.5894  0.3297 -0.4454
 1311TIP3    H125348   4.731   1.401   4.157 -0.2016  1.0172 -1.2631
 1311TIP3    H225349   4.819   1.523   4.175  0.3413  0.3826  0.5625
 1312TIP3   OH225350   4.688   6.678  10.828  0.3680  1.0230 -0.5496
 1312TIP3    H125351   4.644   6.751  10.872  1.9290  1.5843  0.1340
 1312TIP3    H225352   4.779   6.706  10.821  1.1564 -1.1415  0.3622
 1313TIP3   OH225353   5.627   6.377  13.000  0.8029  0.3865 -0.0076
 1313TIP3    H125354   5.678   6.452  13.031 -1.3592  2.2077 -0.5606
 1313TIP3    H225355   5.537   6.409  12.997  0.1924 -1.1512 -3.5093
 1314TIP3   OH225356   0.443   1.923   2.239  0.0393  0.4501 -0.4205
 1314TIP3    H125357   0.398   2.005   2.260  0.4853  0.7607 -0.6415
 1314TIP3    H225358   0.531   1.951   2.211  0.3701 -0.1370  0.0108
 1315TIP3   OH225359   2.981   1.679   4.720 -0.7055 -0.2936  0.1136
 1315TIP3    H125360   2.979   1.589   4.687  0.1960 -0.6988  1.1043
 1315TIP3    H225361   2.889   1.702   4.732 -0.9499 -1.0480 -0.2472
 1316TIP3   OH225362   1.663   3.279  14.575  0.6466 -0.2749 -0.2957
 1316TIP3    H125363   1.724   3.295  14.503  1.2367 -1.1315 -0.0109
 1316TIP3    H225364   1.584   3.326  14.551  0.5440 -1.2204 -1.9199
 1317TIP3   OH225365   2.631   6.348  12.903 -0.5381  0.1946 -0.0060
 1317TIP3    H125366   2.669   6.431  12.876 -0.6957  0.1456 -0.3729
 1317TIP3    H225367   2.652   6.342  12.997 -1.7431  1.3018  0.3504
 1318TIP3   OH225368   2.618   1.284  12.220  0.0927  0.2712  0.3488
 1318TIP3    H125369   2.654   1.342  12.152  1.0390 -1.4349 -0.7050
 1318TIP3    H225370   2.524   1.284  12.204  0.2175  0.5282 -0.4367
 1319TIP3   OH225371   5.554   4.037   0.426 -0.9057  0.0601 -0.2132
 1319TIP3    H125372   5.512   3.987   0.356 -2.0543 -1.0259  1.1866
 1319TIP3    H225373   5.648   4.024   0.412 -1.1421 -1.2927 -0.7314
 1320TIP3   OH225374   1.853   6.543   5.760 -0.2707  0.0627  0.0149
 1320TIP3    H125375   1.767   6.579   5.740 -0.3946  0.2303  0.8303
 1320TIP3    H225376   1.912   6.587   5.699 -0.7219  0.1055 -0.4027
 1321TIP3   OH225377   5.092   6.580   5.585  0.3003 -0.0126  0.1221
 1321TIP3    H125378   5.047   6.498   5.565 -0.5144  0.0471  1.5898
 1321TIP3    H225379   5.171   6.577   5.531 -1.3808 -0.1168 -2.5295
 1322TIP3   OH225380   5.132   1.304  14.786 -0.0435  0.0874  0.6648
 1322TIP3    H125381   5.097   1.348  14.709  0.1319  0.0927  0.5865
 1322TIP3    H225382   5.172   1.375  14.838  2.2395 -0.2257 -0.5342
 1323TIP3   OH225383   4.651   5.633   1.851  0.1196  0.3263 -0.0546
 1323TIP3    H125384   4.599   5.563   1.890  2.2692 -0.9471  0.6845
 1323TIP3    H225385   4.669   5.694   1.922 -1.0533  1.2395 -0.5099
 1324TIP3   OH225386   0.524   6.528  12.840 -0.1934  0.1063  0.0775
 1324TIP3    H125387   0.580   6.451  12.829 -1.6367 -1.0034  0.1821
 1324TIP3    H225388   0.521   6.541  12.935 -1.0661 -0.6113  0.1690
 1325TIP3   OH225389   0.296   5.517   4.150  0.0777  0.4943  0.2709
 1325TIP3    H125390   0.243   5.518   4.230 -0.0417  3.2910  0.2574
 1325TIP3    H225391   0.241   5.472   4.086 -1.0759  0.8068  1.0136
 1326TIP3   OH225392   2.119   1.054  14.257  0.2552 -0.8185 -0.1048
 1326TIP3    H125393   2.159   1.104  14.186 -1.3915 -0.6095 -0.9329
 1326TIP3    H225394   2.139   1.104  14.336 -0.5299  0.6290 -0.8002
 1327TIP3   OH225395   6.014   4.449  15.882  0.2114  0.1425 -0.2791
 1327TIP3    H125396   5.960   4.432  15.958  1.2266 -0.7573  0.2660
 1327TIP3    H225397   6.076   4.376  15.879 -0.3467 -0.3098 -2.4687
 1328TIP3   OH225398   4.029   6.128   4.420 -0.2208 -0.1349 -0.2758
 1328TIP3    H125399   4.040   6.223   4.420  1.0197 -0.2064  1.7666
 1328TIP3    H225400   4.048   6.102   4.510 -0.1779 -2.3665 -0.8686
 1329TIP3   OH225401   3.546   1.569  17.267  0.4981 -0.1205  0.7377
 1329TIP3    H125402   3.636   1.586  17.293  0.3193 -0.2414  1.4755
 1329TIP3    H225403   3.533   1.476  17.288 -0.1390  0.1710  1.7405
 1330TIP3   OH225404   1.381   5.145   2.881 -0.1349 -0.4558  0.4486
 1330TIP3    H125405   1.463   5.132   2.834  0.7196 -1.4619  2.1068
 1330TIP3    H225406   1.328   5.069   2.858  0.0810 -0.6785  0.6695
 1331TIP3   OH225407   2.217   6.675   5.263  0.1850 -0.2193  0.8054
 1331TIP3    H125408   2.208   6.754   5.211  0.1771  0.9417  2.4894
 1331TIP3    H225409   2.222   6.604   5.199 -2.3582  0.8449 -0.7308
 1332TIP3   OH225410   3.771   2.988  16.737 -0.1455  0.6078  0.0700
 1332TIP3    H125411   3.696   2.960  16.686  0.6731  1.5685 -1.7735
 1332TIP3    H225412   3.774   2.928  16.811 -2.0549 -0.1352 -0.4008
 1333TIP3   OH225413   5.468   2.398   5.511  0.3901  0.8259 -0.1771
 1333TIP3    H125414   5.471   2.473   5.570 -0.5560  0.2241  0.6598
 1333TIP3    H225415   5.390   2.349   5.537  1.7841 -1.2777  0.3101
 1334TIP3   OH225416   3.878   3.693  11.851 -0.1844 -0.0967 -0.2691
 1334TIP3    H125417   3.875   3.643  11.770  0.1431 -0.7695  0.1339
 1334TIP3    H225418   3.871   3.784  11.822  0.3795 -0.3017 -1.0835
 1335TIP3   OH225419   2.695   0.400  12.530  0.0341 -0.3841 -0.5248
 1335TIP3    H125420   2.754   0.454  12.479  0.9726 -1.3825 -0.5414
 1335TIP3    H225421   2.607   0.434  12.510  0.6252  1.7761  0.2797
 1336TIP3   OH225422   1.886   3.554  11.756  0.0961  0.1712 -0.7237
 1336TIP3    H125423   1.945   3.622  11.723 -0.7519  0.7851 -1.0070
 1336TIP3    H225424   1.925   3.472  11.727  0.9701  0.5509 -0.6472
 1337TIP3   OH225425   5.895   1.740  14.423  0.0370  0.2425 -0.3832
 1337TIP3    H125426   5.816   1.728  14.370 -0.8718 -1.9818  1.3308
 1337TIP3    H225427   5.879   1.821  14.471 -1.8978 -0.8161  0.9174
 1338TIP3   OH225428   3.679   0.094   4.126  0.6762  0.2367 -0.0844
 1338TIP3    H125429   3.758   0.126   4.170  0.6912  0.2358 -0.1106
 1338TIP3    H225430   3.710   0.067   4.039  0.7898 -0.4477  0.1582
 1339TIP3   OH225431   6.561   6.561   3.015 -0.2055  0.0714 -0.1413
 1339TIP3    H125432   6.495   6.587   2.951 -1.9798 -0.7980  1.2223
 1339TIP3    H225433   6.613   6.494   2.971  1.2040  2.2206 -1.9644
 1340TIP3   OH225434   1.503   4.419  11.635 -0.0475 -0.3723  0.4343
 1340TIP3    H125435   1.454   4.416  11.553 -0.8817  0.6658  0.8740
 1340TIP3    H225436   1.578   4.360  11.621 -1.3487 -1.9287 -0.2929
 1341TIP3   OH225437   1.830   2.451  15.180  0.3258  0.2665 -0.1818
 1341TIP3    H125438   1.903   2.407  15.138  0.4814  0.6481 -0.3138
 1341TIP3    H225439   1.772   2.476  15.108 -1.4087 -2.5739  0.0609
 1342TIP3   OH225440   2.887   1.458   4.571  0.4237 -0.1908  0.0705
 1342TIP3    H125441   2.923   1.504   4.495 -0.4297 -0.7954 -0.7218
 1342TIP3    H225442   2.801   1.428   4.542  0.4223 -1.1411  1.0064
 1343TIP3   OH225443   4.213   3.319   1.281  0.2453  0.1196  0.2717
 1343TIP3    H125444   4.252   3.262   1.215  0.3070  1.3652 -0.7995
 1343TIP3    H225445   4.208   3.264   1.360  2.0606 -0.7598 -0.1730
 1344TIP3   OH225446   0.372   2.021   1.318  0.0171  0.1461 -0.4061
 1344TIP3    H125447   0.278   2.036   1.322 -0.0753  0.3848 -2.3954
 1344TIP3    H225448   0.410   2.106   1.297  0.7210  0.1130  0.6512
 1345TIP3   OH225449   4.806   6.484   6.271  0.4956  0.1022 -0.5941
 1345TIP3    H125450   4.748   6.558   6.253  2.1358  1.7727  0.6306
 1345TIP3    H225451   4.848   6.466   6.186 -0.5926 -0.0609 -1.1117
 1346TIP3   OH225452   3.494   4.386  13.458  0.3354 -0.1409  0.7319
 1346TIP3    H125453   3.547   4.454  13.416 -0.8246 -0.8945 -2.1813
 1346TIP3    H225454   3.557   4.318  13.484  0.9735 -0.4758 -1.5290
 1347TIP3   OH225455   0.408   2.292   2.161 -0.0694 -0.3016  0.0543
 1347TIP3    H125456   0.365   2.279   2.077 -1.6636  0.5409  0.6899
 1347TIP3    H225457   0.459   2.372   2.150 -2.1331  1.1674  0.5023
 1348TIP3   OH225458   4.571   1.224  11.682 -0.1162  0.2087  0.1550
 1348TIP3    H125459   4.574   1.217  11.778  0.2423  0.4665  0.1645
 1348TIP3    H225460   4.660   1.246  11.657 -0.6348  2.3567 -0.0481
 1349TIP3   OH225461   2.459   1.202  15.517 -0.0683 -0.0409  0.2803
 1349TIP3    H125462   2.384   1.212  15.459  0.8346 -1.8549 -1.3127
 1349TIP3    H225463   2.437   1.126  15.571  0.2275 -0.0144  0.4374
 1350TIP3   OH225464   1.803   1.967   6.839  0.0769 -0.0845  0.1312
 1350TIP3    H125465   1.739   1.920   6.785 -1.6407  0.7826  1.3386
 1350TIP3    H225466   1.789   2.059   6.820 -2.0809  0.4559  3.4394
 1351TIP3   OH225467   0.872   0.833   2.657  0.2530 -0.5592  0.5333
 1351TIP3    H125468   0.926   0.756   2.641  0.5177 -0.0999 -0.8882
 1351TIP3    H225469   0.935   0.905   2.667 -0.0557 -0.1111 -0.6229
 1352TIP3   OH225470   4.256   4.910  15.907 -0.1704  0.4107 -0.5906
 1352TIP3    H125471   4.165   4.920  15.935  0.0648 -0.3164  0.5045
 1352TIP3    H225472   4.255   4.834  15.849 -0.1235 -0.1290  0.1130
 1353TIP3   OH225473   1.591   2.511  15.528 -0.1452 -0.4432 -0.3173
 1353TIP3    H125474   1.503   2.513  15.566 -0.1250  3.2153 -0.1148
 1353TIP3    H225475   1.579   2.477  15.439 -1.5920 -0.7780 -0.0102
 1354TIP3   OH225476   1.929   3.245   4.996  0.4895  0.0383  0.0046
 1354TIP3    H125477   1.855   3.236   5.056  2.0990 -1.5161  1.8755
 1354TIP3    H225478   1.914   3.179   4.929 -0.6632  0.9145 -0.6420
 1355TIP3   OH225479   4.152   3.809   0.213  0.0577  0.7480  0.3487
 1355TIP3    H125480   4.187   3.852   0.291  0.4051  0.8564  0.1387
 1355TIP3    H225481   4.143   3.880   0.149 -1.6905  0.9379  0.7667
 1356TIP3   OH225482   1.767   4.703   6.010 -0.0667  0.1806  0.5640
 1356TIP3    H125483   1.766   4.613   6.041 -1.2567 -0.4271 -1.1149
 1356TIP3    H225484   1.790   4.696   5.917  0.1762  1.6414  0.4940
 1357TIP3   OH225485   0.333   1.422   5.214  0.4014 -0.2344 -0.2692
 1357TIP3    H125486   0.406   1.429   5.154  0.2644  0.1622 -0.3913
 1357TIP3    H225487   0.365   1.365   5.284  0.8981  0.1133 -0.2101
 1358TIP3   OH225488   5.338   0.346  13.770  0.5390  0.3413 -0.8130
 1358TIP3    H125489   5.343   0.323  13.677 -0.0978  1.2170 -1.0755
 1358TIP3    H225490   5.251   0.383  13.781  0.3826 -0.3233  0.2784
 1359TIP3   OH225491   2.182   0.777  13.459  0.3654 -0.2181 -0.4745
 1359TIP3    H125492   2.150   0.803  13.545 -1.0858 -0.2862 -0.9643
 1359TIP3    H225493   2.241   0.704  13.476 -0.5030 -0.7330  0.4011
 1360TIP3   OH225494   2.604   2.210  15.687 -0.0487  0.3174  0.1040
 1360TIP3    H125495   2.557   2.268  15.747  0.4373  0.5221  0.2922
 1360TIP3    H225496   2.679   2.261  15.658  0.6175 -0.3494  0.5961
 1361TIP3   OH225497   2.638   0.172  15.103 -0.2662  0.6733 -0.2954
 1361TIP3    H125498   2.698   0.238  15.139  0.4157 -0.2521  0.3253
 1361TIP3    H225499   2.584   0.146  15.177  0.6395 -0.6992 -0.0682
 1362TIP3   OH225500   5.443   1.585   1.751  0.1822 -0.6721 -0.0415
 1362TIP3    H125501   5.513   1.526   1.779  0.6495  0.1143  0.5120
 1362TIP3    H225502   5.461   1.601   1.658  2.4509  1.6976  0.6877
 1363TIP3   OH225503   1.340   3.702   5.157  0.0310  0.5222 -0.7487
 1363TIP3    H125504   1.403   3.656   5.101 -0.2333 -1.6741  0.6154
 1363TIP3    H225505   1.345   3.793   5.130  2.3670  0.0896 -1.9955
 1364TIP3   OH225506   2.367   5.886  15.477 -0.2138  0.0525 -0.4716
 1364TIP3    H125507   2.332   5.952  15.417  0.6492  1.3562  0.4025
 1364TIP3    H225508   2.402   5.818  15.420 -2.9708 -0.7214 -1.3847
 1365TIP3   OH225509   0.643   2.380   0.369 -0.7435  0.4465  0.3980
 1365TIP3    H125510   0.588   2.459   0.374  0.1402  1.0475  0.7705
 1365TIP3    H225511   0.728   2.412   0.340 -0.4050 -0.4015  0.4336
 1366TIP3   OH225512   2.545   1.182   2.290 -0.1559 -0.5182  0.4546
 1366TIP3    H125513   2.488   1.257   2.275 -0.0714 -0.8228 -1.7018
 1366TIP3    H225514   2.507   1.112   2.238 -0.1155 -1.9596  2.2571
 1367TIP3   OH225515   2.938   4.839  15.712 -0.4104  0.1348  0.7317
 1367TIP3    H125516   2.865   4.790  15.751 -0.1044  0.9283  2.3609
 1367TIP3    H225517   3.007   4.774  15.700 -1.0786 -0.4604 -0.1064
 1368TIP3   OH225518   5.709   5.798   4.520 -0.2189 -0.0654  0.1540
 1368TIP3    H125519   5.707   5.702   4.526  1.4220 -0.1113  0.3154
 1368TIP3    H225520   5.725   5.816   4.427 -0.1983  0.0426  0.1784
 1369TIP3   OH225521   0.657   4.621   2.092  0.4546  0.0440  0.4510
 1369TIP3    H125522   0.574   4.574   2.099  0.5789 -0.5980 -1.7620
 1369TIP3    H225523   0.642   4.702   2.141 -1.1420 -0.5037  0.9315
 1370TIP3   OH225524   4.651   0.187  13.996  0.4836  0.7541  0.0574
 1370TIP3    H125525   4.714   0.200  13.925 -2.0632 -0.4674 -2.6959
 1370TIP3    H225526   4.660   0.095  14.019  0.7589  0.9585  0.7818
 1371TIP3   OH225527   5.502   3.510   0.019 -0.5152  0.0898 -0.1641
 1371TIP3    H125528   5.417   3.484  -0.016 -0.9453  1.6248 -0.3477
 1371TIP3    H225529   5.560   3.435   0.000 -1.4982 -0.4365 -1.2480
 1372TIP3   OH225530   1.159   6.208  12.850  0.0632 -0.0438 -0.1802
 1372TIP3    H125531   1.094   6.263  12.806 -0.5786 -0.9996 -0.4375
 1372TIP3    H225532   1.113   6.168  12.923  0.2665 -0.9974 -0.5661
 1373TIP3   OH225533   6.139   6.195   0.254  0.3395  0.3243  0.6588
 1373TIP3    H125534   6.052   6.211   0.292 -0.8704 -2.4485 -0.6104
 1373TIP3    H225535   6.200   6.211   0.325 -1.2021  2.1305  1.6713
 1374TIP3   OH225536   6.014   6.457  12.949 -0.1283  0.8493 -0.4014
 1374TIP3    H125537   6.035   6.436  12.858 -1.8183 -1.7070 -0.2794
 1374TIP3    H225538   6.041   6.380  12.998  0.0301  1.8776  1.1978
 1375TIP3   OH225539   4.096   3.571  16.907 -0.3729 -0.4223 -0.7487
 1375TIP3    H125540   4.145   3.652  16.893 -0.2320 -0.1622  1.0536
 1375TIP3    H225541   4.004   3.597  16.908 -0.2764  0.0810  1.5785
 1376TIP3   OH225542   0.435   5.422   6.610  0.0161 -0.4677  0.1366
 1376TIP3    H125543   0.525   5.395   6.632  0.2960 -0.7449 -1.2342
 1376TIP3    H225544   0.445   5.475   6.531 -1.1025 -1.2734 -0.5705
 1377TIP3   OH225545   1.038   3.818   0.649  0.0343 -0.2533  0.6223
 1377TIP3    H125546   1.096   3.762   0.701  0.9572  1.3373  1.3755
 1377TIP3    H225547   1.012   3.887   0.709 -1.3033 -0.0108 -0.2098
 1378TIP3   OH225548   1.428   0.632  12.649 -0.4623  0.4331 -0.1835
 1378TIP3    H125549   1.348   0.594  12.686 -0.1301 -0.2076 -0.1235
 1378TIP3    H225550   1.396   0.696  12.586 -1.0290 -0.5448 -0.9147
 1379TIP3   OH225551   4.666   3.484  13.280 -0.5031 -0.0143  0.1121
 1379TIP3    H125552   4.666   3.398  13.238 -1.5799  0.7078 -1.4894
 1379TIP3    H225553   4.723   3.537  13.225  0.1668  0.3160  1.0976
 1380TIP3   OH225554   2.813   5.091   2.896  0.7413 -0.0544  1.3250
 1380TIP3    H125555   2.759   5.013   2.901 -0.8273  0.9162  0.5725
 1380TIP3    H225556   2.817   5.124   2.986 -2.8265  1.6342  1.0608
 1381TIP3   OH225557   1.895   3.744  12.277  0.1763  0.2483  0.2131
 1381TIP3    H125558   1.800   3.746  12.266 -0.2470 -0.9841  2.7985
 1381TIP3    H225559   1.921   3.657  12.249  0.4932  0.4174 -0.0340
 1382TIP3   OH225560   3.218   5.774  15.231  1.0971 -0.5721  0.2475
 1382TIP3    H125561   3.307   5.794  15.202  0.5918  0.7013 -0.4846
 1382TIP3    H225562   3.163   5.791  15.155  0.0708  0.0391  1.0941
 1383TIP3   OH225563   5.870   0.576   3.520  0.0768  0.2309  0.5372
 1383TIP3    H125564   5.802   0.566   3.586 -1.5515 -2.3934 -1.3523
 1383TIP3    H225565   5.832   0.635   3.455  0.0551 -0.3373  0.0299
 1384TIP3   OH225566   1.823   4.115  15.116  0.1988  0.2775  0.2938
 1384TIP3    H125567   1.745   4.167  15.095  0.1123 -0.1839 -0.5845
 1384TIP3    H225568   1.896   4.166  15.081  0.1474  0.0157 -0.2162
 1385TIP3   OH225569   4.931   2.210  16.976  0.1198  0.8785 -0.0048
 1385TIP3    H125570   5.019   2.175  16.983 -0.5128 -1.3005 -1.7244
 1385TIP3    H225571   4.910   2.243  17.063  1.2986 -1.9387  1.4411
 1386TIP3   OH225572   1.426   4.458   1.660 -0.2752 -0.3234 -0.2589
 1386TIP3    H125573   1.358   4.514   1.624  2.1226  2.4418 -0.8639
 1386TIP3    H225574   1.495   4.459   1.593  1.1696 -1.3651  1.1422
 1387TIP3   OH225575   6.158   3.086   3.878 -0.1928  0.2904 -0.2867
 1387TIP3    H125576   6.069   3.103   3.907  0.0209 -0.2964  0.7552
 1387TIP3    H225577   6.151   3.007   3.825 -0.4474  0.8663 -1.1373
 1388TIP3   OH225578   3.653   2.784  14.667  0.4196 -0.6574 -0.2116
 1388TIP3    H125579   3.720   2.741  14.614 -0.2020 -1.0390 -0.6937
 1388TIP3    H225580   3.668   2.750  14.756  1.4725  0.0026 -0.1266
 1389TIP3   OH225581   6.364   0.569   4.361 -0.4827  0.0327  0.0803
 1389TIP3    H125582   6.311   0.623   4.421 -0.9384 -0.9041  0.5535
 1389TIP3    H225583   6.454   0.586   4.387 -0.6829 -0.6138  1.2972
 1390TIP3   OH225584   6.238   0.314  17.295  0.1331 -0.1159 -0.6345
 1390TIP3    H125585   6.302   0.273  17.235  0.7746 -1.7138  1.0417
 1390TIP3    H225586   6.292   0.353  17.364 -0.6141 -2.4738  1.4254
 1391TIP3   OH225587   3.246   0.311   0.040 -0.0426 -0.0531 -0.0665
 1391TIP3    H125588   3.166   0.310   0.092 -0.6946 -1.2660 -1.0452
 1391TIP3    H225589   3.219   0.344  -0.045 -0.2988 -3.4198 -1.4702
 1392TIP3   OH225590   0.905   6.128   6.722 -0.0633  0.0798  0.0091
 1392TIP3    H125591   0.921   6.190   6.651  2.0036 -0.2999  0.0881
 1392TIP3    H225592   0.840   6.171   6.778 -2.2825  0.1276 -2.3846
 1393TIP3   OH225593   2.103   3.399   0.495 -0.6793  0.1390  0.7407
 1393TIP3    H125594   2.079   3.424   0.584 -1.2572  0.3678  0.5308
 1393TIP3    H225595   2.114   3.304   0.498  2.1786  0.4071  1.7044
 1394TIP3   OH225596   0.693   0.180  16.944 -0.3157  0.5571 -0.0719
 1394TIP3    H125597   0.648   0.243  16.889  0.2397  0.1095 -1.0659
 1394TIP3    H225598   0.634   0.105  16.949 -0.8869  1.0521  0.9436
 1395TIP3   OH225599   1.904   4.253  12.280  0.1893  0.1948 -0.2832
 1395TIP3    H125600   1.855   4.173  12.262 -0.8630  0.7363  0.0700
 1395TIP3    H225601   1.976   4.225  12.337 -1.4482 -0.2023  1.7297
 1396TIP3   OH225602   3.457   3.434  11.022 -0.3856 -0.5222 -0.2680
 1396TIP3    H125603   3.368   3.408  11.044 -0.5167 -2.0600 -2.2762
 1396TIP3    H225604   3.448   3.490  10.944  0.3279  0.6790  0.4748
 1397TIP3   OH225605   5.163   3.613  14.950 -0.2261 -0.1557  0.3751
 1397TIP3    H125606   5.170   3.709  14.952 -2.9311  0.1153  1.4662
 1397TIP3    H225607   5.147   3.592  14.858  1.6031  0.2712 -0.0760
 1398TIP3   OH225608   0.574   2.537   4.371  0.0009 -0.8105 -0.3341
 1398TIP3    H125609   0.514   2.532   4.297 -1.3157 -0.5729  0.6653
 1398TIP3    H225610   0.658   2.561   4.333 -0.3395 -1.8936 -1.8769
 1399TIP3   OH225611   3.269   5.265   4.857  0.5182 -0.1846  0.5685
 1399TIP3    H125612   3.219   5.269   4.938  0.3369  3.1973  0.4336
 1399TIP3    H225613   3.344   5.209   4.877 -0.7260 -1.3129  2.2874
 1400TIP3   OH225614   5.015   6.148  17.418  0.3598  0.0637 -0.0153
 1400TIP3    H125615   4.959   6.091  17.470 -0.1363  1.0017  0.5012
 1400TIP3    H225616   5.039   6.095  17.342 -2.0440 -0.0393 -0.7787
 1401TIP3   OH225617   2.133   2.489   2.580  0.3132  0.1297 -0.4670
 1401TIP3    H125618   2.116   2.428   2.508  2.8639 -0.4129 -0.6935
 1401TIP3    H225619   2.185   2.559   2.540  2.6748 -0.6935  0.9806
 1402TIP3   OH225620   3.184   5.578   5.114  0.4937  0.4463  0.5004
 1402TIP3    H125621   3.236   5.612   5.186  1.7690  2.0090 -1.0635
 1402TIP3    H225622   3.149   5.656   5.071  0.1053 -0.4190 -0.8141
 1403TIP3   OH225623   6.218   0.284  16.986  0.0113 -0.1825  0.3675
 1403TIP3    H125624   6.263   0.214  16.939  2.3682  0.1205  2.0266
 1403TIP3    H225625   6.163   0.239  17.050 -1.3853 -0.5265 -0.9980
 1404TIP3   OH225626   2.543   4.359   4.365  0.1293 -0.1849  0.1538
 1404TIP3    H125627   2.542   4.371   4.460 -1.3644  0.7470  0.0533
 1404TIP3    H225628   2.504   4.439   4.330  0.0491 -0.7903 -1.2098
 1405TIP3   OH225629   1.445   1.832  16.238  0.2061 -0.0120  0.5517
 1405TIP3    H125630   1.478   1.916  16.204  1.3745  0.3147  2.3974
 1405TIP3    H225631   1.352   1.848  16.254 -0.4115 -0.1640 -2.2875
 1406TIP3   OH225632   4.639   3.645   5.581 -1.0216 -0.3365  0.0029
 1406TIP3    H125633   4.685   3.676   5.503 -0.4615 -1.3938 -0.1040
 1406TIP3    H225634   4.622   3.724   5.632  2.3689  0.0082  0.8513
 1407TIP3   OH225635   2.058   2.643  14.434 -0.3347  0.2206  0.1119
 1407TIP3    H125636   1.993   2.703  14.469 -0.9731 -0.6463  0.4511
 1407TIP3    H225637   2.007   2.570  14.398  0.3768  0.2774 -1.0863
 1408TIP3   OH225638   3.734   5.744  15.378  0.1742  0.1179  0.2069
 1408TIP3    H125639   3.650   5.728  15.336  1.2706 -0.2132 -2.0198
 1408TIP3    H225640   3.753   5.663  15.426  0.6063 -1.0878 -1.8698
 1409TIP3   OH225641   1.390   1.700   4.761 -0.9191  0.4999  0.3683
 1409TIP3    H125642   1.362   1.622   4.809 -0.0141  0.5099  0.9262
 1409TIP3    H225643   1.366   1.773   4.817 -1.1221  0.5885  0.1676
 1410TIP3   OH225644   1.124   5.080  11.953  0.4084  0.5062  0.4122
 1410TIP3    H125645   1.176   5.007  11.986  0.3647 -1.0765 -2.7272
 1410TIP3    H225646   1.065   5.041  11.889 -0.1982  3.1688 -0.7777
 1411TIP3   OH225647   5.053   1.698   5.889  0.2057 -0.6921  0.4631
 1411TIP3    H125648   5.062   1.670   5.980 -1.1019 -0.9869  0.5154
 1411TIP3    H225649   5.133   1.749   5.872  0.5588 -0.7953  1.7027
 1412TIP3   OH225650   1.782   2.413   5.688  0.1114  0.1436  0.0529
 1412TIP3    H125651   1.870   2.451   5.694  0.5025 -0.5288 -1.0815
 1412TIP3    H225652   1.781   2.344   5.754  0.9086 -0.7060 -0.7984
 1413TIP3   OH225653   3.169   6.292  11.476 -0.0912  0.8848  0.5018
 1413TIP3    H125654   3.148   6.264  11.387 -1.5397 -1.6834  1.5327
 1413TIP3    H225655   3.125   6.376  11.487  1.2045  1.9140 -1.5536
 1414TIP3   OH225656   0.676   5.668  12.562 -0.0493  0.3370  0.6156
 1414TIP3    H125657   0.695   5.718  12.642  0.1726  0.1343  0.6863
 1414TIP3    H225658   0.746   5.604  12.556  0.0845  0.5260  0.1103
 1415TIP3   OH225659   5.733   0.727   3.873  0.1593 -0.6087  0.0455
 1415TIP3    H125660   5.651   0.745   3.919 -0.4295 -1.4926 -0.6262
 1415TIP3    H225661   5.710   0.663   3.806  1.0602  0.3554 -1.2494
 1416TIP3   OH225662   4.798   6.403   1.165  0.0579  0.1259  0.1578
 1416TIP3    H125663   4.847   6.378   1.087  0.2201  2.6987 -0.6514
 1416TIP3    H225664   4.862   6.397   1.236  0.9250  1.1529 -0.5062
 1417TIP3   OH225665   6.294   0.036  15.578  0.5723 -0.4486 -0.0157
 1417TIP3    H125666   6.268   0.064  15.666  1.4181  0.2258  0.0327
 1417TIP3    H225667   6.217   0.053  15.524  0.5760  0.6255  0.2975
 1418TIP3   OH225668   1.434   4.303   0.202  0.5420  0.2590  0.5827
 1418TIP3    H125669   1.448   4.229   0.261  1.5771  0.1125  0.1826
 1418TIP3    H225670   1.353   4.343   0.232  0.6638 -0.2524  1.6332
 1419TIP3   OH225671   0.966   4.992  15.393 -0.5442 -0.4530 -0.2490
 1419TIP3    H125672   0.873   4.987  15.373 -0.9003 -1.6249  1.4712
 1419TIP3    H225673   1.004   4.918  15.347 -0.6871 -0.7567  0.1190
 1420TIP3   OH225674   5.752   5.947   0.903 -0.5565 -0.1150 -0.4784
 1420TIP3    H125675   5.762   5.957   0.808 -1.5663 -0.1553 -0.5944
 1420TIP3    H225676   5.783   5.858   0.921  0.5350  0.2189 -0.6234
 1421TIP3   OH225677   0.763   4.146  16.220  0.2019 -0.3594 -0.3017
 1421TIP3    H125678   0.678   4.178  16.250 -0.1087 -1.3633 -0.0637
 1421TIP3    H225679   0.745   4.111  16.133  1.1173  2.6439 -1.8463
 1422TIP3   OH225680   3.011   0.217  14.902 -0.0101 -0.3198 -0.1615
 1422TIP3    H125681   3.104   0.232  14.915  0.1303 -1.0490 -0.3317
 1422TIP3    H225682   2.984   0.162  14.975 -0.5043  0.6236  0.3860
 1423TIP3   OH225683   1.025   2.575   4.918 -1.0836 -0.5673  0.3856
 1423TIP3    H125684   0.964   2.557   4.847 -0.4120 -1.5419  0.0342
 1423TIP3    H225685   1.033   2.670   4.919 -1.7960 -0.4895 -0.2400
 1424TIP3   OH225686   2.888   5.151  12.842 -0.0520 -0.8920  0.0574
 1424TIP3    H125687   2.901   5.105  12.925 -0.1138 -2.6993 -0.9072
 1424TIP3    H225688   2.793   5.160  12.834 -0.0129  0.8054  0.9407
 1425TIP3   OH225689   2.649   0.755   5.162  0.2001 -0.2504  0.2650
 1425TIP3    H125690   2.641   0.741   5.257  0.2642 -0.8568  0.1830
 1425TIP3    H225691   2.569   0.719   5.125  0.0841  0.1663  0.0995
 1426TIP3   OH225692   4.181   2.121   5.011 -0.4160 -0.2309 -0.2649
 1426TIP3    H125693   4.148   2.165   4.933  0.4026 -1.4194 -1.3228
 1426TIP3    H225694   4.175   2.027   4.990  1.7418 -0.5327  0.2680
 1427TIP3   OH225695   2.264   4.201   4.900  0.4631 -0.3432 -0.9719
 1427TIP3    H125696   2.315   4.164   4.828 -0.2252 -1.1366 -1.0671
 1427TIP3    H225697   2.173   4.195   4.870 -0.0025 -2.2221  0.5963
 1428TIP3   OH225698   6.328   1.499  15.556  0.2997  0.2952  0.4230
 1428TIP3    H125699   6.238   1.507  15.523 -0.2303 -0.3313  1.6524
 1428TIP3    H225700   6.318   1.454  15.640  2.0072 -2.4345 -0.7034
 1429TIP3   OH225701   4.073   2.033   1.931 -0.2050 -0.3091  0.1278
 1429TIP3    H125702   4.115   1.955   1.895  0.5123  0.1321 -0.0167
 1429TIP3    H225703   3.980   2.013   1.929 -0.1137 -0.7155 -0.9797
 1430TIP3   OH225704   2.793   3.682  12.749  0.0674  0.2961  0.1657
 1430TIP3    H125705   2.851   3.634  12.808 -0.1089 -0.4484 -0.2644
 1430TIP3    H225706   2.714   3.699  12.801 -0.5527 -1.3524 -0.1908
 1431TIP3   OH225707   3.839   5.783  13.167  0.3057 -0.3575 -0.1065
 1431TIP3    H125708   3.808   5.774  13.077  1.5210  1.3693 -0.7679
 1431TIP3    H225709   3.896   5.708  13.181 -1.5322 -1.7945  0.0128
 1432TIP3   OH225710   5.170   2.511  16.606  0.1385 -0.6834 -0.4615
 1432TIP3    H125711   5.089   2.550  16.575  0.0670 -0.1766  0.3350
 1432TIP3    H225712   5.239   2.564  16.568  0.0761 -0.6319 -0.5024
 1433TIP3   OH225713   0.251   0.506  12.742  0.3472  0.0598  0.1181
 1433TIP3    H125714   0.344   0.525  12.753  0.0518  3.3016 -1.7772
 1433TIP3    H225715   0.239   0.494  12.648 -0.8880 -2.5622  0.5081
 1434TIP3   OH225716   1.805   6.712  16.281 -0.3547  0.1494 -0.3704
 1434TIP3    H125717   1.891   6.681  16.310 -1.0151 -0.4291  1.0829
 1434TIP3    H225718   1.787   6.789  16.335 -1.1197 -0.2775  0.0171
 1435TIP3   OH225719   0.168   1.698   6.384 -0.0835  0.6950 -0.2734
 1435TIP3    H125720   0.193   1.606   6.392 -0.7006  0.6723  4.2221
 1435TIP3    H225721   0.242   1.740   6.339  0.8763 -1.7243 -1.0852
 1436TIP3   OH225722   6.420   0.441  11.332  0.2996 -0.3557  0.2237
 1436TIP3    H125723   6.363   0.518  11.338  1.2855  0.3391  0.7727
 1436TIP3    H225724   6.396   0.402  11.248 -1.7499 -0.7085  0.9031
 1437TIP3   OH225725   1.485   2.483   0.287  0.6403  0.6641  0.5512
 1437TIP3    H125726   1.430   2.545   0.240  0.2192  0.6317  0.9950
 1437TIP3    H225727   1.494   2.520   0.375  0.3522  0.0892  0.8331
 1438TIP3   OH225728   4.491   3.483   4.992  0.2569  0.2086 -0.3039
 1438TIP3    H125729   4.422   3.492   5.058 -1.2316  0.7142 -1.8693
 1438TIP3    H225730   4.546   3.411   5.024 -0.0454  0.8443  1.7800
 1439TIP3   OH225731   3.834   0.020  11.233 -0.0926 -0.0758  0.6240
 1439TIP3    H125732   3.772  -0.028  11.287  1.0233 -2.3985  0.0275
 1439TIP3    H225733   3.912   0.030  11.288  0.5226 -1.1545  0.0114
 1440TIP3   OH225734   1.841   4.382   5.548 -0.3118  0.8630 -0.1358
 1440TIP3    H125735   1.917   4.439   5.561 -1.5995  2.8498 -0.8334
 1440TIP3    H225736   1.771   4.423   5.600 -1.4528  0.2822 -1.1589
 1441TIP3   OH225737   3.574   5.513   5.246 -0.0531  0.6286 -0.0294
 1441TIP3    H125738   3.581   5.436   5.189  1.1028 -0.4390  1.4733
 1441TIP3    H225739   3.648   5.567   5.222  0.7003 -0.0377  0.7069
 1442TIP3   OH225740   0.357   4.600   0.006  0.2390  0.6614  0.0163
 1442TIP3    H125741   0.426   4.643  -0.045  0.2784  0.3813 -0.1710
 1442TIP3    H225742   0.287   4.665   0.011  0.9219  1.3463  1.1153
 1443TIP3   OH225743   3.059   4.948   1.874 -0.1585  0.0278  0.1590
 1443TIP3    H125744   3.144   4.917   1.843 -1.0345 -0.4202 -1.9509
 1443TIP3    H225745   2.999   4.876   1.857 -1.4530  1.2912 -0.9899
 1444TIP3   OH225746   3.898   5.378  12.491  0.6410 -0.2512  0.3343
 1444TIP3    H125747   3.819   5.324  12.492  0.4603 -0.1625 -2.3009
 1444TIP3    H225748   3.876   5.451  12.433  3.0083 -0.8378 -1.4360
 1445TIP3   OH225749   4.740   5.362   3.500 -0.1087  0.1358  0.3815
 1445TIP3    H125750   4.667   5.418   3.528 -0.3969 -0.0785  0.0694
 1445TIP3    H225751   4.817   5.400   3.543 -0.1641  1.2524 -0.4443
 1446TIP3   OH225752   5.160   4.524   2.264 -0.3609 -0.3089 -0.6383
 1446TIP3    H125753   5.099   4.598   2.270 -0.7251 -0.4247 -2.4173
 1446TIP3    H225754   5.109   4.454   2.225  0.2503 -1.2327  0.1588
 1447TIP3   OH225755   0.266   4.071   1.591 -0.0561  0.0512 -0.1050
 1447TIP3    H125756   0.348   4.093   1.546 -0.5886  1.8662 -0.2537
 1447TIP3    H225757   0.294   4.030   1.673  1.0019  0.3843 -0.2820
 1448TIP3   OH225758   2.319   2.770  14.433 -0.0948 -0.0397 -0.0573
 1448TIP3    H125759   2.315   2.864  14.446  0.5585 -0.1067  0.7134
 1448TIP3    H225760   2.229   2.743  14.416  0.0576  1.1667 -3.6868
 1449TIP3   OH225761   2.385   0.900   2.596 -0.6742 -0.1302 -0.3913
 1449TIP3    H125762   2.378   0.994   2.615  2.3032  0.2483 -0.6105
 1449TIP3    H225763   2.478   0.886   2.581 -1.0752 -3.1026 -0.7021
 1450TIP3   OH225764   4.549   1.171   0.878  0.0989 -0.4696  0.3667
 1450TIP3    H125765   4.540   1.079   0.902  2.3596 -0.7072  0.5136
 1450TIP3    H225766   4.634   1.198   0.914  0.0740  1.3148 -0.7466
 1451TIP3   OH225767   0.907   3.142   5.315  0.5582  0.0942  0.1345
 1451TIP3    H125768   0.970   3.202   5.356 -1.0187  2.2742 -0.4110
 1451TIP3    H225769   0.823   3.189   5.321 -0.4807 -1.3931 -1.7641
 1452TIP3   OH225770   6.478   4.337   5.726 -0.0293 -0.0047  0.1672
 1452TIP3    H125771   6.410   4.274   5.750 -0.2026  0.1995  0.2181
 1452TIP3    H225772   6.468   4.348   5.632 -0.2434  0.2270  0.2152
 1453TIP3   OH225773   0.725   2.996   6.209 -0.2825  0.0180 -0.3066
 1453TIP3    H125774   0.734   2.901   6.202  0.1727 -0.1137  1.5470
 1453TIP3    H225775   0.635   3.009   6.240  0.2673  0.0129  1.4287
 1454TIP3   OH225776   0.444   1.449  11.407 -0.0020 -0.3205  0.4435
 1454TIP3    H125777   0.370   1.407  11.363 -0.3060 -1.8100  2.2372
 1454TIP3    H225778   0.422   1.542  11.409 -1.4824 -0.6465  0.2977
 1455TIP3   OH225779   5.219   0.957   2.985 -0.0901 -0.4460 -0.7896
 1455TIP3    H125780   5.146   1.014   3.009 -0.3445 -0.6867 -0.9942
 1455TIP3    H225781   5.198   0.925   2.897  0.8867  0.5233 -1.4107
 1456TIP3   OH225782   4.387   5.849  15.534 -0.0964 -0.5788 -0.5734
 1456TIP3    H125783   4.330   5.875  15.461 -2.3622 -4.1624 -0.3059
 1456TIP3    H225784   4.401   5.756  15.522  1.2915 -0.8662  2.4193
 1457TIP3   OH225785   5.415   5.456   5.802 -0.4121 -0.8570  0.2291
 1457TIP3    H125786   5.423   5.419   5.714 -0.2887 -1.3144  0.4291
 1457TIP3    H225787   5.453   5.389   5.859  1.8251  0.4679  0.4049
 1458TIP3   OH225788   5.291   5.846   1.904 -0.4372  0.3341 -0.5345
 1458TIP3    H125789   5.263   5.928   1.864 -0.9539 -0.1391 -1.1666
 1458TIP3    H225790   5.230   5.781   1.870 -1.4426  0.0415  1.6771
 1459TIP3   OH225791   2.454   0.304   0.746 -0.0094 -0.1051  0.0136
 1459TIP3    H125792   2.538   0.313   0.701  0.1008 -1.4048 -0.0898
 1459TIP3    H225793   2.389   0.315   0.677  0.1517 -1.6371 -0.4360
 1460TIP3   OH225794   4.903   5.549  13.191  0.1011  0.4651  0.0179
 1460TIP3    H125795   4.997   5.543  13.208  0.2356 -1.7722 -1.0723
 1460TIP3    H225796   4.895   5.617  13.124  1.3591 -1.2968 -2.0403
 1461TIP3   OH225797   5.040   5.585  10.689 -0.4065  0.2388 -0.0649
 1461TIP3    H125798   5.083   5.509  10.649 -2.9209 -1.8987  0.9920
 1461TIP3    H225799   4.948   5.576  10.664 -1.2432  1.4153  2.3162
 1462TIP3   OH225800   3.971   6.115  11.320  0.0368  0.0207 -0.0368
 1462TIP3    H125801   3.887   6.077  11.295  1.1787 -3.3657  0.6890
 1462TIP3    H225802   3.986   6.083  11.410  2.5383 -0.4635 -0.5412
 1463TIP3   OH225803   2.454   0.403  16.644 -0.8634  0.2317  0.2354
 1463TIP3    H125804   2.426   0.330  16.700 -0.5300  0.5506  0.8336
 1463TIP3    H225805   2.464   0.364  16.557 -0.7837 -0.4170  0.5271
 1464TIP3   OH225806   0.865   6.127  16.725 -0.3049 -0.0251 -0.0956
 1464TIP3    H125807   0.777   6.161  16.707 -0.1356  0.1185 -0.6913
 1464TIP3    H225808   0.887   6.161  16.811 -1.2150 -0.8411  0.4759
 1465TIP3   OH225809   1.392   1.453   6.485  0.5604  0.0439  0.1300
 1465TIP3    H125810   1.459   1.513   6.519 -0.1128  1.4694 -0.9206
 1465TIP3    H225811   1.325   1.511   6.447 -0.7030 -1.3619  0.1052
 1466TIP3   OH225812   5.583   2.875   0.481 -0.3185  0.4021  0.2904
 1466TIP3    H125813   5.527   2.805   0.446  0.4377 -0.5049  0.8288
 1466TIP3    H225814   5.523   2.946   0.501 -0.8073  0.9064 -2.6366
 1467TIP3   OH225815   3.191   4.250  15.417 -0.2802 -0.0894 -0.4710
 1467TIP3    H125816   3.148   4.231  15.500 -0.1288  1.2341 -0.0757
 1467TIP3    H225817   3.282   4.224  15.430 -0.6738 -1.9246 -0.9733
 1468TIP3   OH225818   1.305   0.323  16.049 -0.0718 -0.2314 -0.2681
 1468TIP3    H125819   1.253   0.266  16.105  0.4673 -0.8859 -0.4204
 1468TIP3    H225820   1.256   0.329  15.967  0.1391 -0.9344 -0.4510
 1469TIP3   OH225821   5.284   2.570   4.944  0.1019 -0.7179 -0.0997
 1469TIP3    H125822   5.327   2.514   5.008  0.4037 -1.7044 -1.1349
 1469TIP3    H225823   5.193   2.542   4.944 -0.0602 -0.2090  0.4209
 1470TIP3   OH225824   5.328   2.795  13.633  0.3432  0.0486 -0.0631
 1470TIP3    H125825   5.381   2.813  13.555 -1.4559  1.6645 -1.0173
 1470TIP3    H225826   5.388   2.806  13.706  1.3184  1.9677 -1.0786
 1471TIP3   OH225827   2.302   1.544   4.693  0.4892  0.0523  0.0667
 1471TIP3    H125828   2.294   1.570   4.784 -0.0563 -1.6755  0.5331
 1471TIP3    H225829   2.396   1.548   4.676  0.7533 -1.0115  1.1522
 1472TIP3   OH225830   3.239   5.393  15.262 -0.4464 -0.7303 -0.0500
 1472TIP3    H125831   3.235   5.397  15.358  3.1739 -0.4305  0.2305
 1472TIP3    H225832   3.219   5.301  15.242 -2.2437 -0.5776  0.8630
 1473TIP3   OH225833   2.260   1.420  14.275  0.6136 -0.0415 -0.3818
 1473TIP3    H125834   2.347   1.461  14.274  0.2254  0.8105 -1.6392
 1473TIP3    H225835   2.201   1.490  14.246 -0.6303 -0.3442  1.3150
 1474TIP3   OH225836   5.097   1.928  15.985 -0.1354  0.5704  0.2057
 1474TIP3    H125837   5.078   1.857  16.046  1.1099 -0.0758 -0.1223
 1474TIP3    H225838   5.171   1.896  15.934  1.1135  2.4975  0.7069
 1475TIP3   OH225839   0.540   3.730  13.325  0.1868 -0.1689  1.1088
 1475TIP3    H125840   0.588   3.657  13.287  1.5422  1.3839 -0.3242
 1475TIP3    H225841   0.602   3.803  13.325 -1.8457  1.6772  0.0693
 1476TIP3   OH225842   4.748   3.192   1.147  1.2825  0.0252  0.4377
 1476TIP3    H125843   4.753   3.102   1.181  1.1443 -0.3563 -0.5164
 1476TIP3    H225844   4.718   3.181   1.057 -0.6494  1.1499  0.8881
 1477TIP3   OH225845   6.035   6.038  12.479 -0.3550 -0.6475 -0.6732
 1477TIP3    H125846   6.034   6.023  12.573  0.3155  0.3102 -0.4996
 1477TIP3    H225847   6.075   6.125  12.469 -3.0761  0.5986 -1.6470
 1478TIP3   OH225848   3.525   2.883  15.247 -0.2940 -0.0650  0.0351
 1478TIP3    H125849   3.553   2.880  15.339 -2.5644 -2.2413  0.7676
 1478TIP3    H225850   3.487   2.969  15.235 -1.8167 -0.4527  1.7815
 1479TIP3   OH225851   5.161   3.385  15.285  0.2816  0.2779  0.1375
 1479TIP3    H125852   5.127   3.462  15.239 -1.7304 -0.4056  0.4055
 1479TIP3    H225853   5.174   3.320  15.216  0.4431  0.3259  0.1215
 1480TIP3   OH225854   3.695   1.276  10.728 -0.3751  0.1585 -0.1243
 1480TIP3    H125855   3.623   1.277  10.665 -0.3605  0.1543 -0.1413
 1480TIP3    H225856   3.772   1.252  10.675 -0.0815  1.6393 -0.4105
 1481TIP3   OH225857   1.396   6.059  13.758 -0.2567 -0.6101  0.2761
 1481TIP3    H125858   1.371   6.118  13.829 -1.3143 -0.0278 -0.5526
 1481TIP3    H225859   1.396   6.114  13.679  2.7248 -0.8018  0.0460
 1482TIP3   OH225860   2.650   3.318   6.435 -0.5175  0.1448 -0.2515
 1482TIP3    H125861   2.673   3.403   6.397  1.7871 -0.6390 -0.7682
 1482TIP3    H225862   2.641   3.260   6.359 -2.0865 -0.1213  0.0974
 1483TIP3   OH225863   0.072   2.122   5.802  0.1138  0.3819  0.0664
 1483TIP3    H125864   0.132   2.054   5.834 -0.5751  0.2205  1.0625
 1483TIP3    H225865  -0.011   2.103   5.845 -0.6346  0.6785 -1.1956
 1484TIP3   OH225866   4.184   5.395   1.306  0.0504  0.2314 -0.1407
 1484TIP3    H125867   4.156   5.438   1.387 -2.9977  0.0991 -1.0096
 1484TIP3    H225868   4.166   5.460   1.238 -0.6317 -0.8592 -1.0281
 1485TIP3   OH225869   3.243   0.179  16.806  0.0469  0.2360  0.0978
 1485TIP3    H125870   3.190   0.247  16.765  0.2260 -0.0496 -0.6225
 1485TIP3    H225871   3.330   0.218  16.813 -0.0258  0.3528  0.3951
 1486TIP3   OH225872   0.293   5.186  16.204 -0.3327 -0.1559  0.1539
 1486TIP3    H125873   0.217   5.201  16.260  0.3195  2.2381  0.5108
 1486TIP3    H225874   0.357   5.251  16.234  1.0529 -0.6913 -1.5458
 1487TIP3   OH225875   0.454   4.238  12.158  0.0971  0.6252  0.6203
 1487TIP3    H125876   0.419   4.294  12.227  0.1556  1.4406  0.0001
 1487TIP3    H225877   0.506   4.296  12.104 -1.4556  0.4248 -1.1933
 1488TIP3   OH225878   2.515   4.259  15.468 -0.0057 -0.2826 -0.2422
 1488TIP3    H125879   2.509   4.341  15.420  0.0186  0.7943  1.5140
 1488TIP3    H225880   2.609   4.244  15.477  0.1136  1.3877  2.3811
 1489TIP3   OH225881   0.677   1.174  16.126 -0.0741  0.0207  0.1601
 1489TIP3    H125882   0.719   1.256  16.099  0.7834 -0.9954 -1.8186
 1489TIP3    H225883   0.616   1.154  16.054  0.0113 -1.2487  0.4332
 1490TIP3   OH225884   2.758   6.108  12.475  0.0752 -0.3162 -0.2833
 1490TIP3    H125885   2.834   6.125  12.530 -0.7422  1.3276  0.4013
 1490TIP3    H225886   2.719   6.029  12.513  1.1053 -0.8569 -0.3093
 1491TIP3   OH225887   4.685   4.445   2.961 -0.2046  0.2813  0.4305
 1491TIP3    H125888   4.750   4.378   2.979  0.1899  0.7936  0.9936
 1491TIP3    H225889   4.610   4.421   3.015  0.4605  1.0416  1.7664
 1492TIP3   OH225890   1.136   4.934  13.903 -0.4830 -0.1559  0.1535
 1492TIP3    H125891   1.142   4.866  13.970  1.9229 -0.8144 -0.6230
 1492TIP3    H225892   1.227   4.954  13.881 -1.1741  0.7372 -2.2417
 1493TIP3   OH225893   2.508   2.660   6.459 -0.1348 -0.0169 -0.5322
 1493TIP3    H125894   2.417   2.636   6.473  0.4210 -1.2678  1.3323
 1493TIP3    H225895   2.549   2.579   6.427  0.5876  0.1302  0.0031
 1494TIP3   OH225896   3.136   0.128   3.355  0.1931 -0.5919 -0.5689
 1494TIP3    H125897   3.126   0.098   3.264  1.8142  1.9123 -1.6904
 1494TIP3    H225898   3.080   0.070   3.406 -2.9034 -0.4393 -3.4790
 1495TIP3   OH225899   3.959   1.152   4.636  0.0887  0.8617 -0.7984
 1495TIP3    H125900   3.975   1.243   4.612 -1.0320  1.0313 -0.9587
 1495TIP3    H225901   4.042   1.122   4.675 -0.0735  2.4619  0.8875
 1496TIP3   OH225902   0.363   6.522  17.433 -0.1085  0.2079  0.4696
 1496TIP3    H125903   0.312   6.550  17.509  0.3826  0.2208  0.8070
 1496TIP3    H225904   0.378   6.429  17.447  0.3889  0.3064  0.6457
 1497TIP3   OH225905   1.402   1.755  12.989  0.0532  0.1079 -0.6362
 1497TIP3    H125906   1.473   1.815  12.966  0.8905 -0.8273 -0.5493
 1497TIP3    H225907   1.385   1.705  12.909 -0.8238  0.6275 -0.7857
 1498TIP3   OH225908   2.755   3.978   5.213 -0.2500  0.0931  0.1909
 1498TIP3    H125909   2.679   4.030   5.186 -0.9332 -0.4778  0.9364
 1498TIP3    H225910   2.782   4.017   5.296  1.7279  1.7296 -1.1381
 1499TIP3   OH225911   4.734   6.383  13.071  0.0899  0.0602 -0.2179
 1499TIP3    H125912   4.682   6.345  13.141 -0.2804 -1.3733 -1.2265
 1499TIP3    H225913   4.680   6.454  13.036 -0.4765 -0.3419 -0.1696
 1500TIP3   OH225914   1.713   4.593   2.223  0.7008 -0.4618 -0.2729
 1500TIP3    H125915   1.645   4.543   2.178  0.1734 -0.0889  0.0951
 1500TIP3    H225916   1.671   4.676   2.247  1.3967 -0.0737 -0.3664
 1501TIP3   OH225917   0.611   4.435  12.324 -0.9664 -1.0307  0.3095
 1501TIP3    H125918   0.688   4.470  12.368 -1.2557 -0.2790  0.2378
 1501TIP3    H225919   0.646   4.386  12.249 -0.5939  0.3932 -0.4865
 1502TIP3   OH225920   6.658   6.363   2.868  0.2377  0.7915  0.5021
 1502TIP3    H125921   6.605   6.293   2.831  1.6739 -1.4965  2.4863
 1502TIP3    H225922   6.701   6.403   2.793 -1.2894  0.1315 -0.7670
 1503TIP3   OH225923   5.040   2.010   4.654 -0.4449 -0.1617 -0.3006
 1503TIP3    H125924   5.009   2.086   4.703  1.8740 -0.9094  2.5736
 1503TIP3    H225925   5.134   2.024   4.642  0.0884 -2.5844  0.4613
 1504TIP3   OH225926   1.501   6.065  14.647 -0.1835 -0.4697  0.0013
 1504TIP3    H125927   1.503   6.159  14.631 -0.0596 -0.6654 -1.1847
 1504TIP3    H225928   1.413   6.049  14.682 -1.3092 -0.3104 -2.5542
 1505TIP3   OH225929   1.334   2.221   0.990  0.3787 -0.1919 -0.3610
 1505TIP3    H125930   1.375   2.164   1.056  2.1256  1.1650 -0.2052
 1505TIP3    H225931   1.335   2.168   0.910  0.7639 -0.8657  0.0715
 1506TIP3   OH225932   2.536   1.520   3.080 -0.2519  0.1935 -0.6340
 1506TIP3    H125933   2.469   1.586   3.095 -0.5642 -0.4553  1.1496
 1506TIP3    H225934   2.522   1.491   2.990 -1.6976  0.8188 -0.6431
 1507TIP3   OH225935   4.210   3.377  12.592  0.0256 -0.1682 -0.0915
 1507TIP3    H125936   4.151   3.439  12.549  0.0029  0.3961  0.7122
 1507TIP3    H225937   4.230   3.419  12.676 -0.3092 -1.4478  0.6469
 1508TIP3   OH225938   1.624   0.831   3.170 -0.3737  0.0888  0.5315
 1508TIP3    H125939   1.567   0.908   3.166 -0.3751  0.0651  0.0305
 1508TIP3    H225940   1.654   0.819   3.080  2.0940  1.3809  1.0768
 1509TIP3   OH225941   0.275   4.379  15.650 -0.1541 -0.1667  0.3549
 1509TIP3    H125942   0.326   4.420  15.580 -0.7768 -0.8545 -0.5139
 1509TIP3    H225943   0.216   4.447  15.680 -0.6947 -0.1932 -0.6022
 1510TIP3   OH225944   4.173   3.705  11.751 -0.4684  0.5347 -0.2539
 1510TIP3    H125945   4.185   3.800  11.751 -1.7385  0.7359  1.0432
 1510TIP3    H225946   4.169   3.681  11.843  1.1449 -1.0044 -0.5279
 1511TIP3   OH225947   6.044   1.961  15.291 -0.7904 -0.1554 -0.1289
 1511TIP3    H125948   6.137   1.956  15.271 -0.8662 -0.4318 -0.4197
 1511TIP3    H225949   6.012   1.871  15.284 -1.2082  0.0264 -0.6952
 1512TIP3   OH225950   1.942   1.266   4.621 -0.6344 -0.0826 -0.2360
 1512TIP3    H125951   1.867   1.311   4.660 -1.8844 -1.5567 -0.8532
 1512TIP3    H225952   2.002   1.251   4.694 -1.7135 -0.4195  0.6018
 1513TIP3   OH225953   5.958   5.664   4.192  0.1262 -0.6869  0.5243
 1513TIP3    H125954   6.021   5.658   4.264  0.2885 -0.9964  0.3559
 1513TIP3    H225955   6.011   5.662   4.113 -0.0866 -0.8389  0.3840
 1514TIP3   OH225956   1.536   1.977  15.995 -0.5307 -0.1152 -0.0296
 1514TIP3    H125957   1.559   1.978  15.902 -0.5304  0.3562 -0.0270
 1514TIP3    H225958   1.612   1.940  16.039 -1.0671 -1.6998 -0.3516
 1515TIP3   OH225959   3.598   3.752  15.287  0.0966 -0.1467  0.2165
 1515TIP3    H125960   3.576   3.839  15.255 -1.8124 -0.8716 -0.6101
 1515TIP3    H225961   3.514   3.708  15.296  1.0685 -2.3596 -0.7467
 1516TIP3   OH225962   6.722   0.614   4.955 -0.7854  0.4236 -0.2685
 1516TIP3    H125963   6.790   0.623   4.888  0.0418 -0.5204  0.4135
 1516TIP3    H225964   6.766   0.570   5.028 -1.5812  1.6915  1.0272
 1517TIP3   OH225965   2.003   4.745   0.532  0.4188  0.2728 -0.7938
 1517TIP3    H125966   2.089   4.739   0.573 -0.3075  1.8412  1.0949
 1517TIP3    H225967   1.941   4.721   0.600 -0.7273  0.8157 -1.6046
 1518TIP3   OH225968   5.617   2.187  16.057 -0.1615  0.0473 -0.4942
 1518TIP3    H125969   5.642   2.183  16.150 -0.0729 -0.1259 -0.5253
 1518TIP3    H225970   5.700   2.175  16.010  0.0842  1.7899 -0.6060
 1519TIP3   OH225971   3.063   1.820  15.847  0.1059 -0.2945  0.0184
 1519TIP3    H125972   3.022   1.793  15.929 -1.9865 -0.1816 -0.9356
 1519TIP3    H225973   3.007   1.890  15.814  0.0977 -1.2679 -2.1828
 1520TIP3   OH225974   1.522   5.766   4.189  1.0010  0.2266 -0.5407
 1520TIP3    H125975   1.475   5.830   4.136 -1.0471 -2.0543 -1.6699
 1520TIP3    H225976   1.600   5.745   4.138  0.3716 -0.0416 -1.4134
 1521TIP3   OH225977   5.691   4.292   5.106 -0.3113  0.5707  0.4970
 1521TIP3    H125978   5.672   4.354   5.036  1.3590  0.9705  0.3477
 1521TIP3    H225979   5.775   4.322   5.143  0.1471 -1.1264  0.9311
 1522TIP3   OH225980   5.423   2.020  12.061  0.2366 -0.1213  0.2791
 1522TIP3    H125981   5.501   1.966  12.050  0.0067 -0.4990  0.4806
 1522TIP3    H225982   5.401   2.048  11.972  2.1953  2.3065  0.4590
 1523TIP3   OH225983   4.398   5.219  11.917 -0.4521  0.1560  0.0605
 1523TIP3    H125984   4.321   5.275  11.904  0.2005  0.9217 -0.6082
 1523TIP3    H225985   4.448   5.263  11.986 -0.7240 -0.4791  0.6785
 1524TIP3   OH225986   5.716   5.760  13.970  0.7087 -0.1850  0.2104
 1524TIP3    H125987   5.752   5.804  14.047  1.9834 -0.9319  0.0769
 1524TIP3    H225988   5.793   5.727  13.923 -0.0444  0.2574 -1.3912
 1525TIP3   OH225989   4.882   5.291  16.279 -0.2073  0.2168  0.2115
 1525TIP3    H125990   4.849   5.314  16.366 -1.9692  4.9513 -1.4106
 1525TIP3    H225991   4.807   5.252  16.234 -0.5774  1.4275 -0.2831
 1526TIP3   OH225992   1.534   4.658   0.539 -0.1819 -0.6924 -0.4352
 1526TIP3    H125993   1.612   4.686   0.588 -1.2838  1.6651  0.1057
 1526TIP3    H225994   1.545   4.697   0.453 -1.0438  0.2116 -0.1491
 1527TIP3   OH225995   5.105   2.768  11.978  0.1822 -0.0088  0.2262
 1527TIP3    H125996   5.070   2.736  11.895  0.7958  0.7930 -0.3604
 1527TIP3    H225997   5.048   2.730  12.044  0.9420 -2.3748 -0.4040
 1528TIP3   OH225998   0.255   6.101   2.868  0.4462  0.0163 -0.1163
 1528TIP3    H125999   0.243   6.044   2.944  3.6184 -0.2611  0.3047
 1528TIP3    H226000   0.218   6.185   2.894  0.2073 -0.4661  1.1719
 1529TIP3   OH226001   1.310   0.014   0.911  0.5530 -0.3125 -0.1550
 1529TIP3    H126002   1.341  -0.066   0.954  0.1582 -0.3741  0.0174
 1529TIP3    H226003   1.354   0.014   0.826 -0.7125 -1.5796 -0.8374
 1530TIP3   OH226004   4.060   6.086  14.365  0.0352 -0.3604  0.7308
 1530TIP3    H126005   4.109   6.168  14.364 -1.0575  0.3203 -0.0525
 1530TIP3    H226006   4.025   6.080  14.454 -0.0962  0.1715  0.7170
 1531TIP3   OH226007   1.346   4.691   5.021 -0.1029  0.3369 -0.2490
 1531TIP3    H126008   1.359   4.763   5.082  1.7548  0.3285 -0.5749
 1531TIP3    H226009   1.251   4.679   5.017 -0.3473  1.5763  1.1679
 1532TIP3   OH226010   5.377   6.101  14.398 -0.3132 -0.2757  0.0894
 1532TIP3    H126011   5.429   6.180  14.406 -0.3193 -0.3131  0.5442
 1532TIP3    H226012   5.335   6.091  14.484 -3.4283  1.3889 -1.0511
 1533TIP3   OH226013   4.324   1.546  14.992 -0.0485 -0.1615 -0.5716
 1533TIP3    H126014   4.410   1.542  15.033  0.4712  0.8034 -1.5162
 1533TIP3    H226015   4.282   1.622  15.033 -0.3150 -0.4185 -0.3684
 1534TIP3   OH226016   0.940   4.158  13.543  0.1635  0.7366  0.6043
 1534TIP3    H126017   0.867   4.160  13.605 -1.3186  0.1810 -1.0566
 1534TIP3    H226018   0.915   4.218  13.473  0.5174 -0.6852 -0.8111
 1535TIP3   OH226019   4.227   2.371   3.940 -0.3316 -0.7352  0.0832
 1535TIP3    H126020   4.296   2.432   3.964  0.5080 -2.2636  1.8307
 1535TIP3    H226021   4.151   2.399   3.990 -0.8383  0.5332 -1.3156
 1536TIP3   OH226022   0.699   5.594   1.259 -0.4584  0.2807 -0.3178
 1536TIP3    H126023   0.688   5.526   1.326  0.9199 -0.4704 -0.8075
 1536TIP3    H226024   0.702   5.546   1.176  2.1064  0.6926 -0.5661
 1537TIP3   OH226025   1.704   1.257  13.396 -0.3481 -1.2188  0.3720
 1537TIP3    H126026   1.628   1.272  13.452 -1.3492  0.1158 -1.2222
 1537TIP3    H226027   1.779   1.260  13.456 -1.0231  3.4748  1.4397
 1538TIP3   OH226028   0.025   2.591   4.634 -0.1790 -0.0898 -1.0109
 1538TIP3    H126029   0.066   2.599   4.548 -0.0530 -1.2980 -1.0753
 1538TIP3    H226030   0.090   2.628   4.695  0.8225 -1.5137 -1.1666
 1539TIP3   OH226031   4.293   4.518   0.017 -0.5003 -0.3114  0.1523
 1539TIP3    H126032   4.265   4.428   0.031 -2.1631  0.0477 -0.5573
 1539TIP3    H226033   4.271   4.563   0.098 -0.0659 -0.4516  0.3493
 1540TIP3   OH226034   0.679   0.214  14.619 -0.4413  0.3834 -0.0482
 1540TIP3    H126035   0.760   0.256  14.589 -0.2828  1.0233  1.2213
 1540TIP3    H226036   0.620   0.287  14.636 -0.7354  0.0065  0.5699
 1541TIP3   OH226037   6.373   4.801  12.547 -0.3726 -0.6972 -0.1029
 1541TIP3    H126038   6.367   4.869  12.614 -0.0232 -1.3101  0.5530
 1541TIP3    H226039   6.442   4.832  12.488 -0.2428 -0.4664  0.1664
 1542TIP3   OH226040   1.072   1.569  14.041  0.1150  0.0185  0.0991
 1542TIP3    H126041   1.018   1.508  13.989 -0.4762  1.1737 -0.7136
 1542TIP3    H226042   1.044   1.655  14.011  0.3993  0.7187  1.7493
 1543TIP3   OH226043   1.762   4.851   4.511 -0.0142 -0.4286 -0.5653
 1543TIP3    H126044   1.675   4.856   4.550  0.6316 -0.3131  0.9322
 1543TIP3    H226045   1.767   4.763   4.474 -0.8853 -0.3150 -0.9755
 1544TIP3   OH226046   0.759   3.923   4.999  0.2604  0.5791 -0.1470
 1544TIP3    H126047   0.785   4.005   5.042  1.1641  0.8634 -1.1989
 1544TIP3    H226048   0.807   3.923   4.916  0.1546 -0.9519 -0.2304
 1545TIP3   OH226049   2.427   5.113   5.803  0.0504  0.0432 -0.0012
 1545TIP3    H126050   2.470   5.074   5.727 -1.9238  1.3559 -1.9410
 1545TIP3    H226051   2.436   5.048   5.872  0.2482 -2.1165 -1.9365
 1546TIP3   OH226052   1.111   6.174  13.743  0.4316  0.3836 -0.3059
 1546TIP3    H126053   1.140   6.178  13.835 -0.6064  2.3844 -0.0285
 1546TIP3    H226054   1.151   6.093  13.710  1.4075 -0.0320  1.6982
 1547TIP3   OH226055   1.343   5.489   4.013 -0.4347  0.1309 -0.1390
 1547TIP3    H126056   1.398   5.449   4.082 -1.6066 -1.4560 -0.0724
 1547TIP3    H226057   1.306   5.567   4.054 -0.8246 -0.5952  0.9386
 1548TIP3   OH226058   5.594   2.508   4.302  0.1049 -0.4876 -0.0593
 1548TIP3    H126059   5.504   2.537   4.288  0.0974 -0.4048  0.1593
 1548TIP3    H226060   5.608   2.516   4.396  0.6020  0.2583 -0.1858
 1549TIP3   OH226061   4.924   5.877  12.285  0.0300  0.1375  0.1022
 1549TIP3    H126062   4.975   5.806  12.325  0.8812 -0.2532 -1.6067
 1549TIP3    H226063   4.938   5.867  12.191 -2.0531  0.9180 -0.3526
 1550TIP3   OH226064   6.212   0.705   0.288 -0.7844 -0.4153 -0.6445
 1550TIP3    H126065   6.297   0.696   0.243  0.3012  0.1140  1.1734
 1550TIP3    H226066   6.152   0.735   0.220  1.0813  1.7565 -1.4870
 1551TIP3   OH226067   4.467   0.602   2.425 -0.4441  0.1147  0.1633
 1551TIP3    H126068   4.396   0.602   2.489 -0.3892 -0.1788  0.2244
 1551TIP3    H226069   4.511   0.518   2.438 -1.8882 -1.0435 -1.9024
 1552TIP3   OH226070   5.733   0.928  11.384 -0.0282 -0.0350 -0.6813
 1552TIP3    H126071   5.767   0.892  11.301  1.5994 -0.3612  0.0873
 1552TIP3    H226072   5.639   0.914  11.379  0.1760 -1.2051 -1.9360
 1553TIP3   OH226073   5.397   1.920   0.160 -0.1064 -0.1106  0.4240
 1553TIP3    H126074   5.434   1.917   0.072  1.5390 -1.8764  1.0913
 1553TIP3    H226075   5.381   1.828   0.182 -2.8085  0.4382  1.0968
 1554TIP3   OH226076   3.649   2.097  16.757  0.7227  0.1050 -0.1100
 1554TIP3    H126077   3.721   2.069  16.701  0.8305 -1.3848  0.7381
 1554TIP3    H226078   3.688   2.108  16.844  0.0508 -0.1610  0.2337
 1555TIP3   OH226079   1.343   3.867  16.674 -0.5322 -0.2045  0.2028
 1555TIP3    H126080   1.338   3.951  16.629 -1.0352 -0.2225  0.2182
 1555TIP3    H226081   1.387   3.809  16.612  1.5384  0.5336  0.9210
 1556TIP3   OH226082   5.447   6.033  15.066  0.0203 -0.6451  0.3854
 1556TIP3    H126083   5.488   5.958  15.022 -0.2974 -0.0070 -1.0441
 1556TIP3    H226084   5.481   6.110  15.021 -0.9679  0.0060  0.7076
 1557TIP3   OH226085   0.110   0.112  11.389 -0.6491 -0.0663 -0.1322
 1557TIP3    H126086   0.124   0.049  11.460  0.9150  0.5587  0.1517
 1557TIP3    H226087   0.054   0.066  11.327  1.9338 -2.4990 -0.8698
 1558TIP3   OH226088   2.225   5.089  14.500  0.1529 -0.0242  0.1347
 1558TIP3    H126089   2.293   5.151  14.473  2.3114 -2.0292  0.6382
 1558TIP3    H226090   2.168   5.080  14.423  1.4784  0.4330 -0.9258
 1559TIP3   OH226091   4.649   1.922  16.750  0.1047 -0.3123 -0.1627
 1559TIP3    H126092   4.690   2.006  16.773 -2.4603  0.7856  0.8854
 1559TIP3    H226093   4.639   1.876  16.834 -2.5838  0.4311  0.0385
 1560TIP3   OH226094   6.318   6.512  16.904 -0.3847 -0.4778  0.4697
 1560TIP3    H126095   6.245   6.571  16.889  0.4753  1.1333  2.2052
 1560TIP3    H226096   6.293   6.431  16.860 -2.3746  0.6121 -0.5204
 1561TIP3   OH226097   3.185   5.641   2.586 -0.3945  0.8467 -0.3321
 1561TIP3    H126098   3.138   5.614   2.506  3.6205 -0.0600 -2.6630
 1561TIP3    H226099   3.220   5.559   2.621  2.0115  1.6672 -0.6078
 1562TIP3   OH226100   3.059   5.901   1.843 -0.1004  0.7514 -0.1235
 1562TIP3    H126101   3.064   5.940   1.756  0.1905  0.1892 -0.3633
 1562TIP3    H226102   2.997   5.829   1.834 -1.3826  1.7165  0.5464
 1563TIP3   OH226103   0.622   1.308   1.198  0.4398  0.5959 -0.4203
 1563TIP3    H126104   0.602   1.327   1.289 -1.8618  0.8934 -0.9145
 1563TIP3    H226105   0.580   1.223   1.182  2.3367 -0.3310 -0.7794
 1564TIP3   OH226106   0.079   3.809  16.662 -0.8827  0.0913  0.5945
 1564TIP3    H126107   0.121   3.833  16.579  1.0146  0.8830  1.7165
 1564TIP3    H226108  -0.014   3.832  16.649 -0.2265  2.4473 -0.5288
 1565TIP3   OH226109   2.496   1.199   4.909  0.0041  0.0965  0.3569
 1565TIP3    H126110   2.511   1.113   4.948  1.6497  0.4850  0.6673
 1565TIP3    H226111   2.541   1.196   4.825  1.4584  1.1488  1.0635
 1566TIP3   OH226112   4.160   6.186  11.791  0.4574  0.0542  0.2658
 1566TIP3    H126113   4.110   6.126  11.846 -1.5606  1.3259 -0.0400
 1566TIP3    H226114   4.250   6.180  11.823 -0.3392 -0.4870  2.5768
 1567TIP3   OH226115   0.530   0.669   6.274 -0.5976  0.0730 -0.2746
 1567TIP3    H126116   0.573   0.678   6.190 -1.9262  0.3012 -0.9608
 1567TIP3    H226117   0.601   0.662   6.338  0.4276  0.8584 -1.3062
 1568TIP3   OH226118   3.789   1.448  15.406  0.0693 -0.0283  0.2163
 1568TIP3    H126119   3.863   1.427  15.464  0.8930  1.9835 -0.0049
 1568TIP3    H226120   3.712   1.418  15.454  0.9044 -0.5307  1.3012
 1569TIP3   OH226121   4.695   4.827  16.425  0.0963  0.1946  0.0458
 1569TIP3    H126122   4.633   4.776  16.477  1.1560 -0.8149  0.3470
 1569TIP3    H226123   4.781   4.794  16.451  0.6824  0.1454 -1.8602
 1570TIP3   OH226124   4.375   3.911  11.863  0.0209 -0.2252 -0.7459
 1570TIP3    H126125   4.326   3.860  11.927 -2.1496  0.5161 -1.6875
 1570TIP3    H226126   4.394   3.994  11.907  0.4013 -0.4922 -0.3962
 1571TIP3   OH226127   4.155   3.800   4.873  0.3488  0.1961  0.1986
 1571TIP3    H126128   4.194   3.760   4.951  0.3123 -0.1781  0.0244
 1571TIP3    H226129   4.102   3.731   4.834 -0.6805  0.7573  0.5544
 1572TIP3   OH226130   0.982   0.038   3.791  0.3122  0.0930  0.4306
 1572TIP3    H126131   1.046  -0.015   3.745 -0.8998 -0.7570 -0.3565
 1572TIP3    H226132   1.033   0.096   3.847  1.7994  0.3781 -1.1566
 1573TIP3   OH226133   6.503   1.910  16.642 -0.1672 -0.6969 -0.2095
 1573TIP3    H126134   6.584   1.885  16.687 -1.6628 -3.5096  1.2154
 1573TIP3    H226135   6.451   1.954  16.709  0.8501  3.1993 -1.6888
 1574TIP3   OH226136   0.971   0.710  10.587  0.2055 -0.6683  0.2959
 1574TIP3    H126137   0.959   0.617  10.568  0.1031 -0.3713 -1.2319
 1574TIP3    H226138   0.882   0.744  10.599  0.2139 -0.6765  0.3820
 1575TIP3   OH226139   1.929   4.190   4.817 -0.1922 -0.1600  0.0092
 1575TIP3    H126140   1.935   4.227   4.905  2.1281  0.2674 -0.2607
 1575TIP3    H226141   1.921   4.266   4.760 -0.6212 -0.3801 -0.2285
 1576TIP3   OH226142   4.795   4.541   4.705  0.1926  0.3591 -0.1808
 1576TIP3    H126143   4.752   4.551   4.620 -0.4870  0.3593  0.1530
 1576TIP3    H226144   4.752   4.605   4.762  0.9445  0.6653  0.0559
 1577TIP3   OH226145   2.462   3.506   3.870 -0.5903  0.3088 -0.2775
 1577TIP3    H126146   2.417   3.522   3.787 -0.9965  1.0800  0.0780
 1577TIP3    H226147   2.546   3.469   3.846  0.2489  2.6223 -1.1623
 1578TIP3   OH226148   6.547   0.817   5.794 -0.1979  0.2440 -0.0064
 1578TIP3    H126149   6.571   0.784   5.881 -2.0255  0.3552  0.5766
 1578TIP3    H226150   6.587   0.754   5.733 -0.6849 -1.0664  0.9794
 1579TIP3   OH226151   2.192   2.435  11.529  0.0046 -0.3875 -0.0082
 1579TIP3    H126152   2.205   2.529  11.526 -1.3210 -0.1068  1.5409
 1579TIP3    H226153   2.276   2.399  11.557  0.3012  0.4041  0.1414
 1580TIP3   OH226154   6.237   1.627   0.654 -0.2245  0.6798  0.2433
 1580TIP3    H126155   6.294   1.662   0.722  0.7614 -0.0858 -0.1621
 1580TIP3    H226156   6.296   1.585   0.592 -1.1900  0.3537 -0.4847
 1581TIP3   OH226157   4.961   3.823   3.127  0.3191 -0.1791  0.0198
 1581TIP3    H126158   5.045   3.864   3.107 -0.0889  0.6157 -0.1038
 1581TIP3    H226159   4.913   3.890   3.176  0.3833 -1.2140  1.5865
 1582TIP3   OH226160   5.088   0.443  13.794  0.2642  0.2154  0.1901
 1582TIP3    H126161   5.064   0.514  13.854  0.2999 -0.0832  0.5641
 1582TIP3    H226162   5.007   0.395  13.779 -0.0104  0.9877 -0.9637
 1583TIP3   OH226163   3.916   4.520   2.250  0.4690  0.6973  0.3610
 1583TIP3    H126164   3.940   4.514   2.342  1.0080 -0.3758  0.1672
 1583TIP3    H226165   3.827   4.557   2.250 -0.2632 -0.9430  1.4130
 1584TIP3   OH226166   1.199   3.442  11.788 -0.8843  0.1035 -0.5446
 1584TIP3    H126167   1.287   3.405  11.781 -0.8769  0.3320 -1.9156
 1584TIP3    H226168   1.206   3.530  11.752 -1.4717  0.4897  0.2548
 1585TIP3   OH226169   2.197   2.523   1.002  0.2182 -0.0453 -0.4455
 1585TIP3    H126170   2.147   2.566   1.072 -0.2078  0.6257 -1.1387
 1585TIP3    H226171   2.288   2.529   1.031  0.1585  1.2249 -0.4532
 1586TIP3   OH226172   4.986   1.113   1.645 -0.0377 -0.2053  0.0095
 1586TIP3    H126173   5.011   1.156   1.727  0.0060  1.1775 -0.6968
 1586TIP3    H226174   5.044   1.152   1.579 -0.0519 -1.3130 -0.6779
 1587TIP3   OH226175   3.459   0.924  14.832 -0.2271 -0.1912  0.1422
 1587TIP3    H126176   3.414   1.009  14.828  0.2044  0.0735  0.6479
 1587TIP3    H226177   3.423   0.882  14.910 -0.2361 -0.3514  0.0512
 1588TIP3   OH226178   2.221   5.920  12.985  0.0745 -0.1863  0.0213
 1588TIP3    H126179   2.270   5.924  12.902  2.3546 -3.0645  1.0345
 1588TIP3    H226180   2.287   5.939  13.052 -1.4281  0.8133  1.2622
 1589TIP3   OH226181   5.144   1.144  15.361 -0.2296  0.0066 -0.1017
 1589TIP3    H126182   5.060   1.190  15.367 -0.5043 -0.3839 -0.8380
 1589TIP3    H226183   5.125   1.054  15.389  0.4351  0.4450  1.9448
 1590TIP3   OH226184   6.343   0.289   0.368 -0.2769 -0.6250  0.2740
 1590TIP3    H126185   6.328   0.306   0.461 -1.7444 -1.2819  0.1962
 1590TIP3    H226186   6.435   0.266   0.362  0.4059  1.6266  1.2043
 1591TIP3   OH226187   5.146   1.940   1.729  0.1257  0.2872  0.0027
 1591TIP3    H126188   5.198   1.894   1.794 -0.5513  0.3642  0.6159
 1591TIP3    H226189   5.055   1.927   1.757 -0.1326  1.0231 -0.4518
 1592TIP3   OH226190   0.216   4.168   5.438  0.3768  0.4129 -0.0977
 1592TIP3    H126191   0.234   4.115   5.360  0.7036 -1.2801  1.0718
 1592TIP3    H226192   0.163   4.111   5.493 -0.3811  1.8168  0.6670
 1593TIP3   OH226193   0.501   1.113  15.909 -0.2733 -0.1839  0.3274
 1593TIP3    H126194   0.546   1.032  15.881  1.8506  0.9614  0.2065
 1593TIP3    H226195   0.427   1.082  15.962  0.2158 -2.2192 -0.0866
 1594TIP3   OH226196   3.449   2.236  16.001  0.1408 -0.0447  0.1877
 1594TIP3    H126197   3.524   2.181  15.981  0.5571  0.2171  0.9973
 1594TIP3    H226198   3.486   2.312  16.046 -0.6528 -0.1978  1.1526
 1595TIP3   OH226199   3.443   2.410  16.227  0.1263  0.0536  0.2120
 1595TIP3    H126200   3.405   2.384  16.311 -0.1274 -1.6673 -0.3805
 1595TIP3    H226201   3.510   2.475  16.249 -1.3460  1.1895  1.5288
 1596TIP3   OH226202   6.631   1.522   4.043 -0.1994 -0.8816  0.4504
 1596TIP3    H126203   6.601   1.441   4.001 -0.8568 -2.1058  3.0672
 1596TIP3    H226204   6.629   1.502   4.137  2.7460  1.1109  1.0663
 1597TIP3   OH226205   4.502   6.567   0.800 -0.5297  0.0306 -0.1135
 1597TIP3    H126206   4.461   6.552   0.885 -1.0991  0.7565 -0.2550
 1597TIP3    H226207   4.475   6.492   0.747 -0.1999 -0.4074  0.3227
 1598TIP3   OH226208   3.089   1.500   5.185 -0.4673 -0.1677  0.5113
 1598TIP3    H126209   3.019   1.540   5.236 -1.0376  2.7566 -2.1846
 1598TIP3    H226210   3.160   1.485   5.247 -1.9913  0.7191  2.5647
 1599TIP3   OH226211   5.300   5.767   2.893  0.1011 -0.3952  1.1911
 1599TIP3    H126212   5.354   5.737   2.820  0.6184  0.1876  1.3211
 1599TIP3    H226213   5.212   5.777   2.856  0.4058  0.1059  0.5945
 1600TIP3   OH226214   0.967   6.596  15.305  0.1622 -0.6733 -0.1103
 1600TIP3    H126215   0.894   6.653  15.279 -0.3727 -1.0404  0.5646
 1600TIP3    H226216   0.932   6.507  15.293 -0.5334 -0.8963  2.9155
 1601TIP3   OH226217   2.181   2.482   2.132  0.6175 -0.1720  0.5747
 1601TIP3    H126218   2.116   2.504   2.066  0.8975  1.1016  0.6958
 1601TIP3    H226219   2.148   2.403   2.174 -0.9923  0.5913  0.8122
 1602TIP3   OH226220   4.792   4.548  15.827  0.2379  0.3348  0.3736
 1602TIP3    H126221   4.762   4.513  15.743 -0.7425  0.3178  0.7221
 1602TIP3    H226222   4.771   4.480  15.891  0.4602  0.5824  0.7138
 1603TIP3   OH226223   5.918   3.746  11.765  0.0944 -0.1930 -0.0862
 1603TIP3    H126224   5.961   3.822  11.803 -1.1291  0.0856  0.8202
 1603TIP3    H226225   5.966   3.671  11.800 -0.4318  0.0881  1.3177
 1604TIP3   OH226226   1.785   5.815  15.903 -0.1467  0.0558  0.8816
 1604TIP3    H126227   1.806   5.816  15.996  0.0380  2.3656  0.8694
 1604TIP3    H226228   1.854   5.866  15.861 -1.4497  1.0177 -0.2018
 1605TIP3   OH226229   5.742   0.617   4.388  0.4011  0.1515 -0.2854
 1605TIP3    H126230   5.673   0.683   4.385  1.3105  1.1143 -1.0656
 1605TIP3    H226231   5.721   0.557   4.316  0.9487  1.0802 -1.2581
 1606TIP3   OH226232   3.213   2.029  16.724  0.1214  0.5393 -0.0330
 1606TIP3    H126233   3.289   1.987  16.766 -0.3688 -0.4870 -0.1503
 1606TIP3    H226234   3.162   2.064  16.797  0.8924  1.6015  0.0266
 1607TIP3   OH226235   0.786   0.018  16.443  0.3979  0.0394 -0.6347
 1607TIP3    H126236   0.756   0.038  16.354 -1.0843  0.1506 -0.1353
 1607TIP3    H226237   0.842   0.091  16.466  1.0596 -0.1415 -1.5889
 1608TIP3   OH226238   3.900   2.295   3.107 -0.0570 -0.3118  0.1732
 1608TIP3    H126239   3.871   2.320   3.019  2.0727  0.9390 -0.2429
 1608TIP3    H226240   3.889   2.375   3.159  0.0613 -0.6208  0.6761
 1609TIP3   OH226241   2.216   4.081  17.268 -0.0538 -0.3815 -0.1394
 1609TIP3    H126242   2.219   4.170  17.233  0.8359 -0.1481  0.4993
 1609TIP3    H226243   2.160   4.033  17.206 -0.4006  0.5700 -0.5848
 1610TIP3   OH226244   0.257   0.186   5.150  0.2700 -0.1755  0.5043
 1610TIP3    H126245   0.337   0.140   5.177  0.1439  0.0840  1.3694
 1610TIP3    H226246   0.186   0.132   5.186  0.0551 -0.3294 -0.1390
 1611TIP3   OH226247   2.724   1.194  13.455 -0.2633  0.2693  0.3579
 1611TIP3    H126248   2.667   1.241  13.395  0.5704  2.3111  1.0457
 1611TIP3    H226249   2.674   1.117  13.481 -1.9448  1.0366 -0.4410
 1612TIP3   OH226250   0.184   3.747   0.144 -1.1223 -0.4070 -0.6380
 1612TIP3    H126251   0.244   3.726   0.073 -1.4268  2.3926 -1.8598
 1612TIP3    H226252   0.232   3.724   0.224  0.8589  0.0508 -1.6446
 1613TIP3   OH226253   4.529   2.327  17.488 -0.9858 -0.5599  0.1871
 1613TIP3    H126254   4.522   2.380  17.568  1.5600 -1.2337  0.9771
 1613TIP3    H226255   4.617   2.346  17.455 -2.4785  0.9458 -3.4841
 1614TIP3   OH226256   4.236   0.033  16.460  0.0931  0.1212 -0.1672
 1614TIP3    H126257   4.166  -0.001  16.404  0.6376 -0.3204 -0.5890
 1614TIP3    H226258   4.196   0.040  16.547 -0.4158 -0.3105 -0.3615
 1615TIP3   OH226259   5.007   3.519   4.417  0.0474  0.1283  0.0201
 1615TIP3    H126260   5.062   3.583   4.463  1.1023 -0.5342 -0.2610
 1615TIP3    H226261   4.994   3.557   4.330  0.9161 -0.1571 -0.2436
 1616TIP3   OH226262   4.715   5.889  15.279  0.7372 -0.4361 -0.1318
 1616TIP3    H126263   4.628   5.915  15.246  1.2326  0.9700 -0.4107
 1616TIP3    H226264   4.709   5.900  15.374  0.4223 -0.9859 -0.0819
 1617TIP3   OH226265   4.980   0.286   2.719 -0.1682  0.3326 -0.7359
 1617TIP3    H126266   4.917   0.359   2.716  0.5865  0.9574 -1.6118
 1617TIP3    H226267   4.936   0.215   2.673 -0.1811  0.8178 -1.4894
 1618TIP3   OH226268   5.731   5.282  13.793  0.0176 -0.1346 -0.1821
 1618TIP3    H126269   5.812   5.263  13.841  0.9030  1.6188 -0.9045
 1618TIP3    H226270   5.759   5.295  13.702 -1.2730 -0.7619 -0.7034
 1619TIP3   OH226271   0.004   3.908   2.366  0.7950 -0.4384  0.0324
 1619TIP3    H126272   0.029   3.969   2.296  0.0834  0.7746  0.7996
 1619TIP3    H226273  -0.090   3.924   2.379  1.2619  0.7599  2.5336
 1620TIP3   OH226274   5.466   2.370   1.123 -0.1198  0.3453  0.2032
 1620TIP3    H126275   5.556   2.395   1.145 -0.4481  1.8814 -0.1094
 1620TIP3    H226276   5.413   2.446   1.148 -1.2559 -0.2930 -0.2050
 1621TIP3   OH226277   2.136   3.873   0.299  0.0560  0.0788 -0.4098
 1621TIP3    H126278   2.045   3.864   0.270 -0.3849 -1.4640  1.2468
 1621TIP3    H226279   2.130   3.907   0.388  0.9105 -2.4341  0.6897
 1622TIP3   OH226280   2.274   3.523   6.016  0.0282  0.1014  0.1768
 1622TIP3    H126281   2.363   3.560   6.011  0.0181  0.2776  1.1643
 1622TIP3    H226282   2.217   3.592   5.983  0.3294 -0.4017 -1.5215
 1623TIP3   OH226283   2.654   6.323  16.825  0.1743  0.4593  0.4386
 1623TIP3    H126284   2.603   6.402  16.809 -2.0978 -1.2640 -1.5196
 1623TIP3    H226285   2.720   6.323  16.755  1.2397  1.3804  1.4102
 1624TIP3   OH226286   0.777   6.644  13.560 -0.7174  0.0440  0.4599
 1624TIP3    H126287   0.753   6.719  13.506 -0.3966 -0.5645 -0.5489
 1624TIP3    H226288   0.826   6.682  13.633  1.3802  0.6640 -1.1798
 1625TIP3   OH226289   3.053   3.625  16.092  0.0991 -0.3427  0.4939
 1625TIP3    H126290   3.084   3.536  16.107  0.2390 -0.0423  2.2300
 1625TIP3    H226291   2.969   3.629  16.138  0.9217  0.8949  2.0220
 1626TIP3   OH226292   1.055   3.595  15.325  0.3157  0.6603 -0.1664
 1626TIP3    H126293   0.986   3.661  15.338 -0.3024  0.2607 -1.3059
 1626TIP3    H226294   1.106   3.629  15.252  0.9096  0.5922  0.2096
 1627TIP3   OH226295   4.862   0.230   2.047 -0.0408 -0.7223 -0.1811
 1627TIP3    H126296   4.893   0.246   1.958  2.7550 -2.1819  0.3858
 1627TIP3    H226297   4.786   0.173   2.037  0.0278 -0.5799 -1.6496
 1628TIP3   OH226298   2.514   6.645   2.720  0.3713  0.6083 -0.3690
 1628TIP3    H126299   2.602   6.668   2.749  0.1733  0.7633  0.1108
 1628TIP3    H226300   2.521   6.641   2.624  1.2064 -0.6642 -0.2836
 1629TIP3   OH226301   0.733   6.474   3.174 -0.1359  0.2642 -0.4552
 1629TIP3    H126302   0.660   6.530   3.150 -0.3639  0.3222  0.3571
 1629TIP3    H226303   0.797   6.487   3.104 -0.2614  1.3923 -0.3735
 1630TIP3   OH226304   1.254   5.133   5.534  0.3372  0.2075  0.0437
 1630TIP3    H126305   1.332   5.122   5.479  0.1790 -0.7780 -0.0065
 1630TIP3    H226306   1.271   5.077   5.610 -0.1555  0.2884  0.2176
 1631TIP3   OH226307   3.924   4.966  17.500 -0.1065  1.4198  0.6704
 1631TIP3    H126308   4.001   4.913  17.522 -0.4869 -0.7486 -2.5311
 1631TIP3    H226309   3.852   4.924  17.547 -0.1192  0.0795 -0.4873
 1632TIP3   OH226310   2.691   5.337   2.844  0.0124 -0.1036 -0.2046
 1632TIP3    H126311   2.698   5.245   2.868  0.8879 -0.1199 -0.5013
 1632TIP3    H226312   2.776   5.375   2.866 -0.2969  0.6172 -0.1914
 1633TIP3   OH226313   4.405   1.278  14.094  0.0580  0.0917 -0.0130
 1633TIP3    H126314   4.456   1.223  14.034 -0.1632  0.0668 -0.1781
 1633TIP3    H226315   4.462   1.289  14.170  0.7208  0.9056 -0.6150
 1634TIP3   OH226316   1.768   1.056   6.027  0.2435 -0.1193 -0.4755
 1634TIP3    H126317   1.783   1.088   6.115 -0.5217 -0.1199 -0.3353
 1634TIP3    H226318   1.780   0.961   6.033  1.4760  0.0082 -0.6653
 1635TIP3   OH226319   1.692   4.928   2.966 -0.0898  0.4375  0.2019
 1635TIP3    H126320   1.605   4.916   2.927 -0.0969 -2.2873  0.8955
 1635TIP3    H226321   1.753   4.921   2.892 -0.3390 -0.2501  0.0570
 1636TIP3   OH226322   2.355   2.320   6.589 -0.3116 -0.3720  0.4039
 1636TIP3    H126323   2.317   2.386   6.531  0.3631 -0.6952 -0.4238
 1636TIP3    H226324   2.353   2.360   6.676  0.1396  0.7620 -0.0951
 1637TIP3   OH226325   0.113   1.807   4.862 -0.2532 -0.3941  0.0393
 1637TIP3    H126326   0.184   1.866   4.835  1.1322 -1.8520  0.3671
 1637TIP3    H226327   0.104   1.821   4.956  0.5401 -1.1627  0.2393
 1638TIP3   OH226328   3.924   3.782  12.230  0.6130 -0.6846 -0.3039
 1638TIP3    H126329   3.947   3.826  12.148 -1.9276  0.5766 -0.4388
 1638TIP3    H226330   3.951   3.843  12.298  1.8127 -1.2952 -0.1983
 1639TIP3   OH226331   6.596   4.191  14.463  0.0207  0.0963  0.1595
 1639TIP3    H126332   6.611   4.281  14.436 -1.2835  0.2608 -0.0597
 1639TIP3    H226333   6.551   4.197  14.547  2.1195 -0.4005  1.3990
 1640TIP3   OH226334   5.083   3.262   0.443  0.1217 -0.2321  0.1496
 1640TIP3    H126335   5.084   3.211   0.362 -0.1794  0.2594 -0.1739
 1640TIP3    H226336   5.102   3.352   0.415  0.3526 -0.1153  0.6691
 1641TIP3   OH226337   3.457   3.025   2.097 -0.6728 -0.0784  0.2022
 1641TIP3    H126338   3.497   3.109   2.074  0.4279 -0.5771  0.1955
 1641TIP3    H226339   3.363   3.037   2.082 -0.8137  1.7747  2.1202
 1642TIP3   OH226340   5.060   4.569   2.692  0.1627  0.4122 -0.4237
 1642TIP3    H126341   5.009   4.620   2.755 -1.4791 -0.9442 -0.6024
 1642TIP3    H226342   5.091   4.634   2.629  0.5785  1.5790  0.9273
 1643TIP3   OH226343   1.568   6.451  17.458 -0.7809  0.1651  0.3584
 1643TIP3    H126344   1.614   6.426  17.378 -0.9962 -3.3187  1.1536
 1643TIP3    H226345   1.503   6.515  17.430 -0.0244 -0.0042 -1.9999
 1644TIP3   OH226346   2.953   4.514   1.658 -0.1002  0.0125  0.8864
 1644TIP3    H126347   2.872   4.554   1.627  2.1391  1.6349 -3.7249
 1644TIP3    H226348   3.011   4.587   1.677  1.1540 -1.0840  1.4992
 1645TIP3   OH226349   4.913   1.570  17.318  0.4437  0.0097 -0.7880
 1645TIP3    H126350   4.824   1.590  17.288  0.1184 -0.4013 -0.1394
 1645TIP3    H226351   4.924   1.477  17.297 -0.1319 -0.5385  1.0879
 1646TIP3   OH226352   2.372   5.989  13.192 -0.1419 -0.7659 -0.2881
 1646TIP3    H126353   2.379   6.073  13.237  0.2627 -0.6533 -0.5598
 1646TIP3    H226354   2.315   5.936  13.249 -0.2404 -0.3755 -0.0222
 1647TIP3   OH226355   3.409   1.330   6.020 -0.3507  0.5735  0.2858
 1647TIP3    H126356   3.482   1.356   6.075 -0.0860  0.6755 -0.1090
 1647TIP3    H226357   3.389   1.240   6.047  0.4845  0.2340 -0.1935
 1648TIP3   OH226358   0.107   5.577  16.971 -0.3435  0.3621 -0.7361
 1648TIP3    H126359   0.168   5.581  17.045 -0.3306  1.8248 -0.8017
 1648TIP3    H226360   0.053   5.655  16.980 -1.1356 -0.0692 -1.6019
 1649TIP3   OH226361   2.155   6.317   6.299  0.3097 -0.8972 -0.2469
 1649TIP3    H126362   2.204   6.235   6.294  2.7213  0.4453 -0.1992
 1649TIP3    H226363   2.177   6.364   6.218 -1.5766 -0.5304 -0.6066
 1650TIP3   OH226364   6.137   5.111  16.190  0.1119  0.3579  0.1748
 1650TIP3    H126365   6.192   5.167  16.135  0.6977  0.1907  0.5861
 1650TIP3    H226366   6.086   5.059  16.128 -0.2665  1.1689 -0.2163
 1651TIP3   OH226367   2.657   3.786   5.444 -0.4278 -0.5310  0.0691
 1651TIP3    H126368   2.699   3.762   5.361 -0.9348  1.1786 -0.7404
 1651TIP3    H226369   2.711   3.858   5.477 -0.8375 -0.5076  0.6968
 1652TIP3   OH226370   4.993   0.475   3.700  0.9614  0.1770  0.4919
 1652TIP3    H126371   4.959   0.545   3.755 -0.3088  0.3048 -0.4068
 1652TIP3    H226372   5.052   0.519   3.639  1.3522  0.2252  0.8997
 1653TIP3   OH226373   1.685   1.933  15.728  0.1397 -0.0016 -0.0280
 1653TIP3    H126374   1.677   1.938  15.632  0.5557 -1.5168 -0.1659
 1653TIP3    H226375   1.726   1.849  15.744  1.0453  0.6898  1.4552
 1654TIP3   OH226376   3.448   6.150  13.323 -0.2012 -0.0063  0.3361
 1654TIP3    H126377   3.541   6.157  13.343  0.1005 -0.0275 -0.9984
 1654TIP3    H226378   3.419   6.239  13.306 -0.4764  0.0213  0.9115
 1655TIP3   OH226379   3.396   6.555  12.375 -0.4747 -0.0725  0.0108
 1655TIP3    H126380   3.323   6.599  12.419  0.6835  1.7638  0.1999
 1655TIP3    H226381   3.436   6.623  12.320  1.1070 -1.0180 -0.0753
 1656TIP3   OH226382   0.683   3.971  13.867 -0.6749 -0.1253 -0.6828
 1656TIP3    H126383   0.703   4.015  13.950  0.0976 -0.0138 -0.9217
 1656TIP3    H226384   0.656   4.041  13.808 -3.1748 -0.4091  0.0103
 1657TIP3   OH226385   5.309   2.669   4.060  0.1806  0.4878  0.8336
 1657TIP3    H126386   5.392   2.627   4.034  0.5276  2.4326 -1.5666
 1657TIP3    H226387   5.241   2.613   4.022  0.5160  0.4574  0.2657
 1658TIP3   OH226388   0.040   0.856  10.825 -0.4309 -0.2276  0.0389
 1658TIP3    H126389  -0.034   0.896  10.872  0.4244 -0.1976  1.4192
 1658TIP3    H226390   0.014   0.765  10.814 -0.5092 -0.3272  0.9243
 1659TIP3   OH226391   1.830   6.136   2.051  0.2460 -0.0309 -0.2013
 1659TIP3    H126392   1.846   6.188   2.129  1.8947 -2.4232  1.1667
 1659TIP3    H226393   1.738   6.153   2.030  0.0435  1.4619  1.6415
 1660TIP3   OH226394   6.579   3.416  16.530 -0.0488 -0.5553  0.1197
 1660TIP3    H126395   6.597   3.446  16.441 -2.5096  1.8148  0.2891
 1660TIP3    H226396   6.665   3.398  16.568  1.0813 -1.3771 -2.5890
 1661TIP3   OH226397   4.866   1.864  17.208  0.1738  0.2326 -0.3169
 1661TIP3    H126398   4.899   1.798  17.268 -1.3433  1.5988  2.2286
 1661TIP3    H226399   4.938   1.926  17.198  0.3380  0.1841  0.4621
 1662TIP3   OH226400   0.327   2.524  15.591  0.2868 -0.6748 -0.6452
 1662TIP3    H126401   0.299   2.584  15.660  0.2295 -0.9564 -0.4234
 1662TIP3    H226402   0.247   2.478  15.565  0.0701  0.2859 -1.7480
 1663TIP3   OH226403   1.900   6.152  11.766  0.6118 -1.2017  0.3432
 1663TIP3    H126404   1.817   6.195  11.783  0.6237 -1.2239  0.4559
 1663TIP3    H226405   1.958   6.182  11.836  1.3154  0.4721 -0.9038
 1664TIP3   OH226406   0.980   0.262  15.534 -0.2779 -0.1013 -0.3156
 1664TIP3    H126407   1.052   0.282  15.594  0.3195 -1.4294 -0.5652
 1664TIP3    H226408   1.013   0.290  15.448 -0.2436 -0.2699 -0.3577
 1665TIP3   OH226409   4.688   5.486   4.590 -0.0699  0.5119 -0.2322
 1665TIP3    H126410   4.619   5.512   4.528  0.4382 -0.2727 -1.1581
 1665TIP3    H226411   4.740   5.421   4.542 -0.6956 -1.4649  1.6096
 1666TIP3   OH226412   3.561   5.159   6.579  0.4079  0.3387  0.2676
 1666TIP3    H126413   3.560   5.065   6.597 -1.6988 -0.2555 -2.1995
 1666TIP3    H226414   3.474   5.189   6.607  1.1120  1.6174  1.1584
 1667TIP3   OH226415   0.756   2.386  16.514  0.1339 -0.2075 -0.5483
 1667TIP3    H126416   0.846   2.417  16.523 -0.3329  0.7343  1.4576
 1667TIP3    H226417   0.710   2.458  16.470  0.2270 -0.4595 -1.0691
 1668TIP3   OH226418   0.607   5.010   0.070 -0.4208 -0.4997 -0.2136
 1668TIP3    H126419   0.702   5.013   0.076 -0.5168 -0.3890  1.9570
 1668TIP3    H226420   0.580   4.962   0.148 -2.1929  0.3856 -0.2413
 1669TIP3   OH226421   3.052   2.360  13.742  0.0485  0.0454  0.0004
 1669TIP3    H126422   3.132   2.343  13.694 -0.4276 -1.6865 -0.2610
 1669TIP3    H226423   2.984   2.366  13.675 -0.2688 -0.0180  0.3141
 1670TIP3   OH226424   4.429   0.144  12.670  0.0958  0.3959  0.0039
 1670TIP3    H126425   4.466   0.056  12.663  0.0678  0.2296  1.6484
 1670TIP3    H226426   4.389   0.160  12.584  3.2212  0.2753 -1.6212
 1671TIP3   OH226427   4.812   0.241  11.905 -0.2782 -0.1804  0.0990
 1671TIP3    H126428   4.754   0.197  11.842  0.6696  1.0885 -1.7478
 1671TIP3    H226429   4.881   0.279  11.851  0.4904  1.1237  1.9106
 1672TIP3   OH226430   6.274   1.154  11.513  0.3269 -0.4773  0.0003
 1672TIP3    H126431   6.345   1.207  11.549 -1.1123  0.9952  0.8664
 1672TIP3    H226432   6.301   1.064  11.526  3.1628 -0.0486 -2.0606
 1673TIP3   OH226433   6.246   5.421  17.147  0.3441  0.7584  0.2583
 1673TIP3    H126434   6.221   5.449  17.059 -1.5306 -1.4830 -0.0240
 1673TIP3    H226435   6.165   5.388  17.186  1.6824 -0.9341  1.7774
 1674TIP3   OH226436   6.407   4.665   2.109 -0.3366  0.3982 -0.1137
 1674TIP3    H126437   6.374   4.644   2.196  0.6517  0.1478  0.2100
 1674TIP3    H226438   6.373   4.752   2.090 -1.9042 -0.1877 -0.1677
 1675TIP3   OH226439   6.523   1.815   0.586  0.0969  0.0766 -0.4284
 1675TIP3    H126440   6.528   1.739   0.528  0.8411  0.0529 -0.3417
 1675TIP3    H226441   6.488   1.885   0.531 -0.9245 -0.4079 -0.4188
 1676TIP3   OH226442   1.832   0.126  12.488 -0.1141 -0.1127 -0.5651
 1676TIP3    H126443   1.835   0.164  12.400  0.1255  0.2224 -0.4156
 1676TIP3    H226444   1.908   0.163  12.533  0.8413 -1.6885 -0.7844
 1677TIP3   OH226445   4.028   5.136  15.579  0.2199  0.6892 -0.0264
 1677TIP3    H126446   4.121   5.139  15.598  0.1765  3.2850  0.2027
 1677TIP3    H226447   4.023   5.151  15.484  0.0323  0.8317  0.0058
 1678TIP3   OH226448   2.144   2.657  12.629 -0.2562 -0.2921 -1.1402
 1678TIP3    H126449   2.133   2.564  12.606 -0.2069 -0.2188 -1.4694
 1678TIP3    H226450   2.238   2.673  12.620 -0.0173 -0.5993  0.4389
 1679TIP3   OH226451   4.647   3.161   0.402 -0.3324 -0.0899 -0.2652
 1679TIP3    H126452   4.576   3.203   0.352  0.5639 -0.2123 -1.7055
 1679TIP3    H226453   4.727   3.191   0.359  0.4386 -1.0043  0.4977
 1680TIP3   OH226454   2.662   1.339   5.206  0.0433  0.0294 -0.0516
 1680TIP3    H126455   2.683   1.389   5.286 -0.5943 -1.4890  1.1197
 1680TIP3    H226456   2.656   1.248   5.236  1.3758 -0.8252 -2.1433
 1681TIP3   OH226457   3.324   3.142  11.175  0.4515  0.4036 -0.1914
 1681TIP3    H126458   3.290   3.215  11.122  0.7993  1.2707  0.7444
 1681TIP3    H226459   3.417   3.139  11.155  0.2322 -0.5864 -1.1388
 1682TIP3   OH226460   3.618   5.226  13.120 -0.3475  0.4653  0.1474
 1682TIP3    H126461   3.559   5.244  13.047 -0.2760  0.5702  0.1143
 1682TIP3    H226462   3.576   5.155  13.168  0.7028 -1.2589 -1.2977
 1683TIP3   OH226463   1.894   3.547  16.931 -0.2350 -0.8305  0.9085
 1683TIP3    H126464   1.811   3.558  16.978  0.4139  0.0161  1.9258
 1683TIP3    H226465   1.961   3.558  16.999  0.7083 -1.6383  0.1315
 1684TIP3   OH226466   6.190   5.630  15.994 -0.0590 -0.2645 -0.7028
 1684TIP3    H126467   6.115   5.645  16.052  0.0841 -2.7264  0.2474
 1684TIP3    H226468   6.207   5.716  15.954 -0.7492  1.3297  2.1656
 1685TIP3   OH226469   6.071   4.571   3.315  0.4389  0.0724 -0.1785
 1685TIP3    H126470   6.155   4.534   3.286 -0.2973 -1.5268 -0.4272
 1685TIP3    H226471   6.025   4.496   3.352 -1.7046  0.4080 -1.9707
 1686TIP3   OH226472   4.868   0.993  16.725  0.2054  0.0233  0.3613
 1686TIP3    H126473   4.856   0.922  16.661  1.5784  0.2940 -0.2431
 1686TIP3    H226474   4.961   1.016  16.717 -0.2345  1.9846  0.4455
 1687TIP3   OH226475   5.396   2.498  13.513  0.6598 -0.3820 -0.0166
 1687TIP3    H126476   5.320   2.545  13.479 -0.4792 -1.5865  0.7627
 1687TIP3    H226477   5.457   2.567  13.540  0.4491  0.5961 -1.9113
 1688TIP3   OH226478   0.724   2.977  16.432  0.0452  0.1387 -0.4608
 1688TIP3    H126479   0.804   2.962  16.483 -0.4635  1.5190  0.7887
 1688TIP3    H226480   0.716   2.898  16.377  0.9752 -1.0862  1.0814
 1689TIP3   OH226481   3.107   5.503   1.801  0.2423  0.0212 -0.5008
 1689TIP3    H126482   3.113   5.408   1.799 -2.2600 -0.2569  0.9153
 1689TIP3    H226483   3.180   5.531   1.857  0.2125 -1.1747  0.1654
 1690TIP3   OH226484   1.244   2.029  16.947  0.1978  0.0172  0.4029
 1690TIP3    H126485   1.160   1.988  16.965  0.5570 -1.4637 -1.0515
 1690TIP3    H226486   1.259   2.088  17.022 -1.3792 -0.8426  1.4468
 1691TIP3   OH226487   0.997   1.512  13.185 -0.3407 -0.6565 -0.6357
 1691TIP3    H126488   0.989   1.427  13.229  1.0171 -0.7387 -0.5087
 1691TIP3    H226489   1.002   1.575  13.257  0.6662 -0.6742 -0.6796
 1692TIP3   OH226490   6.363   0.257  13.736 -0.2269 -0.1976 -0.1020
 1692TIP3    H126491   6.437   0.216  13.781 -0.9189  2.0636  3.5320
 1692TIP3    H226492   6.362   0.216  13.649  4.6899 -0.9809 -0.0879
 1693TIP3   OH226493   6.277   4.115   0.901 -0.4542 -0.4169  0.1486
 1693TIP3    H126494   6.347   4.120   0.966 -0.6489 -0.1213  0.3342
 1693TIP3    H226495   6.204   4.075   0.946 -0.8742  0.5630  0.3637
 1694TIP3   OH226496   6.202   2.891   1.056 -0.1831 -0.0552 -0.2984
 1694TIP3    H126497   6.175   2.982   1.056  1.9047  0.6321  0.5703
 1694TIP3    H226498   6.129   2.844   1.096 -0.6827  1.4490  0.6234
 1695TIP3   OH226499   0.095   2.047   1.273  0.3532 -0.2005 -0.7768
 1695TIP3    H126500   0.064   1.963   1.240  1.6457 -1.0644  0.1209
 1695TIP3    H226501   0.103   2.102   1.195 -0.4376 -0.9201 -1.3890
 1696TIP3   OH226502   1.355   6.329  12.971 -0.2199 -0.3598  0.0432
 1696TIP3    H126503   1.430   6.323  12.911  0.5295 -1.6842  1.0488
 1696TIP3    H226504   1.284   6.284  12.926  0.1375 -0.7404 -0.1512
 1697TIP3   OH226505   0.944   0.646  12.507 -0.1784 -0.6717 -0.6309
 1697TIP3    H126506   0.989   0.568  12.542 -1.7400 -0.9582  0.9181
 1697TIP3    H226507   0.858   0.643  12.549 -0.7613  1.1574 -1.6349
 1698TIP3   OH226508   1.442   5.455   0.061  0.3401  0.4247 -0.1151
 1698TIP3    H126509   1.463   5.548   0.052  1.9277  0.2014  0.8371
 1698TIP3    H226510   1.500   5.424   0.131 -0.8452 -1.0751  0.2678
 1699TIP3   OH226511   4.806   2.068  11.264  0.1468 -0.0277 -0.0065
 1699TIP3    H126512   4.895   2.091  11.237  0.1318 -0.7400 -0.6885
 1699TIP3    H226513   4.757   2.150  11.255  0.3766 -0.0054 -1.1958
 1700TIP3   OH226514   5.338   6.595  11.090  0.1175 -0.5647  0.1881
 1700TIP3    H126515   5.302   6.652  11.158 -0.6654  0.1511 -0.7818
 1700TIP3    H226516   5.425   6.630  11.073 -0.9097  1.4219 -1.4848
 1701TIP3   OH226517   0.160   0.128   3.649  0.0729  0.1131  0.0435
 1701TIP3    H126518   0.190   0.217   3.631 -1.5014  0.4042 -1.4134
 1701TIP3    H226519   0.075   0.122   3.606 -0.3583 -1.7685  1.0190
 1702TIP3   OH226520   2.247   1.907   5.562  0.3217 -0.3094 -0.0342
 1702TIP3    H126521   2.329   1.954   5.550  0.7306 -0.9858  0.0832
 1702TIP3    H226522   2.208   1.946   5.640  1.1413 -0.8473  0.6529
 1703TIP3   OH226523   5.101   6.425   1.715  0.4189  1.0219 -0.4590
 1703TIP3    H126524   5.114   6.515   1.743  2.1674  1.4125 -2.3575
 1703TIP3    H226525   5.142   6.420   1.629 -0.7306 -1.2783 -0.9461
 1704TIP3   OH226526   2.127   4.795  16.541  0.3863  0.3234  0.0283
 1704TIP3    H126527   2.195   4.863  16.537 -0.2767  0.9383 -1.1273
 1704TIP3    H226528   2.081   4.802  16.458  0.4829 -1.7491 -0.2500
 1705TIP3   OH226529   4.919   1.981   5.550  0.1406 -0.0752 -0.3542
 1705TIP3    H126530   4.841   2.021   5.589 -0.3170  2.0479 -3.0836
 1705TIP3    H226531   4.891   1.893   5.526 -0.3010 -0.5425  1.7201
 1706TIP3   OH226532   4.239   2.472   3.153  0.2326 -0.1022 -0.4120
 1706TIP3    H126533   4.214   2.391   3.107 -0.4136  0.9934 -2.0970
 1706TIP3    H226534   4.316   2.448   3.204 -1.0032 -2.2223  0.5755
 1707TIP3   OH226535   0.997   2.660   5.655 -0.2149  0.0914  0.3951
 1707TIP3    H126536   0.939   2.700   5.590  0.0069  0.9008  0.6806
 1707TIP3    H226537   0.946   2.588   5.691 -0.3932 -0.2884 -0.5701
 1708TIP3   OH226538   3.550   1.859   3.167  0.1873 -0.6272 -0.0883
 1708TIP3    H126539   3.521   1.876   3.257  0.2124 -0.0568 -0.1832
 1708TIP3    H226540   3.631   1.810   3.177 -0.1332 -1.1131  0.1907
 1709TIP3   OH226541   2.582   0.159   0.352 -0.5888 -0.0071 -0.0257
 1709TIP3    H126542   2.527   0.217   0.406 -0.6206  0.5539 -0.6326
 1709TIP3    H226543   2.579   0.075   0.396  0.1133  0.6512  1.3315
 1710TIP3   OH226544   0.702   2.014  11.761 -0.2010  0.8815 -0.2004
 1710TIP3    H126545   0.607   2.013  11.759 -0.3722  3.1867  1.9995
 1710TIP3    H226546   0.728   2.051  11.677 -1.0653 -1.4063 -1.5752
 1711TIP3   OH226547   0.889   2.592   2.929  0.2746 -0.1797 -0.4468
 1711TIP3    H126548   0.948   2.667   2.918 -0.8358  0.4763 -2.3199
 1711TIP3    H226549   0.876   2.557   2.841 -0.6546 -1.4746  0.1648
 1712TIP3   OH226550   5.416   2.537  14.995  0.3154 -0.2650  0.2991
 1712TIP3    H126551   5.345   2.487  15.037  1.3028 -0.6545  1.5709
 1712TIP3    H226552   5.427   2.615  15.049  2.2406 -1.2279  1.4097
 1713TIP3   OH226553   4.292   1.817  15.473 -0.2962  0.5593  0.1058
 1713TIP3    H126554   4.220   1.794  15.415 -0.7073 -0.3339  0.9390
 1713TIP3    H226555   4.267   1.781  15.558  0.6997  1.0598  0.6304
 1714TIP3   OH226556   2.954   6.104   4.664  0.1286  0.1831 -0.0271
 1714TIP3    H126557   2.991   6.053   4.592  0.0558 -1.5803  1.1201
 1714TIP3    H226558   3.025   6.110   4.728 -0.0741  0.9872  0.1396
 1715TIP3   OH226559   0.314   6.643  11.822 -0.7833 -0.0537  0.0823
 1715TIP3    H126560   0.362   6.561  11.815 -1.3687 -0.3682 -0.3271
 1715TIP3    H226561   0.270   6.639  11.907 -1.1905 -0.3772 -0.1415
 1716TIP3   OH226562   3.576   2.426  13.971  0.8351 -0.9148  0.1700
 1716TIP3    H126563   3.481   2.431  13.973  0.7368  3.6170 -1.9279
 1716TIP3    H226564   3.605   2.494  14.032  2.5514 -0.1520 -1.3973
 1717TIP3   OH226565   2.117   1.261   4.830  0.0600  0.9689  0.3630
 1717TIP3    H126566   2.091   1.197   4.896  2.3096  0.9835  1.3702
 1717TIP3    H226567   2.175   1.321   4.877  0.3708  1.9809 -1.2483
 1718TIP3   OH226568   5.189   3.654  16.408 -0.0162 -0.0791  0.3165
 1718TIP3    H126569   5.204   3.710  16.485  2.1760 -1.0604  0.6829
 1718TIP3    H226570   5.243   3.693  16.339  0.6200 -1.0358  0.2482
 1719TIP3   OH226571   5.921   0.656   4.030  0.1539 -0.0441 -0.2463
 1719TIP3    H126572   5.920   0.565   4.060 -0.7910 -0.1366 -0.5221
 1719TIP3    H226573   5.845   0.663   3.972 -1.5608  1.6552  2.0183
 1720TIP3   OH226574   5.328   5.167   1.448  0.3878  0.1116  0.3920
 1720TIP3    H126575   5.270   5.217   1.392 -1.5101 -0.4714  1.7447
 1720TIP3    H226576   5.409   5.158   1.397 -0.6140  1.1177 -1.4681
 1721TIP3   OH226577   3.977   0.655  13.254 -0.1548  0.1928 -1.1426
 1721TIP3    H126578   4.053   0.638  13.198  1.5989  1.0300  0.8379
 1721TIP3    H226579   3.969   0.750  13.255  0.3361  0.2506  0.5402
 1722TIP3   OH226580   0.684   3.837  14.686  0.4786 -0.3653 -0.0297
 1722TIP3    H126581   0.647   3.911  14.638  1.0361  1.0972  1.6961
 1722TIP3    H226582   0.683   3.765  14.623 -2.1737  0.4775 -1.0856
 1723TIP3   OH226583   5.604   3.075   0.156  0.4006  0.1038 -0.0817
 1723TIP3    H126584   5.642   3.010   0.097 -1.6984  0.6518 -2.1692
 1723TIP3    H226585   5.514   3.045   0.171 -0.2143  1.8378 -0.0540
 1724TIP3   OH226586   1.217   2.976   4.022  0.0369 -0.3274  0.2667
 1724TIP3    H126587   1.165   3.002   3.946  2.4894  1.4614 -0.9583
 1724TIP3    H226588   1.190   3.036   4.091 -1.1350 -0.9547  0.3673
 1725TIP3   OH226589   0.865   3.606  13.054 -0.5047 -0.5007 -0.2884
 1725TIP3    H126590   0.775   3.575  13.040 -0.3062 -1.4398  0.4041
 1725TIP3    H226591   0.870   3.689  13.006 -0.8689 -1.8445 -2.8204
 1726TIP3   OH226592   4.268   5.939  14.051  0.1343  0.2659  0.4086
 1726TIP3    H126593   4.317   6.017  14.026  1.0072 -0.4124 -0.0215
 1726TIP3    H226594   4.221   5.965  14.130 -0.1754  1.4555 -0.1444
 1727TIP3   OH226595   1.483   3.211   4.422 -0.0606  0.2774  0.3247
 1727TIP3    H126596   1.516   3.164   4.346 -1.4370  0.6675 -0.5395
 1727TIP3    H226597   1.560   3.256   4.458  0.4259  0.9694 -1.4791
 1728TIP3   OH226598   3.009   2.340  12.741  0.6057  0.2479 -0.0656
 1728TIP3    H126599   3.014   2.357  12.835  0.3177 -0.9234  0.1698
 1728TIP3    H226600   2.936   2.279  12.731  1.8935 -1.2356 -0.8034
 1729TIP3   OH226601   3.153   1.537   0.118  0.1227  0.0684  0.2787
 1729TIP3    H126602   3.115   1.618   0.082 -3.2255 -1.1158  0.8291
 1729TIP3    H226603   3.166   1.481   0.041 -0.3210  0.0801  0.1949
 1730TIP3   OH226604   3.749   1.789   0.948 -0.4505  0.3430 -0.1853
 1730TIP3    H126605   3.698   1.738   0.884  1.6478  0.6040 -2.1845
 1730TIP3    H226606   3.794   1.723   1.000  0.5813  0.0840 -1.3569
 1731TIP3   OH226607   0.364   2.416  12.549 -0.4014 -0.4189 -0.3010
 1731TIP3    H126608   0.354   2.335  12.499 -0.2036 -1.1792  0.8421
 1731TIP3    H226609   0.457   2.417  12.574 -0.4130  0.1345 -0.2711
 1732TIP3   OH226610   2.426   4.447   3.138  0.2974  0.5348 -0.3726
 1732TIP3    H126611   2.475   4.516   3.183  0.9350 -0.8228  1.1393
 1732TIP3    H226612   2.455   4.366   3.181 -1.3791 -0.5544 -1.1990
 1733TIP3   OH226613   2.915   3.624  11.308 -0.0766  0.5299 -0.2008
 1733TIP3    H126614   2.957   3.679  11.242  0.7077 -0.2869 -0.4032
 1733TIP3    H226615   2.939   3.534  11.284 -0.8819  0.1267  0.4297
 1734TIP3   OH226616   0.002   4.650   2.767 -0.6547 -0.2485  0.3815
 1734TIP3    H126617   0.029   4.562   2.743  4.1827  1.5337 -2.3689
 1734TIP3    H226618   0.047   4.667   2.850 -0.7287 -0.0675  0.3853
 1735TIP3   OH226619   6.490   4.268  11.192  0.4025 -0.2869  0.1303
 1735TIP3    H126620   6.526   4.355  11.205 -0.8711  0.6853 -2.1042
 1735TIP3    H226621   6.431   4.254  11.266 -1.4914  1.9890 -0.8400
 1736TIP3   OH226622   3.394   4.224   0.807 -0.1373 -0.7558 -0.4307
 1736TIP3    H126623   3.318   4.248   0.754 -1.4745 -0.7033  1.4409
 1736TIP3    H226624   3.364   4.231   0.897  2.4648  0.4899  0.4292
 1737TIP3   OH226625   5.295   0.925   1.222  0.1747  0.2434  0.1355
 1737TIP3    H126626   5.272   1.018   1.219 -3.5519 -0.5646 -1.0385
 1737TIP3    H226627   5.309   0.901   1.130 -0.0649 -0.5990  0.3158
 1738TIP3   OH226628   2.184   6.592   2.497 -0.2558 -0.8280 -0.1599
 1738TIP3    H126629   2.258   6.547   2.536  1.1286 -0.7371 -2.5125
 1738TIP3    H226630   2.162   6.541   2.419 -1.6298  0.0505 -0.3963
 1739TIP3   OH226631   4.878   2.029  12.851  0.4806  0.4348  0.0589
 1739TIP3    H126632   4.894   2.122  12.838 -0.0953  0.8406  1.9938
 1739TIP3    H226633   4.878   2.017  12.946  0.6911 -1.5716 -0.1460
 1740TIP3   OH226634   5.106   5.970  17.224 -0.5483 -0.1683  0.1805
 1740TIP3    H126635   5.136   5.897  17.278  1.6249  0.6487  0.1467
 1740TIP3    H226636   5.179   5.989  17.166 -2.7710 -1.0115 -3.1942
 1741TIP3   OH226637   1.110   2.437  12.826 -0.1973 -0.1348  0.4462
 1741TIP3    H126638   1.064   2.359  12.858  0.2955 -0.1190  1.2210
 1741TIP3    H226639   1.113   2.496  12.902 -0.9286  0.8152 -0.2438
 1742TIP3   OH226640   4.855   4.143   1.234 -0.2116 -0.6658  0.5345
 1742TIP3    H126641   4.764   4.115   1.232 -0.6027  0.4302  1.3754
 1742TIP3    H226642   4.856   4.226   1.186  0.4317 -0.8812  0.1595
 1743TIP3   OH226643   1.568   1.161   0.414 -0.0221 -0.8679 -0.4451
 1743TIP3    H126644   1.527   1.154   0.501  0.8030 -1.7528 -0.1166
 1743TIP3    H226645   1.541   1.081   0.369  0.7252 -1.0955 -0.4915
 1744TIP3   OH226646   0.660   6.105  17.374 -0.0915 -0.0227 -0.1901
 1744TIP3    H126647   0.693   6.156  17.300 -0.1100 -1.9035 -1.5774
 1744TIP3    H226648   0.738   6.076  17.421 -0.0682  0.8844  0.3588
 1745TIP3   OH226649   3.037   1.729  15.421 -0.0704  0.3719  0.7094
 1745TIP3    H126650   3.052   1.695  15.509  1.5570 -1.6854 -0.2782
 1745TIP3    H226651   3.108   1.694  15.369 -0.7170  1.9188 -1.3745
 1746TIP3   OH226652   5.687   4.802  13.174 -0.1131  0.0119  0.6938
 1746TIP3    H126653   5.780   4.789  13.153 -0.3749  1.2727 -1.5790
 1746TIP3    H226654   5.640   4.758  13.104 -1.1296  2.6385 -0.3777
 1747TIP3   OH226655   0.986   4.681   3.057 -0.6877 -0.0014  0.6133
 1747TIP3    H126656   0.944   4.692   3.142 -2.1564 -2.2330  0.2623
 1747TIP3    H226657   0.955   4.756   3.005 -1.1650  0.4480  1.5212
 1748TIP3   OH226658   1.184   0.430   3.608  0.4545 -0.5859 -0.0417
 1748TIP3    H126659   1.225   0.433   3.522 -0.8959  0.2883 -0.6998
 1748TIP3    H226660   1.090   0.440   3.590  0.0786 -1.0790  1.4875
 1749TIP3   OH226661   4.739   3.472  15.104  0.0303  0.3166  0.4181
 1749TIP3    H126662   4.671   3.491  15.040 -0.2821 -0.7852  0.4024
 1749TIP3    H226663   4.822   3.485  15.057 -0.1786 -2.4707 -0.8751
 1750TIP3   OH226664   6.667   2.773   0.027 -0.0612  0.3809 -0.3720
 1750TIP3    H126665   6.594   2.725   0.066  0.0112  1.4470  1.1611
 1750TIP3    H226666   6.627   2.829  -0.039 -0.2599 -1.0556 -1.5094
 1751TIP3   OH226667   1.091   5.378  14.591 -0.1031  0.2929  0.2528
 1751TIP3    H126668   1.121   5.375  14.500  0.0655  1.5408  0.2435
 1751TIP3    H226669   1.170   5.365  14.643  0.1783  1.7094  0.2166
 1752TIP3   OH226670   3.581   0.878   3.511 -0.2386 -0.2204 -0.2572
 1752TIP3    H126671   3.633   0.798   3.497 -0.0720  0.0072 -0.9474
 1752TIP3    H226672   3.494   0.855   3.479  0.5377  0.8350 -3.4268
 1753TIP3   OH226673   1.470   3.631  12.866  0.4693  0.2156  0.4834
 1753TIP3    H126674   1.451   3.601  12.955  0.2470  1.3821  0.8429
 1753TIP3    H226675   1.559   3.599  12.849 -0.8661 -3.5777 -0.4780
 1754TIP3   OH226676   4.401   1.635   0.019 -0.1460 -0.4791 -0.1386
 1754TIP3    H126677   4.320   1.640  -0.032 -0.0133 -1.1213 -0.4293
 1754TIP3    H226678   4.372   1.615   0.108 -0.3426  0.0074 -0.0910
 1755TIP3   OH226679   4.993   1.004   0.878  0.1150 -0.0374  0.9221
 1755TIP3    H126680   4.940   0.925   0.870  0.3936 -0.1842  0.4456
 1755TIP3    H226681   4.969   1.041   0.963 -0.1628 -0.5271  1.0617
 1756TIP3   OH226682   3.634   2.753  12.752 -0.6099 -0.0042  0.0085
 1756TIP3    H126683   3.607   2.835  12.793 -0.1932  0.1473 -0.0098
 1756TIP3    H226684   3.553   2.711  12.724 -0.7678  0.9967 -1.1176
 1757TIP3   OH226685   2.358   6.296  14.380  0.2055 -0.0523  0.1820
 1757TIP3    H126686   2.373   6.232  14.450 -0.1504 -0.3478 -0.0063
 1757TIP3    H226687   2.283   6.347  14.411  1.4705  1.3546  1.0753
 1758TIP3   OH226688   5.113   0.150   0.404 -0.4500 -0.5250  0.0976
 1758TIP3    H126689   5.061   0.154   0.323 -1.2750 -2.7927  0.4591
 1758TIP3    H226690   5.203   0.147   0.374 -0.6909 -0.3082 -0.6825
 1759TIP3   OH226691   1.698   6.724  17.315  0.5129  0.3534  0.0638
 1759TIP3    H126692   1.605   6.713  17.337 -0.2922  0.0034 -3.0226
 1759TIP3    H226693   1.712   6.663  17.243  2.4622  2.1757 -1.2111
 1760TIP3   OH226694   2.058   3.362   2.362 -0.3571  0.5236 -0.3833
 1760TIP3    H126695   2.108   3.436   2.328  2.9236 -1.0377  0.6506
 1760TIP3    H226696   2.021   3.393   2.444  0.3861  1.2197 -0.2981
 1761TIP3   OH226697   1.126   3.758   5.519  0.3402 -0.0942  0.1022
 1761TIP3    H126698   1.200   3.701   5.539 -0.6536 -1.1859  0.8284
 1761TIP3    H226699   1.085   3.774   5.604 -0.8795 -0.4074 -0.4076
 1762TIP3   OH226700   4.477   3.326   0.268 -0.0011  0.4063  0.5730
 1762TIP3    H126701   4.508   3.318   0.178  0.0397  0.0546  0.6168
 1762TIP3    H226702   4.427   3.408   0.270 -1.3030 -0.3404 -0.1445
 1763TIP3   OH226703   5.858   2.847   0.453 -0.8881  0.3067 -0.0809
 1763TIP3    H126704   5.766   2.847   0.481 -1.1593 -0.2603 -0.9500
 1763TIP3    H226705   5.872   2.760   0.417  0.3361 -0.0255  1.0974
 1764TIP3   OH226706   3.186   6.201  12.906 -0.0306 -0.0637  0.2657
 1764TIP3    H126707   3.164   6.208  12.999 -0.4119  0.5585  0.1392
 1764TIP3    H226708   3.142   6.276  12.866  1.6096  0.7259 -0.1452
 1765TIP3   OH226709   0.989   1.034   5.995 -0.2405 -0.8219  0.4052
 1765TIP3    H126710   1.018   1.107   5.940 -3.0416  1.1815  1.3409
 1765TIP3    H226711   1.058   1.025   6.061  1.7634 -1.3439 -1.6469
 1766TIP3   OH226712   1.509   2.248  16.406  0.4682  0.6145  0.1343
 1766TIP3    H126713   1.584   2.286  16.453  1.0764  0.3221 -0.5863
 1766TIP3    H226714   1.538   2.243  16.315  0.4660 -1.7266  0.2154
 1767TIP3   OH226715   4.324   4.337  11.339 -0.4160 -0.1421  0.3472
 1767TIP3    H126716   4.288   4.397  11.403 -0.7714 -0.3119  0.3083
 1767TIP3    H226717   4.320   4.385  11.256 -0.5948 -0.1728  0.3360
 1768TIP3   OH226718   6.703   0.108   5.665  0.2164  0.4012  0.3044
 1768TIP3    H126719   6.755   0.167   5.611  1.0566  0.8489  1.5454
 1768TIP3    H226720   6.631   0.080   5.609  1.3343  0.4331 -1.1920
 1769TIP3   OH226721   2.490   4.823   2.401  0.0166 -0.1371 -0.0644
 1769TIP3    H126722   2.450   4.768   2.334  0.8528 -0.2110 -0.5098
 1769TIP3    H226723   2.514   4.763   2.471 -0.6519 -0.0911  0.2092
 1770TIP3   OH226724   5.532   3.935  14.839 -0.5800  0.1501 -0.6263
 1770TIP3    H126725   5.450   3.923  14.791  0.5804 -0.3631 -2.5915
 1770TIP3    H226726   5.570   3.847  14.845 -0.2917  0.3329  0.5475
 1771TIP3   OH226727   3.793   1.892   2.700 -0.6180  0.0366  0.3241
 1771TIP3    H126728   3.823   1.960   2.761 -1.9391 -0.2608  1.3496
 1771TIP3    H226729   3.864   1.885   2.636  0.0594  1.5643  0.8443
 1772TIP3   OH226730   6.566   3.284  15.788  0.2342  0.3128  0.0242
 1772TIP3    H126731   6.471   3.274  15.795  0.5045 -1.2434  2.7303
 1772TIP3    H226732   6.598   3.196  15.771  1.3486  0.1044  2.7079
 1773TIP3   OH226733   6.492   1.391   5.620  0.0919 -0.4292 -0.9649
 1773TIP3    H126734   6.579   1.419   5.591  1.0333 -2.2950 -0.0732
 1773TIP3    H226735   6.458   1.339   5.547 -1.4539  2.3067 -2.4077
 1774TIP3   OH226736   4.516   2.102  14.645 -0.3249 -0.1298 -0.0162
 1774TIP3    H126737   4.427   2.065  14.649 -0.4259  0.1899  0.7457
 1774TIP3    H226738   4.506   2.181  14.592  0.2096 -2.0230 -3.2551
 1775TIP3   OH226739   1.724   1.837  12.872 -0.3143  0.6750  0.3601
 1775TIP3    H126740   1.785   1.811  12.941 -1.0519  0.6936  1.0333
 1775TIP3    H226741   1.675   1.757  12.852 -1.4865  1.1251  1.2993
 1776TIP3   OH226742   3.984   2.266  15.699 -0.3163  0.3653  0.2105
 1776TIP3    H126743   4.006   2.176  15.675  1.5077  0.8471 -0.1292
 1776TIP3    H226744   4.036   2.283  15.778 -0.1322  1.3069 -0.0952
 1777TIP3   OH226745   3.900   3.180   3.233 -0.4934  0.2433 -0.3891
 1777TIP3    H126746   3.849   3.144   3.160 -0.7564  1.2263 -0.7054
 1777TIP3    H226747   3.988   3.191   3.198 -0.3582 -0.2756 -0.2253
 1778TIP3   OH226748   0.170   6.586  17.175 -0.5117  0.4014  0.0444
 1778TIP3    H126749   0.156   6.503  17.220 -0.9489  0.7994  0.6497
 1778TIP3    H226750   0.187   6.649  17.244  0.1596  0.7636 -0.4337
 1779TIP3   OH226751   6.178   6.286   2.273 -0.2477  0.0681  0.4137
 1779TIP3    H126752   6.120   6.211   2.284 -0.1454  0.0400  0.7683
 1779TIP3    H226753   6.127   6.347   2.220 -0.7950  0.2420  1.1164
 1780TIP3   OH226754   6.649   5.439   3.834  0.4866 -0.2050  0.2889
 1780TIP3    H126755   6.660   5.344   3.832 -0.7687 -0.3818  0.6957
 1780TIP3    H226756   6.669   5.464   3.924  0.5264 -0.1217  0.2577
 1781TIP3   OH226757   5.157   5.232  11.745  0.3336  0.0679  0.3076
 1781TIP3    H126758   5.167   5.318  11.703 -1.8773 -0.1467 -0.7455
 1781TIP3    H226759   5.064   5.225  11.765  0.1369 -2.7540 -1.1098
 1782TIP3   OH226760   5.769   0.912   1.099 -0.1698  0.4525  0.6136
 1782TIP3    H126761   5.694   0.890   1.044  0.3539  1.6922 -0.6537
 1782TIP3    H226762   5.835   0.945   1.038  0.6952  1.2183  1.9080
 1783TIP3   OH226763   5.594   6.494  11.895  0.0135  0.0516  0.5759
 1783TIP3    H126764   5.548   6.448  11.965 -0.9816 -1.6476 -1.0791
 1783TIP3    H226765   5.526   6.548  11.853  0.3081  0.1185  0.1722
 1784TIP3   OH226766   0.625   5.507   3.725 -0.2540  0.1282 -0.0421
 1784TIP3    H126767   0.720   5.500   3.719 -0.0976  1.2439  0.6686
 1784TIP3    H226768   0.600   5.564   3.652 -0.6267 -1.6389 -1.3561
 1785TIP3   OH226769   5.383   4.922  13.784  0.2662 -0.0371 -0.5772
 1785TIP3    H126770   5.419   4.909  13.871 -1.2382 -0.3243  0.0344
 1785TIP3    H226771   5.385   4.836  13.743  0.0326 -0.1140 -0.4324
 1786TIP3   OH226772   5.475   6.069  15.344 -0.3182 -0.2413  0.6625
 1786TIP3    H126773   5.495   6.062  15.250 -0.2530  0.9815  0.5769
 1786TIP3    H226774   5.409   6.000  15.359 -0.3638 -0.4201 -0.2883
 1787TIP3   OH226775   3.313   0.809  15.021 -0.5365  0.7604  0.3258
 1787TIP3    H126776   3.379   0.793  15.088 -2.5399 -0.0279  2.2570
 1787TIP3    H226777   3.282   0.722  14.997 -0.5015  1.0877 -0.9500
 1788TIP3   OH226778   3.268   2.172   2.738  0.1278  0.3305 -0.1506
 1788TIP3    H126779   3.357   2.202   2.757 -0.6626  2.6039  0.3492
 1788TIP3    H226780   3.269   2.150   2.645  1.5908 -1.2614  0.2041
 1789TIP3   OH226781   3.291   3.492  11.965 -0.1676  0.7495 -0.2954
 1789TIP3    H126782   3.233   3.511  11.891 -1.1782  0.0787  0.3126
 1789TIP3    H226783   3.322   3.403  11.948  0.0541  0.8066 -0.1958
 1790TIP3   OH226784   2.666   3.990   2.595  0.7050  0.4869 -0.0487
 1790TIP3    H126785   2.620   3.907   2.582  1.7798 -0.3090  1.0434
 1790TIP3    H226786   2.755   3.964   2.618  0.9147  1.9481  0.8568
 1791TIP3   OH226787   0.418   1.707  11.189  0.0054  0.2915  0.5543
 1791TIP3    H126788   0.473   1.629  11.191  0.1317  0.3657  0.0154
 1791TIP3    H226789   0.452   1.759  11.117 -0.5431  0.5061  0.4417
 1792TIP3   OH226790   5.148   2.718  15.803 -0.3593 -0.5555 -0.2565
 1792TIP3    H126791   5.176   2.642  15.854 -2.5557 -0.8340  0.6665
 1792TIP3    H226792   5.174   2.793  15.857  1.5029 -0.6121 -1.0047
 1793TIP3   OH226793   6.388   5.247  15.165  0.4219 -0.2090  0.1784
 1793TIP3    H126794   6.317   5.273  15.105 -2.3395 -0.5330  3.0670
 1793TIP3    H226795   6.389   5.151  15.161 -0.4981 -0.2807  1.3752
 1794TIP3   OH226796   0.447   0.496  15.720 -0.3662  0.4910  0.1835
 1794TIP3    H126797   0.395   0.450  15.787 -0.9449  0.6254 -0.1681
 1794TIP3    H226798   0.420   0.587  15.727 -0.4178  0.5091 -0.2257
 1795TIP3   OH226799   3.228   5.474   6.344  1.1943 -0.1764  0.3305
 1795TIP3    H126800   3.222   5.379   6.355 -0.8152  0.0352  1.5888
 1795TIP3    H226801   3.216   5.509   6.433  1.2760  1.2623 -0.2024
 1796TIP3   OH226802   1.086   6.310   3.330  0.2240  0.3937 -0.4194
 1796TIP3    H126803   1.133   6.245   3.382  0.6220 -0.2201 -1.5010
 1796TIP3    H226804   1.076   6.385   3.388  0.0229 -0.5187  0.7583
 1797TIP3   OH226805   1.543   0.632   2.006  0.1498 -0.9271  0.1682
 1797TIP3    H126806   1.605   0.650   2.076  0.5687  0.0384 -0.4343
 1797TIP3    H226807   1.475   0.578   2.048  0.2496 -0.1497  1.3796
 1798TIP3   OH226808   5.765   5.941  11.904  0.0643 -0.0104  0.2342
 1798TIP3    H126809   5.856   5.929  11.931 -0.3398  1.0419  2.2009
 1798TIP3    H226810   5.771   5.983  11.818  1.4167  0.1319  0.3737
 1799TIP3   OH226811   5.524   6.058  13.712  0.0053 -0.7433 -0.0991
 1799TIP3    H126812   5.615   6.063  13.680 -0.2294  2.4454 -0.5823
 1799TIP3    H226813   5.530   6.077  13.805 -0.0896 -1.7079  0.1129
 1800TIP3   OH226814   3.204   6.456   0.673 -0.1163 -0.1969 -0.4537
 1800TIP3    H126815   3.257   6.509   0.614  0.4403  0.0881  0.2801
 1800TIP3    H226816   3.119   6.499   0.674  1.2709  2.9934  2.9094
 1801TIP3   OH226817   1.397   3.681   6.198  0.0491 -0.2665  0.3267
 1801TIP3    H126818   1.384   3.608   6.137 -1.2055 -0.3063  0.6036
 1801TIP3    H226819   1.331   3.667   6.266 -0.5637  1.3900  0.1126
 1802TIP3   OH226820   1.897   1.967  11.940  0.2287 -0.4011 -0.5366
 1802TIP3    H126821   1.859   1.932  11.860 -2.3249  0.0104  0.4119
 1802TIP3    H226822   1.851   1.923  12.011  1.1543  0.5375  0.7133
 1803TIP3   OH226823   3.483   1.824   5.353  0.3825  0.2300 -0.1335
 1803TIP3    H126824   3.467   1.832   5.447 -0.3087  0.5934 -0.2754
 1803TIP3    H226825   3.501   1.731   5.340 -0.2019  0.0561  0.2570
 1804TIP3   OH226826   3.139   2.113   5.182 -0.4742 -0.0065 -0.1575
 1804TIP3    H126827   3.113   2.021   5.177  0.0804 -0.1716 -0.1425
 1804TIP3    H226828   3.234   2.110   5.194 -0.4080  0.5736 -0.4816
 1805TIP3   OH226829   3.890   1.698  13.838 -0.5067  0.2364 -0.2890
 1805TIP3    H126830   3.842   1.781  13.836  0.0794  0.6740  1.8926
 1805TIP3    H226831   3.982   1.723  13.832 -0.3792 -0.3889 -1.1593
 1806TIP3   OH226832   5.700   0.679  14.006 -0.8799 -0.5890 -0.2245
 1806TIP3    H126833   5.705   0.735  13.928 -1.7961 -0.8809 -0.5012
 1806TIP3    H226834   5.622   0.625  13.993 -1.7982  0.2327  1.4701
 1807TIP3   OH226835   6.135   2.156  15.443  0.3637 -0.0442  0.2113
 1807TIP3    H126836   6.157   2.127  15.532  0.6112  1.6183  0.7164
 1807TIP3    H226837   6.099   2.078  15.401  0.4695 -0.9256  1.6870
 1808TIP3   OH226838   3.397   3.441   2.370  0.0143 -0.3562 -0.0492
 1808TIP3    H126839   3.429   3.456   2.459  1.0218  2.8774 -0.8426
 1808TIP3    H226840   3.463   3.384   2.331  0.9227  0.2873  0.5124
 1809TIP3   OH226841   3.201   5.017   5.928 -0.0475 -0.4274 -0.0284
 1809TIP3    H126842   3.118   4.970   5.926 -0.4312  0.2485 -0.2869
 1809TIP3    H226843   3.220   5.028   6.021 -0.3152 -0.4692  0.0329
 1810TIP3   OH226844   0.222   0.706  16.428 -0.1562  0.6629 -0.0175
 1810TIP3    H126845   0.129   0.682  16.421 -0.2336  1.2044 -0.9943
 1810TIP3    H226846   0.226   0.796  16.397  0.6501  0.7681  0.3781
 1811TIP3   OH226847   4.045   5.083  12.865 -0.2589 -0.4799 -0.3949
 1811TIP3    H126848   4.110   5.036  12.919 -0.9427 -0.7416  0.2213
 1811TIP3    H226849   4.010   5.016  12.806 -1.3804 -0.8180  0.6215
 1812TIP3   OH226850   3.372   5.526  14.591 -0.4447 -0.3979  0.0096
 1812TIP3    H126851   3.364   5.621  14.594 -1.4033 -0.4931  1.0544
 1812TIP3    H226852   3.283   5.494  14.608  0.0608 -1.4854  0.6628
 1813TIP3   OH226853   5.867   3.281  13.222 -0.4381 -0.0196  0.1144
 1813TIP3    H126854   5.776   3.255  13.207 -0.3377  0.8459 -2.4616
 1813TIP3    H226855   5.865   3.377  13.219  0.7172 -0.0161 -1.2962
 1814TIP3   OH226856   4.016   1.971   3.485 -0.6067 -0.5881  0.5743
 1814TIP3    H126857   3.984   1.953   3.573  0.1318  0.3875  1.0761
 1814TIP3    H226858   4.042   1.886   3.450 -0.3855 -0.9250  1.5292
 1815TIP3   OH226859   1.919   5.968  12.103 -0.3472  0.1153 -0.2706
 1815TIP3    H126860   1.932   5.924  12.019 -0.8989 -2.2418  0.7953
 1815TIP3    H226861   1.826   5.992  12.103  0.2465  2.8088 -1.4593
 1816TIP3   OH226862   3.611   1.313  15.557  0.1005 -0.4970  0.0257
 1816TIP3    H126863   3.563   1.324  15.475 -1.7142  3.1648  1.3434
 1816TIP3    H226864   3.543   1.289  15.621  1.3124 -2.2892  0.7180
 1817TIP3   OH226865   1.385   3.625  14.549 -0.4169  0.0978 -0.0037
 1817TIP3    H126866   1.360   3.661  14.635  0.1703  1.5431 -0.4036
 1817TIP3    H226867   1.311   3.647  14.492 -0.6666 -0.5852  0.0430
 1818TIP3   OH226868   1.045   5.418   1.275  0.2295  0.1529  0.0042
 1818TIP3    H126869   1.117   5.480   1.285  0.3221 -0.1405  1.2793
 1818TIP3    H226870   0.991   5.430   1.353 -0.2774 -0.7003 -0.1971
 1819TIP3   OH226871   6.357   6.262  11.314 -0.1902 -0.3062  0.4214
 1819TIP3    H126872   6.449   6.269  11.286 -0.4940 -0.4825 -0.7001
 1819TIP3    H226873   6.340   6.342  11.363  0.9236 -0.8671  1.7900
 1820TIP3   OH226874   0.758   1.974   0.699  0.3823 -0.3171  0.2375
 1820TIP3    H126875   0.709   1.960   0.780  0.7484  1.6780  0.8514
 1820TIP3    H226876   0.724   2.056   0.664  3.1219  1.0768  0.6137
 1821TIP3   OH226877   3.753   3.459   4.571  0.1711 -0.2269  0.3494
 1821TIP3    H126878   3.749   3.384   4.631 -1.1498  0.3256  0.9845
 1821TIP3    H226879   3.747   3.536   4.628  0.1930  0.3424 -0.3981
 1822TIP3   OH226880   1.606   3.632   4.488  0.0132  0.6846  0.3726
 1822TIP3    H126881   1.554   3.661   4.563 -1.1042  1.1440 -0.5591
 1822TIP3    H226882   1.582   3.692   4.417 -1.0955 -1.4107 -1.1544
 1823TIP3   OH226883   2.714   0.229  16.070  0.0684 -0.1501  1.2578
 1823TIP3    H126884   2.766   0.249  15.992 -0.4793 -0.4231  0.8178
 1823TIP3    H226885   2.679   0.313  16.098  1.3185  0.1615  1.9897
 1824TIP3   OH226886   2.361   5.545   3.042  0.2008 -0.2498 -0.4301
 1824TIP3    H126887   2.349   5.472   2.981  0.3776 -1.4433  0.9170
 1824TIP3    H226888   2.413   5.609   2.993 -0.5690 -0.6874 -1.8861
 1825TIP3   OH226889   4.336   2.971   3.111  0.4841  0.2862 -0.7376
 1825TIP3    H126890   4.326   2.877   3.125  1.3928  0.4156  1.0486
 1825TIP3    H226891   4.425   2.980   3.076  0.2470  0.4510 -1.3014
 1826TIP3   OH226892   1.257   3.791  11.841  0.0564 -0.2678 -0.0507
 1826TIP3    H126893   1.195   3.763  11.774 -0.8361  0.7647  0.3111
 1826TIP3    H226894   1.251   3.724  11.909 -1.0440  0.0767  0.2022
 1827TIP3   OH226895   3.148   0.321  15.340 -0.1739  0.2783  0.2677
 1827TIP3    H126896   3.103   0.272  15.409 -0.4935  0.1232 -0.0538
 1827TIP3    H226897   3.191   0.393  15.387 -0.4768  0.2345  0.6172
 1828TIP3   OH226898   1.655   6.320   4.609  0.0903 -0.0405  0.3723
 1828TIP3    H126899   1.612   6.272   4.680  1.3772 -0.9606  0.5686
 1828TIP3    H226900   1.695   6.396   4.651 -1.5939  1.0388  0.1288
 1829TIP3   OH226901   0.840   0.626   0.843  0.4041 -0.2827  0.5208
 1829TIP3    H126902   0.782   0.689   0.799  1.2176 -1.7486 -2.9613
 1829TIP3    H226903   0.797   0.541   0.830  2.3806 -1.1858 -0.6263
 1830TIP3   OH226904   3.819   4.688  16.860  0.5295 -0.4049  0.0797
 1830TIP3    H126905   3.903   4.645  16.867  0.2073 -0.8609  1.4872
 1830TIP3    H226906   3.797   4.713  16.950 -0.1731  0.9954 -0.4480
 1831TIP3   OH226907   1.421   2.778   0.084 -0.1534  0.0629  0.4516
 1831TIP3    H126908   1.457   2.744   0.001  0.1104  0.7589  0.2769
 1831TIP3    H226909   1.345   2.722   0.101  1.0202 -1.4812  0.8532
 1832TIP3   OH226910   5.676   6.065  12.145  0.0469  0.4798 -0.6364
 1832TIP3    H126911   5.713   6.012  12.216 -1.2234  0.3341 -0.0427
 1832TIP3    H226912   5.735   6.052  12.071  1.4885  0.7456  0.4280
 1833TIP3   OH226913   4.999   5.040  17.155  0.4850 -0.3240 -0.3285
 1833TIP3    H126914   5.072   5.013  17.100  0.4957 -0.7899 -0.0976
 1833TIP3    H226915   4.923   4.994  17.119  0.5319 -0.8112  0.1683
 1834TIP3   OH226916   0.728   6.251   5.751 -0.1547  1.0827 -0.1540
 1834TIP3    H126917   0.736   6.198   5.830  0.0465 -0.7194 -1.3266
 1834TIP3    H226918   0.640   6.289   5.756 -1.6795 -2.0335 -0.7688
 1835TIP3   OH226919   5.187   2.123   2.797  0.3555 -0.3521 -0.0129
 1835TIP3    H126920   5.193   2.208   2.753 -0.4563 -0.5405 -0.5189
 1835TIP3    H226921   5.102   2.088   2.770  1.7103 -2.4810 -1.9809
 1836TIP3   OH226922   3.376   1.680  16.033 -0.1795 -0.0833  0.4743
 1836TIP3    H126923   3.361   1.740  16.106  0.4714 -0.7109  1.1550
 1836TIP3    H226924   3.412   1.735  15.964 -3.2512  1.0210 -0.3840
 1837TIP3   OH226925   3.905   5.617  15.217  0.2603  0.0395  0.0164
 1837TIP3    H126926   3.992   5.642  15.186 -0.3757  0.7549 -1.3075
 1837TIP3    H226927   3.860   5.700  15.231 -0.8882 -0.2962 -1.4212
 1838TIP3   OH226928   4.918   3.402   0.906  0.0316  0.3005  0.6220
 1838TIP3    H126929   4.828   3.402   0.872 -0.5342  2.2288  1.9253
 1838TIP3    H226930   4.971   3.376   0.831 -1.5124  0.3665 -0.5641
 1839TIP3   OH226931   6.248   4.520   4.756  0.1584 -0.2117  0.3586
 1839TIP3    H126932   6.250   4.595   4.697  1.0003 -0.3872  0.1525
 1839TIP3    H226933   6.160   4.523   4.796  0.1109  0.7527  0.2036
 1840TIP3   OH226934   6.704   2.013   1.636 -0.0401  0.3489 -0.0883
 1840TIP3    H126935   6.662   2.035   1.553 -1.0576  1.2921  0.6501
 1840TIP3    H226936   6.714   2.096   1.682  0.5561 -0.1450  0.7131
 1841TIP3   OH226937   4.065   3.300  10.951 -0.2703  0.1119 -0.1836
 1841TIP3    H126938   4.028   3.367  10.893  0.4304  0.4304 -0.2764
 1841TIP3    H226939   3.989   3.256  10.988 -0.7289 -0.1943 -1.4509
 1842TIP3   OH226940   2.665   4.170   4.017  0.2786  0.4273 -0.1194
 1842TIP3    H126941   2.688   4.081   4.042  0.1891  0.5750  0.5104
 1842TIP3    H226942   2.709   4.225   4.082 -0.0813  0.8147 -0.1997
 1843TIP3   OH226943   4.369   3.326  13.194  0.4331 -0.2495  0.2909
 1843TIP3    H126944   4.348   3.306  13.286  3.2104  1.6777  1.4844
 1843TIP3    H226945   4.459   3.297  13.183  0.7131  1.0638 -1.3091
 1844TIP3   OH226946   3.172   4.354   1.677  0.2776 -0.0144 -0.5897
 1844TIP3    H126947   3.097   4.409   1.699  0.3669 -0.2898  0.4707
 1844TIP3    H226948   3.216   4.400   1.606 -0.3558  0.6413 -0.5631
 1845TIP3   OH226949   2.887   4.398   5.405  0.3628  0.1989  0.5641
 1845TIP3    H126950   2.968   4.364   5.367 -2.3990 -2.1638 -4.2752
 1845TIP3    H226951   2.885   4.490   5.378  1.2257  0.1738  0.3777
 1846TIP3   OH226952   1.355   1.001   3.229  0.0796  0.0941 -0.0838
 1846TIP3    H126953   1.419   1.043   3.170 -0.6017  0.2449 -0.7322
 1846TIP3    H226954   1.270   1.025   3.192 -0.4252  1.4389  1.8078
 1847TIP3   OH226955   3.212   4.407   0.034 -0.3174 -0.1124 -0.2864
 1847TIP3    H126956   3.236   4.315   0.048 -0.7767 -0.4105 -1.3227
 1847TIP3    H226957   3.136   4.421   0.090  0.7539  0.1353  1.1531
 1848TIP3   OH226958   4.524   0.426  13.413  0.2194 -1.2772  0.5763
 1848TIP3    H126959   4.549   0.377  13.492 -0.2630 -2.7986 -0.1705
 1848TIP3    H226960   4.545   0.367  13.341 -0.2406 -0.3002 -0.3786
 1849TIP3   OH226961   1.750   1.275  14.823 -0.1119 -0.0295 -0.6645
 1849TIP3    H126962   1.797   1.236  14.749 -1.4311 -1.3497 -0.8628
 1849TIP3    H226963   1.679   1.213  14.841 -0.6165  0.9379  0.8538
 1850TIP3   OH226964   3.736   4.679   0.803 -0.1531  0.3739  0.4882
 1850TIP3    H126965   3.685   4.637   0.873 -1.0701  1.1519  0.2963
 1850TIP3    H226966   3.678   4.681   0.728  0.6265  0.0827 -0.1375
 1851TIP3   OH226967   3.593   1.413  14.156 -0.4387 -0.3234  0.0933
 1851TIP3    H126968   3.598   1.320  14.135 -1.1208 -0.3938  0.2180
 1851TIP3    H226969   3.617   1.458  14.075 -2.3591 -0.5964 -0.6913
 1852TIP3   OH226970   2.540   4.879   4.721  0.4987 -0.3633  0.3895
 1852TIP3    H126971   2.626   4.873   4.678  0.0415  0.7431 -0.7157
 1852TIP3    H226972   2.480   4.905   4.652 -0.7205 -0.9457  1.1908
 1853TIP3   OH226973   5.831   1.975   0.068  0.1360  0.3622  0.8103
 1853TIP3    H126974   5.750   1.928   0.048 -0.3047  0.5896  1.9360
 1853TIP3    H226975   5.859   1.939   0.152  0.0626  1.7284  1.4408
 1854TIP3   OH226976   6.072   5.951   0.414 -0.6522 -0.7599 -0.4304
 1854TIP3    H126977   6.078   5.861   0.384  1.6006 -0.9411  0.4322
 1854TIP3    H226978   6.007   5.991   0.355 -0.3684 -2.4622 -1.9741
 1855TIP3   OH226979   0.056   4.241   0.181 -0.5239 -0.3342  0.4732
 1855TIP3    H126980   0.035   4.224   0.089  0.4306 -0.0450  0.1963
 1855TIP3    H226981   0.037   4.159   0.226  2.2584 -1.6446 -0.5395
 1856TIP3   OH226982   6.439   6.619  15.180 -0.1718  0.7520 -0.2090
 1856TIP3    H126983   6.445   6.697  15.124  0.3844  0.2566 -0.8571
 1856TIP3    H226984   6.490   6.642  15.258  0.3724  0.8852 -0.5939
 1857TIP3   OH226985   5.229   4.488   6.122 -0.3054  0.3420 -0.8327
 1857TIP3    H126986   5.138   4.516   6.112 -0.2275  0.9795  0.1806
 1857TIP3    H226987   5.275   4.566   6.151  0.4495 -0.1367 -0.7243
 1858TIP3   OH226988   0.260   0.964  17.147  0.5609 -0.1035 -0.4061
 1858TIP3    H126989   0.310   0.889  17.113  0.9381  0.0285 -0.1480
 1858TIP3    H226990   0.197   0.925  17.208 -0.5401 -0.4133 -1.6861
 1859TIP3   OH226991   2.513   2.538  15.059 -0.0483  0.1060  0.3655
 1859TIP3    H126992   2.556   2.614  15.096  0.1512 -0.1778  0.7196
 1859TIP3    H226993   2.419   2.557  15.066 -0.0292 -0.1077  1.3782
 1860TIP3   OH226994   6.718   5.889  13.322  0.1365 -0.2909  0.7789
 1860TIP3    H126995   6.701   5.916  13.232  0.8788  0.0604  0.7372
 1860TIP3    H226996   6.798   5.936  13.347  0.7076 -1.4126  1.1624
 1861TIP3   OH226997   5.805   2.460   5.591 -0.1751  0.8112  0.2546
 1861TIP3    H126998   5.721   2.504   5.602 -1.7360 -1.5912 -1.1216
 1861TIP3    H226999   5.829   2.477   5.500 -0.4699 -0.5665 -0.0986
 1862TIP3   OH227000   6.306   1.312  12.211 -0.5272  0.4834  0.6978
 1862TIP3    H127001   6.343   1.393  12.247 -1.2639  0.8467  0.6659
 1862TIP3    H227002   6.268   1.268  12.287  1.9058 -1.0165  1.1491
 1863TIP3   OH227003   2.182   3.066  11.863 -0.1255 -0.5918  0.0279
 1863TIP3    H127004   2.109   3.010  11.837  0.5265 -1.5566  0.2033
 1863TIP3    H227005   2.142   3.149  11.886 -0.9653 -0.4370 -1.8209
 1864TIP3   OH227006   4.869   1.933   1.839 -0.2929  0.1257 -0.2914
 1864TIP3    H127007   4.819   1.993   1.893  0.0589 -0.5816  0.8434
 1864TIP3    H227008   4.803   1.892   1.782 -0.7868  0.3166  0.1330
 1865TIP3   OH227009   3.038   5.764  17.293  0.1183 -0.4820 -0.0302
 1865TIP3    H127010   3.062   5.814  17.372 -0.6795 -0.8850  0.4745
 1865TIP3    H227011   3.006   5.831  17.232 -2.7791 -0.5090  1.3232
 1866TIP3   OH227012   1.136   3.927   1.086 -0.1134  0.0087 -0.3280
 1866TIP3    H127013   1.139   3.836   1.054 -0.0295 -0.3054  0.5634
 1866TIP3    H227014   1.043   3.950   1.080 -0.0882 -0.0039 -0.8923
 1867TIP3   OH227015   2.208   2.465   6.023  0.1622 -0.1768 -0.0620
 1867TIP3    H127016   2.272   2.417   6.074  1.0054 -0.9287 -1.7546
 1867TIP3    H227017   2.175   2.402   5.959 -0.4677  0.8488 -0.7887
 1868TIP3   OH227018   0.316   5.612   1.548 -0.1155 -0.3104 -0.4575
 1868TIP3    H127019   0.299   5.658   1.631  0.8476  0.2880 -0.5730
 1868TIP3    H227020   0.398   5.650   1.516 -0.8199 -0.0328 -2.0379
 1869TIP3   OH227021   2.326   2.334   3.381 -0.0234  0.3391 -0.1801
 1869TIP3    H127022   2.301   2.286   3.460 -1.0971 -0.2650 -0.8718
 1869TIP3    H227023   2.292   2.422   3.394  1.2216  0.7085  0.7272
 1870TIP3   OH227024   2.199   4.448   2.268 -0.2654 -0.4935 -0.4220
 1870TIP3    H127025   2.238   4.515   2.211  1.7404 -0.9651  0.3205
 1870TIP3    H227026   2.190   4.492   2.353 -0.3725 -0.7047 -0.3237
 1871TIP3   OH227027   2.488   6.539   6.293 -0.0776 -0.4060  0.3851
 1871TIP3    H127028   2.462   6.580   6.376 -1.3857 -0.2215 -0.0986
 1871TIP3    H227029   2.564   6.487   6.316 -2.0212 -2.6207  2.3835
 1872TIP3   OH227030   6.637   2.803  14.046  0.4917  0.1458  0.2569
 1872TIP3    H127031   6.694   2.856  14.102 -1.3005  1.3413  1.0466
 1872TIP3    H227032   6.626   2.856  13.966 -0.3961  0.4544  0.5763
 1873TIP3   OH227033   4.736   3.851   2.674  0.4123  0.0581  0.3902
 1873TIP3    H127034   4.686   3.900   2.739 -0.9492 -1.7325  0.7705
 1873TIP3    H227035   4.774   3.778   2.723  0.3903 -0.6349 -0.5883
 1874TIP3   OH227036   5.730   0.506  14.457  0.7854  0.0187  0.5963
 1874TIP3    H127037   5.810   0.483  14.506  0.3621  2.2537  2.5200
 1874TIP3    H227038   5.761   0.558  14.383  1.2336 -0.9471  0.0872
 1875TIP3   OH227039   2.685   3.458  15.420 -0.1218  0.6050 -0.1733
 1875TIP3    H127040   2.624   3.403  15.470 -0.1238  1.0622  0.3381
 1875TIP3    H227041   2.650   3.547  15.429  0.0006  0.7243 -0.8168
 1876TIP3   OH227042   4.427   0.728  10.846  0.1739  0.6867  0.3121
 1876TIP3    H127043   4.462   0.672  10.777  0.7169  0.1626  1.0042
 1876TIP3    H227044   4.342   0.690  10.867 -0.3414  1.2990 -0.5855
 1877TIP3   OH227045   3.913   3.697   5.262 -0.6266 -0.1697 -0.6794
 1877TIP3    H127046   3.846   3.701   5.331  0.2202  0.0256  0.1659
 1877TIP3    H227047   3.981   3.758   5.292 -0.5398  0.4344 -2.0403
 1878TIP3   OH227048   3.521   3.740   2.592  0.2372  0.0932  0.1497
 1878TIP3    H127049   3.502   3.821   2.546 -1.4305 -0.6879 -0.6299
 1878TIP3    H227050   3.443   3.686   2.579  1.0582 -1.4149  1.1403
 1879TIP3   OH227051   0.355   6.352  17.105  0.2744 -0.1298  0.0611
 1879TIP3    H127052   0.323   6.262  17.105 -0.6946  0.1307 -3.0049
 1879TIP3    H227053   0.283   6.403  17.142  0.1861 -0.4180  0.2937
 1880TIP3   OH227054   2.875   2.162  13.910  0.3579 -0.1513 -0.7124
 1880TIP3    H127055   2.797   2.113  13.881  0.2269 -0.1586 -0.3493
 1880TIP3    H227056   2.919   2.186  13.828  0.9399 -1.7055 -0.8879
 1881TIP3   OH227057   2.836   1.293   4.306 -0.4062 -0.1429 -0.3117
 1881TIP3    H127058   2.919   1.257   4.275  0.2813 -0.2720  1.5426
 1881TIP3    H227059   2.769   1.236   4.268  0.3994 -0.5926 -1.0914
 1882TIP3   OH227060   5.600   2.464  16.192  0.3064  0.0915 -0.2075
 1882TIP3    H127061   5.520   2.463  16.141 -0.5102  0.3300  1.0158
 1882TIP3    H227062   5.653   2.392  16.156 -0.8650 -0.7021 -0.4091
 1883TIP3   OH227063   5.873   0.664   1.805  0.3682 -0.3961  0.5304
 1883TIP3    H127064   5.954   0.656   1.856  0.4894 -1.7159  0.1791
 1883TIP3    H227065   5.808   0.615   1.854  0.5472 -1.9050 -0.6517
 1884TIP3   OH227066   2.010   3.478  12.663  0.1859 -0.0410 -0.6744
 1884TIP3    H127067   1.953   3.488  12.587 -0.0547 -0.3967 -0.5412
 1884TIP3    H227068   2.064   3.401  12.643 -0.5682 -0.7560 -0.0621
 1885TIP3   OH227069   4.591   1.524   0.456 -0.1108 -0.5142 -0.0299
 1885TIP3    H127070   4.576   1.484   0.541  0.5320  0.9705  0.8324
 1885TIP3    H227071   4.686   1.531   0.449 -0.1978  1.6420  0.2944
 1886TIP3   OH227072   2.277   0.230   4.711  0.1584  0.0848 -0.4918
 1886TIP3    H127073   2.260   0.323   4.724  0.5849  0.2369 -0.9863
 1886TIP3    H227074   2.220   0.186   4.774 -0.7522  0.6345 -0.9265
 1887TIP3   OH227075   5.648   3.985  12.380 -0.1975  0.3950 -0.4007
 1887TIP3    H127076   5.636   3.892  12.362  0.0169  0.4521 -0.8442
 1887TIP3    H227077   5.741   4.000  12.369 -0.3218  0.7857 -0.9232
 1888TIP3   OH227078   1.154   0.301   3.869  0.0644  0.1601  0.3269
 1888TIP3    H127079   1.153   0.377   3.927 -2.4663  1.0255 -0.7432
 1888TIP3    H227080   1.179   0.336   3.783 -3.0708  0.3005 -0.6516
 1889TIP3   OH227081   2.343   3.355   5.569  0.6980 -0.5068 -0.3801
 1889TIP3    H127082   2.259   3.401   5.563  1.8918  1.7835 -1.0620
 1889TIP3    H227083   2.342   3.295   5.494 -0.0008  0.1460 -0.9232
 1890TIP3   OH227084   2.515   4.485   5.489 -0.5918  0.4232  0.2803
 1890TIP3    H127085   2.571   4.425   5.439  0.1761  0.3587  1.1922
 1890TIP3    H227086   2.458   4.428   5.541 -1.3142  0.4904 -0.4201
 1891TIP3   OH227087   3.101   4.132   2.309 -0.8547  0.4054  0.3175
 1891TIP3    H127088   3.191   4.162   2.297 -1.5003  2.5510  0.5041
 1891TIP3    H227089   3.110   4.048   2.355  1.0812 -0.4668 -1.5004
 1892TIP3   OH227090   2.250   0.591   5.524 -0.6229 -0.3573  0.7263
 1892TIP3    H127091   2.252   0.508   5.571 -3.0981 -0.8055  0.2091
 1892TIP3    H227092   2.156   0.612   5.517 -0.1277  1.8705 -0.2215
 1893TIP3   OH227093   6.657   2.844  16.083  0.1524 -0.1803  0.2753
 1893TIP3    H127094   6.606   2.797  16.150 -0.4413 -0.2647 -0.2199
 1893TIP3    H227095   6.609   2.925  16.070  0.7724  0.2444  0.5965
 1894TIP3   OH227096   2.041   3.827   5.237 -0.0196 -0.0745 -0.1178
 1894TIP3    H127097   2.068   3.786   5.318 -1.9554 -1.8103 -0.2524
 1894TIP3    H227098   2.109   3.804   5.174  0.2148 -0.8910  0.4204
 1895TIP3   OH227099   1.445   4.796   2.553 -0.3566  0.0940  0.3143
 1895TIP3    H127100   1.434   4.811   2.647  0.8396  0.1222  0.4681
 1895TIP3    H227101   1.356   4.785   2.520 -0.8795  1.2983  1.2382
 1896TIP3   OH227102   0.070   0.786  14.321  0.3519 -0.1842  0.8694
 1896TIP3    H127103   0.105   0.794  14.232 -1.6009  0.9048  0.1264
 1896TIP3    H227104   0.144   0.756  14.374  1.8805  0.3193 -0.8890
 1897TIP3   OH227105   4.277   6.184  12.533  0.3899  0.5563 -0.0290
 1897TIP3    H127106   4.343   6.200  12.601 -0.1884 -2.3270  1.3812
 1897TIP3    H227107   4.302   6.101  12.494 -0.7961  0.8591 -1.5209
 1898TIP3   OH227108   6.566   3.012  13.858  0.2117 -0.2093  0.3113
 1898TIP3    H127109   6.603   3.085  13.908  1.7488 -0.8473  0.1475
 1898TIP3    H227110   6.472   3.016  13.877  0.1415  2.1563 -0.1447
 1899TIP3   OH227111   5.781   6.439  16.078  0.1410  0.3877  0.4344
 1899TIP3    H127112   5.764   6.385  16.155 -0.0166  1.5223  1.2104
 1899TIP3    H227113   5.717   6.410  16.013  1.9079 -2.4005 -0.2558
 1900TIP3   OH227114   0.226   5.264   2.277 -0.7041 -0.1263 -0.3572
 1900TIP3    H127115   0.162   5.329   2.306 -0.9984 -0.8111  0.5725
 1900TIP3    H227116   0.214   5.190   2.336 -0.9630 -1.3973 -1.9451
 1901TIP3   OH227117   1.083   5.572   2.222 -0.4643  0.2889  0.2580
 1901TIP3    H127118   1.045   5.550   2.308 -0.1194 -0.8786  0.1263
 1901TIP3    H227119   1.036   5.651   2.196 -1.3910  0.0253  1.0117
 1902TIP3   OH227120   5.200   0.800  13.943  0.1205 -0.0620  0.8721
 1902TIP3    H127121   5.128   0.760  13.894  0.9203 -0.4385 -0.0198
 1902TIP3    H227122   5.158   0.868  13.996 -0.7994  0.2078 -0.1627
 1903TIP3   OH227123   1.880   2.819   5.062  0.4133 -0.2467 -0.1723
 1903TIP3    H127124   1.819   2.759   5.104 -1.0248  1.0194 -0.3708
 1903TIP3    H227125   1.961   2.810   5.113  0.3056 -2.4200 -0.3020
 1904TIP3   OH227126   0.788   3.011  17.425 -0.3462 -0.0830 -0.6292
 1904TIP3    H127127   0.712   2.969  17.384 -0.6384 -0.6667  0.4630
 1904TIP3    H227128   0.753   3.088  17.469 -0.0829  0.3771 -1.2102
 1905TIP3   OH227129   6.513   5.545  16.888 -0.1483  0.4695 -0.8232
 1905TIP3    H127130   6.518   5.567  16.981  0.7621  0.0665 -0.7613
 1905TIP3    H227131   6.506   5.629  16.843  1.0309  0.7727 -0.4737
 1906TIP3   OH227132   5.617   2.226  11.709  0.1934 -0.3392  0.0284
 1906TIP3    H127133   5.618   2.319  11.735 -1.6405 -0.7169  1.7523
 1906TIP3    H227134   5.560   2.223  11.632  0.0063 -0.0563  0.1534
 1907TIP3   OH227135   2.957   1.017   1.214 -0.0340 -0.3528 -0.5583
 1907TIP3    H127136   2.973   1.111   1.221 -0.3902 -0.2880 -0.6313
 1907TIP3    H227137   3.045   0.979   1.206  0.0506  0.1071 -2.1375
 1908TIP3   OH227138   0.883   6.383   1.398  0.5831 -0.2426 -0.2888
 1908TIP3    H127139   0.789   6.396   1.391  0.8259  1.1849 -1.2475
 1908TIP3    H227140   0.898   6.296   1.360 -0.3013 -0.3552 -0.3933
 1909TIP3   OH227141   1.685   0.285   3.968  0.8241 -0.2134  0.0159
 1909TIP3    H127142   1.693   0.292   3.873 -0.6420 -0.5684 -0.1519
 1909TIP3    H227143   1.771   0.310   4.001  1.3129  0.0471 -1.3956
 1910TIP3   OH227144   5.760   6.701  16.046  0.1894 -0.3102  0.0031
 1910TIP3    H127145   5.773   6.607  16.056  1.7070  0.0228  1.9141
 1910TIP3    H227146   5.702   6.725  16.118 -0.6542  0.1409 -0.8184
 1911TIP3   OH227147   4.905   6.418   4.070  0.0812  0.3436  0.2284
 1911TIP3    H127148   4.917   6.502   4.115  0.1179  0.1275  0.6240
 1911TIP3    H227149   4.962   6.357   4.118  1.6611  0.5384 -1.3036
 1912TIP3   OH227150   5.582   3.217  13.191  0.2658  0.1411  0.5847
 1912TIP3    H127151   5.533   3.207  13.110  0.3716  1.4302  0.3405
 1912TIP3    H227152   5.566   3.136  13.239  0.8390 -0.9897 -1.0513
 1913TIP3   OH227153   4.909   2.409  13.037 -0.5641  0.4479  0.2655
 1913TIP3    H127154   4.990   2.455  13.058 -0.6076  0.3768  0.5856
 1913TIP3    H227155   4.894   2.351  13.112 -0.6611  0.1201 -0.0039
 1914TIP3   OH227156   1.350   3.846  12.742 -0.9102 -0.0186  0.1409
 1914TIP3    H127157   1.387   3.924  12.784 -0.6391  0.3288 -0.7098
 1914TIP3    H227158   1.409   3.775  12.767 -0.3268  0.3201 -0.2402
 1915TIP3   OH227159   3.916   0.019   1.154  0.2011  0.6362 -0.1842
 1915TIP3    H127160   3.888  -0.070   1.132  1.1749  0.3244 -0.2358
 1915TIP3    H227161   3.920   0.064   1.070 -0.3660  0.7474 -0.1498
 1916TIP3   OH227162   4.679   4.687   5.251  0.5755 -0.3712  0.1631
 1916TIP3    H127163   4.680   4.598   5.286  2.7048  0.0719  1.4321
 1916TIP3    H227164   4.654   4.742   5.325  0.4777  0.2043 -0.2856
 1917TIP3   OH227165   0.821   1.445   0.114 -0.5266  0.0104  0.2128
 1917TIP3    H127166   0.888   1.381   0.093 -1.1447 -0.3437 -0.7650
 1917TIP3    H227167   0.854   1.491   0.191  0.1014 -1.2179  0.6983
 1918TIP3   OH227168   4.833   0.748   6.107  0.6493 -0.1285  0.5612
 1918TIP3    H127169   4.800   0.833   6.078  2.0008  1.2860  2.8294
 1918TIP3    H227170   4.801   0.686   6.041 -1.9137  1.8375 -0.2315
 1919TIP3   OH227171   0.890   5.800   1.676 -0.2824 -0.0879  0.2590
 1919TIP3    H127172   0.900   5.859   1.751  0.7057 -0.2966  0.3083
 1919TIP3    H227173   0.897   5.712   1.714 -3.3674 -0.3776  0.4504
 1920TIP3   OH227174   0.912   0.332  14.549 -0.0295 -0.0860 -0.0646
 1920TIP3    H127175   0.964   0.262  14.509 -2.7675 -0.7890 -2.7080
 1920TIP3    H227176   0.923   0.407  14.491 -0.3334  0.3909  0.4847
 1921TIP3   OH227177   1.809   3.534   4.192 -0.2782  0.7265 -0.0831
 1921TIP3    H127178   1.837   3.486   4.114  0.5659  0.6431  0.2537
 1921TIP3    H227179   1.727   3.493   4.218 -0.0714  0.1197 -0.3721
 1922TIP3   OH227180   4.725   2.573  12.293 -0.0652 -0.1939  0.4882
 1922TIP3    H127181   4.630   2.572  12.291 -0.0785  0.9111  0.3172
 1922TIP3    H227182   4.747   2.634  12.364  0.4908  1.5815 -1.1262
 1923TIP3   OH227183   5.126   5.721  16.936  1.2201 -0.0674 -0.2542
 1923TIP3    H127184   5.173   5.710  16.853 -0.7561 -1.1194 -1.2872
 1923TIP3    H227185   5.166   5.658  16.995  2.4591  0.4952 -0.4553
 1924TIP3   OH227186   6.096   2.437   6.829  0.4179 -0.3171 -0.3308
 1924TIP3    H127187   6.028   2.460   6.892 -0.5881  0.0321 -1.5120
 1924TIP3    H227188   6.070   2.351   6.796  0.0805  0.1829 -1.3973
 1925TIP3   OH227189   3.061   5.777  13.957  0.2361 -0.0147  0.1415
 1925TIP3    H127190   3.073   5.850  13.896 -0.9086  0.0804  0.0058
 1925TIP3    H227191   3.131   5.787  14.022  0.2827  1.0147 -0.0603
 1926TIP3   OH227192   0.358   6.236  12.778 -0.0946 -0.3394  0.7575
 1926TIP3    H127193   0.400   6.273  12.855 -0.8423  0.1026  0.9660
 1926TIP3    H227194   0.291   6.178  12.814 -1.2150  0.7416  0.4698
 1927TIP3   OH227195   6.364   0.891   2.728 -0.3718 -1.0293  0.5245
 1927TIP3    H127196   6.282   0.942   2.727  0.4464  0.3332 -0.0010
 1927TIP3    H227197   6.387   0.881   2.636 -0.0500 -1.5783  0.6661
 1928TIP3   OH227198   1.185   6.629   4.875  0.0259  0.0432  0.5021
 1928TIP3    H127199   1.253   6.588   4.821  0.5703 -0.2355  1.3756
 1928TIP3    H227200   1.232   6.662   4.952 -0.7944  0.0654  1.0064
 1929TIP3   OH227201   5.912   0.110  13.863  0.0296  0.3917 -0.0997
 1929TIP3    H127202   5.865   0.165  13.925  0.7021  1.6313 -0.6386
 1929TIP3    H227203   5.847   0.086  13.798 -0.4410 -0.0697  0.5280
 1930TIP3   OH227204   4.107   3.384   4.294 -0.1021 -0.0709  0.0263
 1930TIP3    H127205   4.143   3.461   4.249  0.6652 -0.0773  0.6088
 1930TIP3    H227206   4.158   3.310   4.260 -0.4250 -0.2450 -0.0810
 1931TIP3   OH227207   2.132   5.704  12.723  0.0260  0.7055  0.1707
 1931TIP3    H127208   2.076   5.740  12.792  0.2780  0.0264  0.7449
 1931TIP3    H227209   2.073   5.652  12.668  0.1029 -0.1773  0.8913
 1932TIP3   OH227210   1.826   2.040  11.089 -0.4460  0.1603  0.2516
 1932TIP3    H127211   1.893   2.101  11.057  0.8191 -1.0859  0.4022
 1932TIP3    H227212   1.797   1.993  11.012  1.6866 -1.9573  0.6143
 1933TIP3   OH227213   2.328   3.529   4.108 -0.1070 -0.5014  0.2695
 1933TIP3    H127214   2.259   3.578   4.064  1.8367  2.5491  0.2802
 1933TIP3    H227215   2.395   3.517   4.041  0.1668 -1.7380  0.7383
 1934TIP3   OH227216   1.551   5.433  12.938 -0.3970 -0.5337 -0.0807
 1934TIP3    H127217   1.615   5.379  12.985 -0.5190  0.7011  1.6241
 1934TIP3    H227218   1.500   5.475  13.008 -1.0528  0.8730 -1.3538
 1935TIP3   OH227219   6.445   3.015   1.978  0.3882  0.4738 -0.1656
 1935TIP3    H127220   6.376   3.054   2.033  1.0151 -0.2700  1.1867
 1935TIP3    H227221   6.527   3.048   2.015  0.9314 -1.9021  0.9153
 1936TIP3   OH227222   0.056   4.660   3.297  0.5013  0.1194  0.4262
 1936TIP3    H127223   0.007   4.673   3.378 -0.3283  1.3960 -0.2544
 1936TIP3    H227224   0.107   4.580   3.312 -1.6278 -1.1501  1.2165
 1937TIP3   OH227225   6.027   1.418   6.484 -0.8135 -0.9692 -0.3482
 1937TIP3    H127226   6.046   1.383   6.571  0.2732 -1.5605 -0.7977
 1937TIP3    H227227   6.029   1.513   6.495 -0.0656 -1.0347  0.1597
 1938TIP3   OH227228   6.631   0.268   0.307  0.0108 -0.3354 -0.2167
 1938TIP3    H127229   6.609   0.317   0.228  0.3665 -1.9179 -1.3559
 1938TIP3    H227230   6.681   0.329   0.361  2.2554 -0.0561 -2.4808
 1939TIP3   OH227231   1.891   0.108   4.128  0.6220 -0.2650 -0.1683
 1939TIP3    H127232   1.879   0.203   4.131 -1.9942 -0.4387 -2.1754
 1939TIP3    H227233   1.840   0.075   4.201 -0.6357 -0.2128 -0.9841
 1940TIP3   OH227234   5.684   4.508  11.751 -0.1745  0.0129 -0.1438
 1940TIP3    H127235   5.598   4.469  11.739 -0.8069  1.6201 -1.1006
 1940TIP3    H227236   5.688   4.579  11.687  1.7640  0.1457  0.0509
 1941TIP3   OH227237   3.500   6.549  14.974  0.2353  0.1433  0.2801
 1941TIP3    H127238   3.490   6.570  14.881 -1.8140  1.5697  0.7585
 1941TIP3    H227239   3.438   6.478  14.989  0.5680 -0.0918  0.5662
 1942TIP3   OH227240   2.530   3.657   1.914 -0.2026  0.0060  0.3141
 1942TIP3    H127241   2.592   3.730   1.919  0.4288 -0.1935 -2.8653
 1942TIP3    H227242   2.564   3.601   1.844 -3.0655 -1.0198 -0.3857
 1943TIP3   OH227243   5.811   6.048   1.846 -0.0285  0.3571 -0.0163
 1943TIP3    H127244   5.835   6.107   1.775  0.3397  0.6948  0.3881
 1943TIP3    H227245   5.725   6.014   1.820  0.2791  0.1545 -0.8208
 1944TIP3   OH227246   3.282   0.740  14.135  0.2092  0.1754 -0.6154
 1944TIP3    H127247   3.346   0.679  14.172 -0.6037 -0.0483  0.4462
 1944TIP3    H227248   3.209   0.685  14.108  0.0582  0.5307 -0.9378
 1945TIP3   OH227249   0.347   5.136   0.983  0.5651 -0.1002  0.8285
 1945TIP3    H127250   0.290   5.210   0.961  1.4045  0.2762 -0.1546
 1945TIP3    H227251   0.287   5.067   1.013 -0.4164  0.2375 -0.3066
 1946TIP3   OH227252   5.853   4.341   5.630 -0.0793  0.0873  0.4170
 1946TIP3    H127253   5.827   4.424   5.669 -1.1706 -0.5596  1.1513
 1946TIP3    H227254   5.770   4.298   5.609  0.4106 -1.3782  1.3082
 1947TIP3   OH227255   5.164   0.084  11.203 -0.2367  0.0917  0.0456
 1947TIP3    H127256   5.141   0.099  11.295  1.5700  3.1374  0.1480
 1947TIP3    H227257   5.083   0.099  11.155 -0.7821  0.3771  1.0163
 1948TIP3   OH227258   5.169   3.864   6.013  0.0943 -0.7495  0.3976
 1948TIP3    H127259   5.097   3.831   5.959 -1.0544  1.2927  0.5931
 1948TIP3    H227260   5.176   3.957   5.991  2.2464 -0.7338  0.8909
 1949TIP3   OH227261   3.754   4.461  11.520 -0.2591 -0.1185  0.2155
 1949TIP3    H127262   3.723   4.400  11.586  2.3206 -0.4425  1.2412
 1949TIP3    H227263   3.764   4.409  11.440  1.0253 -0.8653  0.8374
 1950TIP3   OH227264   0.516   3.871  16.328 -0.5433 -0.1880 -0.2179
 1950TIP3    H127265   0.593   3.833  16.286 -0.8849  0.1268 -1.1413
 1950TIP3    H227266   0.504   3.955  16.284 -0.8385  0.2085  0.5987
 1951TIP3   OH227267   2.683   1.945   6.459  0.6284 -0.0062 -0.8252
 1951TIP3    H127268   2.596   1.906   6.470  1.2975 -1.3238  0.0418
 1951TIP3    H227269   2.672   2.036   6.488 -0.4212 -0.1809 -0.6263
 1952TIP3   OH227270   5.631   5.873   5.319  0.2695 -0.0655  0.5801
 1952TIP3    H127271   5.682   5.952   5.336  1.5227 -0.6553 -0.2603
 1952TIP3    H227272   5.697   5.806   5.299 -0.8178 -0.3356 -2.7473
 1953TIP3   OH227273   6.252   1.003  12.982  0.2142  0.1912  0.0908
 1953TIP3    H127274   6.215   1.076  13.031  1.1539 -0.1917  1.4588
 1953TIP3    H227275   6.311   0.961  13.045  1.6916 -0.1697 -1.4711
 1954TIP3   OH227276   5.216   0.810   0.943  0.0604 -0.2691 -0.4163
 1954TIP3    H127277   5.203   0.777   0.854  0.9696 -0.3711 -0.5190
 1954TIP3    H227278   5.159   0.755   0.997  0.2951 -0.9045 -0.8005
 1955TIP3   OH227279   3.126   6.586   5.831 -0.4237 -0.1840  0.1407
 1955TIP3    H127280   3.157   6.608   5.919 -2.9028 -0.0687  1.0483
 1955TIP3    H227281   3.096   6.668   5.793  0.1271 -0.3206 -0.6288
 1956TIP3   OH227282   0.651   3.275  14.818 -0.4507 -0.3143  0.0377
 1956TIP3    H127283   0.720   3.213  14.796  0.6183  0.9023 -0.1991
 1956TIP3    H227284   0.633   3.260  14.910 -1.0879 -1.7783 -0.3000
 1957TIP3   OH227285   3.863   5.519   5.171 -0.7146 -0.0033  0.2299
 1957TIP3    H127286   3.850   5.613   5.177  0.0722  0.4417 -3.1574
 1957TIP3    H227287   3.942   5.508   5.118 -1.6979 -2.5250 -0.9008
 1958TIP3   OH227288   1.541   2.898  11.119  0.4596 -0.2155 -0.2066
 1958TIP3    H127289   1.516   2.839  11.049 -0.1637 -0.6762  0.3883
 1958TIP3    H227290   1.597   2.963  11.077  0.6227 -0.8540 -0.9944
 1959TIP3   OH227291   3.744   3.656   2.693 -0.1323 -0.0183 -0.1504
 1959TIP3    H127292   3.807   3.644   2.622 -0.3635 -1.0347 -0.1912
 1959TIP3    H227293   3.665   3.690   2.650 -0.1563 -0.3017 -0.3292
 1960TIP3   OH227294   4.230   5.978  14.892 -1.0175 -0.0290  0.0721
 1960TIP3    H127295   4.268   5.916  14.831 -0.1274  0.8991 -0.3509
 1960TIP3    H227296   4.300   6.041  14.909 -1.6575  0.4536  1.0552
 1961TIP3   OH227297   1.981   0.383  12.050 -0.3992  0.0138 -0.0837
 1961TIP3    H127298   2.009   0.470  12.077 -0.0671 -0.8131  2.5231
 1961TIP3    H227299   2.060   0.343  12.012 -0.9176  1.2559 -2.7007
 1962TIP3   OH227300   3.605   4.881  12.490 -0.4827 -0.5041  0.0891
 1962TIP3    H127301   3.634   4.962  12.532 -1.5363  0.2414 -0.5734
 1962TIP3    H227302   3.514   4.871  12.517 -0.7686 -0.7370 -0.9136
 1963TIP3   OH227303   1.250   5.112   2.607 -0.1591  1.1562  0.2543
 1963TIP3    H127304   1.281   5.071   2.688 -0.5331  0.7404  0.1905
 1963TIP3    H227305   1.180   5.055   2.577  0.0747  1.2287 -0.4413
 1964TIP3   OH227306   5.934   4.356  12.819 -0.4148  0.4139 -0.5233
 1964TIP3    H127307   5.928   4.393  12.732 -0.4113 -2.2702 -1.7669
 1964TIP3    H227308   6.023   4.323  12.826 -0.3940  0.6432  0.5334
 1965TIP3   OH227309   1.708   4.499  15.864 -0.0768 -0.3549 -0.5170
 1965TIP3    H127310   1.720   4.585  15.824 -0.6654 -0.1647 -0.3013
 1965TIP3    H227311   1.621   4.504  15.904  0.0661 -0.9040 -0.1339
 1966TIP3   OH227312   4.438   3.670   4.247  0.1136 -0.0101  0.2222
 1966TIP3    H127313   4.494   3.617   4.304  0.1573  0.2885  0.4651
 1966TIP3    H227314   4.498   3.711   4.185 -0.1890 -2.4209 -1.8050
 1967TIP3   OH227315   3.121   3.227  13.993  0.3029 -0.1414 -0.5201
 1967TIP3    H127316   3.086   3.230  14.082  0.0060 -2.4890 -0.5030
 1967TIP3    H227317   3.183   3.301  13.990 -0.6198  0.7771  1.1868
 1968TIP3   OH227318   0.846   3.867  12.929  0.2890  0.0106 -0.2882
 1968TIP3    H127319   0.921   3.835  12.878  0.5887  1.8111 -1.0536
 1968TIP3    H227320   0.802   3.929  12.870 -2.6389 -1.9804 -0.3890
 1969TIP3   OH227321   3.474   0.403  15.428 -0.0324 -0.0141 -0.2674
 1969TIP3    H127322   3.552   0.451  15.455 -0.0452  0.3656 -0.8836
 1969TIP3    H227323   3.501   0.312  15.423  0.6770  0.2522 -1.5615
 1970TIP3   OH227324   2.819   6.730  12.303  0.1909  0.1531  0.7191
 1970TIP3    H127325   2.829   6.635  12.299  0.9850  0.1968  1.4862
 1970TIP3    H227326   2.726   6.744  12.285 -0.0931 -0.8274  1.2926
 1971TIP3   OH227327   0.023   5.564   1.013  0.2798  0.1466  0.2943
 1971TIP3    H127328  -0.069   5.539   1.009  0.7006 -1.2970 -1.3921
 1971TIP3    H227329   0.061   5.502   1.075  0.3455  0.0060  0.1110
 1972TIP3   OH227330   0.982   2.495   2.087  0.0930  0.2461 -0.2996
 1972TIP3    H127331   0.906   2.553   2.093 -0.0738 -0.1058  1.4366
 1972TIP3    H227332   1.058   2.554   2.089 -0.0773  0.6587 -2.8158
 1973TIP3   OH227333   3.922   1.575  15.919  0.2776  0.0020 -0.3682
 1973TIP3    H127334   3.984   1.507  15.946 -0.8197 -1.1083 -0.5440
 1973TIP3    H227335   3.840   1.528  15.906 -0.3516  1.2769 -1.1382
 1974TIP3   OH227336   5.028   0.545  16.355  0.3352  0.3893  0.1116
 1974TIP3    H127337   5.081   0.518  16.279  0.1745  0.1756  0.0730
 1974TIP3    H227338   4.969   0.471  16.370  0.0339  0.6320  0.1412
 1975TIP3   OH227339   0.901   4.729   0.489 -0.4238  0.0868 -0.6022
 1975TIP3    H127340   0.982   4.725   0.539  0.1112  0.5380 -1.4192
 1975TIP3    H227341   0.921   4.685   0.407 -0.2981  2.1678 -1.7481
 1976TIP3   OH227342   1.808   4.062   1.629  0.1950 -0.2561  0.7707
 1976TIP3    H127343   1.899   4.057   1.600 -0.5755 -2.5491 -1.6399
 1976TIP3    H227344   1.810   4.032   1.720  1.8596 -0.1098  0.8089
 1977TIP3   OH227345   0.978   0.552  14.324  0.7171  0.6301  0.0292
 1977TIP3    H127346   1.056   0.509  14.358  0.3551 -0.8932 -0.9566
 1977TIP3    H227347   1.011   0.624  14.270  1.5056 -0.4758 -1.0132
 1978TIP3   OH227348   2.367   4.326  16.586  0.8586 -0.6435  0.5612
 1978TIP3    H127349   2.365   4.274  16.666  0.9089  1.4082  1.9432
 1978TIP3    H227350   2.284   4.373  16.584  0.5876 -1.1129 -0.9407
 1979TIP3   OH227351   5.320   4.749   5.210  0.1741 -0.7533  0.1451
 1979TIP3    H127352   5.348   4.660   5.230  0.5863 -0.3955  1.2032
 1979TIP3    H227353   5.252   4.769   5.275  0.7482  0.0360  0.5228
 1980TIP3   OH227354   3.554   2.335   0.947 -0.5001 -0.4741 -0.4864
 1980TIP3    H127355   3.477   2.389   0.964  1.0424  1.3328  1.3138
 1980TIP3    H227356   3.556   2.274   1.021  0.0849 -0.1192 -0.2005
 1981TIP3   OH227357   5.713   0.419   1.487 -0.3217  0.5069  0.3255
 1981TIP3    H127358   5.737   0.485   1.422 -1.0646  0.8199  0.3563
 1981TIP3    H227359   5.743   0.337   1.449 -1.4125  0.5868 -0.7873
 1982TIP3   OH227360   0.692   2.526  12.774 -0.6820  0.1825 -0.2059
 1982TIP3    H127361   0.691   2.572  12.691  1.0012 -1.8701 -1.4469
 1982TIP3    H227362   0.675   2.435  12.751 -3.0874 -0.0732  2.0613
 1983TIP3   OH227363   3.680   0.865  14.634  0.1513  0.4526 -0.5577
 1983TIP3    H127364   3.615   0.871  14.705 -1.2310  1.9357 -1.8569
 1983TIP3    H227365   3.646   0.796  14.577  0.6613  0.0375 -0.3656
 1984TIP3   OH227366   4.096   0.225  14.017  0.1293 -0.0306 -0.3724
 1984TIP3    H127367   4.111   0.197  14.107  2.1734  0.8516 -0.3859
 1984TIP3    H227368   4.068   0.316  14.025  0.6105  0.1415 -0.6351
 1985TIP3   OH227369   2.894   4.733  15.081 -0.2516  0.0563 -0.3380
 1985TIP3    H127370   2.850   4.706  15.000 -1.0099 -2.0405  0.6928
 1985TIP3    H227371   2.972   4.678  15.085 -1.4368 -1.6440  1.4528
 1986TIP3   OH227372   0.129   6.646  11.602 -0.1349  0.2017  0.3520
 1986TIP3    H127373   0.202   6.646  11.664 -0.8031 -1.9011  1.2176
 1986TIP3    H227374   0.160   6.593  11.529  0.2331  1.7452 -0.6621
 1987TIP3   OH227375   2.813   2.368  15.260 -0.2550  0.1300 -0.1929
 1987TIP3    H127376   2.720   2.361  15.236 -0.4353  0.1274  0.4808
 1987TIP3    H227377   2.812   2.406  15.347  0.3268 -0.9991  0.3200
 1988TIP3   OH227378   5.677   3.382  14.358 -0.7438  0.0417  0.3371
 1988TIP3    H127379   5.724   3.381  14.275  0.5016  2.1543  0.9261
 1988TIP3    H227380   5.735   3.335  14.418  0.4317  2.0841  0.9092
 1989TIP3   OH227381   3.610   0.988   1.700 -0.1200  0.2087  0.4681
 1989TIP3    H127382   3.629   0.903   1.660 -0.1519  0.3377  0.1739
 1989TIP3    H227383   3.584   1.043   1.626 -0.8102  0.2727  0.7476
 1990TIP3   OH227384   2.435   4.260   6.094 -0.0489  0.3050 -0.2288
 1990TIP3    H127385   2.528   4.258   6.117 -0.2235  0.4368  0.5295
 1990TIP3    H227386   2.431   4.312   6.014  0.8955 -2.5537 -2.2449
 1991TIP3   OH227387   3.898   4.588   0.582  0.0615 -0.1761 -0.1546
 1991TIP3    H127388   3.944   4.672   0.589  1.3811 -0.4474 -3.6030
 1991TIP3    H227389   3.959   4.525   0.621  0.0776  0.1498  0.3682
 1992TIP3   OH227390   2.687   3.834   0.718  0.6182 -0.4046 -0.7972
 1992TIP3    H127391   2.780   3.814   0.728  1.0029  1.0687 -1.2599
 1992TIP3    H227392   2.684   3.914   0.666 -0.8368  0.7338  0.8888
 1993TIP3   OH227393   5.979   3.081   5.272 -0.0132  0.0207 -0.1292
 1993TIP3    H127394   6.010   3.124   5.352 -2.5898  0.6733  0.6162
 1993TIP3    H227395   6.023   3.127   5.201 -0.1946  1.6713  0.7938
 1994TIP3   OH227396   0.891   5.941   1.461 -0.5750  0.6505  0.6805
 1994TIP3    H127397   0.890   5.887   1.541  1.1480 -1.8980 -0.8955
 1994TIP3    H227398   0.945   6.016   1.484  1.0115 -0.6966  1.5658
 1995TIP3   OH227399   2.768   2.513  11.296 -0.5768 -0.1078 -0.1897
 1995TIP3    H127400   2.781   2.587  11.355 -0.9969 -0.9920  1.0539
 1995TIP3    H227401   2.837   2.523  11.230 -0.1310  0.9482  0.4037
 1996TIP3   OH227402   5.522   1.176  16.972  0.2165 -0.5913  0.0583
 1996TIP3    H127403   5.535   1.223  16.889 -0.2454  0.1424  0.3855
 1996TIP3    H227404   5.493   1.244  17.033 -1.9796 -1.5478  0.1802
 1997TIP3   OH227405   5.003   0.002   1.233 -0.3236  0.0498 -0.0292
 1997TIP3    H127406   5.055  -0.002   1.152  0.0734  1.0398  0.1648
 1997TIP3    H227407   5.037  -0.070   1.287 -0.1546 -0.2162 -0.4844
 1998TIP3   OH227408   0.510   6.408   0.889 -0.3618 -0.0980 -0.4405
 1998TIP3    H127409   0.572   6.416   0.962  0.3376 -0.5230 -0.9793
 1998TIP3    H227410   0.553   6.454   0.817 -1.3381  0.8931 -0.4226
 1999TIP3   OH227411   6.466   4.649  15.310  0.2245  0.5059 -0.6683
 1999TIP3    H127412   6.493   4.559  15.293 -0.2846  0.3846 -0.8366
 1999TIP3    H227413   6.517   4.702  15.249 -1.0855  0.1395 -2.1322
 2000TIP3   OH227414   4.039   4.833   2.720 -0.1305 -0.6471  0.9462
 2000TIP3    H127415   3.989   4.835   2.801 -1.4525  0.6815  0.1473
 2000TIP3    H227416   4.089   4.914   2.720  1.4632 -1.5715  1.3392
 2001TIP3   OH227417   6.411   3.172   2.903 -0.5833 -0.5787  0.6898
 2001TIP3    H127418   6.373   3.240   2.847  0.6584 -0.4655 -0.0541
 2001TIP3    H227419   6.343   3.105   2.909 -0.9059 -0.3883 -0.6099
 2002TIP3   OH227420   3.931   5.095  16.972  0.4736 -0.2800 -0.6323
 2002TIP3    H127421   3.882   5.044  17.036 -0.3594  1.3175  0.0778
 2002TIP3    H227422   4.022   5.084  16.997  0.1010  1.8373  2.1540
 2003TIP3   OH227423   5.459   3.556  16.245 -0.2468 -0.4719  0.5047
 2003TIP3    H127424   5.409   3.607  16.182  1.1435 -1.2475 -1.3048
 2003TIP3    H227425   5.506   3.622  16.298 -1.0782  0.1733  0.4486
 2004TIP3   OH227426   6.197   3.078  14.025 -0.1825  0.4971 -0.2009
 2004TIP3    H127427   6.214   3.170  14.008  0.6211  0.0779 -1.9108
 2004TIP3    H227428   6.276   3.047  14.070 -0.3349  0.5708  0.1221
 2005TIP3   OH227429   4.693   2.698  10.786  0.3333 -0.2665 -0.3650
 2005TIP3    H127430   4.680   2.767  10.720 -1.6337 -0.8562 -0.6518
 2005TIP3    H227431   4.710   2.619  10.735  2.3784 -0.0876 -0.0396
 2006TIP3   OH227432   1.350   5.696   2.443  0.7314 -1.0172 -0.4300
 2006TIP3    H127433   1.370   5.786   2.470 -1.6569 -0.6385  0.2961
 2006TIP3    H227434   1.401   5.642   2.503 -0.2698 -0.1406  1.2704
 2007TIP3   OH227435   3.819   3.178   5.963  0.1470  0.7023 -0.8320
 2007TIP3    H127436   3.870   3.243   6.010 -1.1039  0.8768  0.3267
 2007TIP3    H227437   3.740   3.224   5.935 -0.5152 -0.1694 -0.4526
 2008TIP3   OH227438   3.380   5.376   1.502  0.3138 -0.1290 -0.0248
 2008TIP3    H127439   3.470   5.404   1.484  0.3503  0.3181  0.8070
 2008TIP3    H227440   3.325   5.434   1.449  0.4396  0.8381  0.8721
 2009TIP3   OH227441   1.356   2.233   3.461  0.5293 -0.2507 -0.0587
 2009TIP3    H127442   1.435   2.273   3.498  1.2620 -2.3909  0.8798
 2009TIP3    H227443   1.341   2.281   3.380  1.3443  1.8166  0.9260
 2010TIP3   OH227444   0.275   0.799   2.698 -0.4905  0.1850  0.0277
 2010TIP3    H127445   0.345   0.794   2.634  0.3102  3.3559  0.4804
 2010TIP3    H227446   0.213   0.731   2.672  1.1287 -0.4803 -2.3778
 2011TIP3   OH227447   6.114   2.025  14.085 -0.0412 -0.2629 -0.2400
 2011TIP3    H127448   6.036   2.051  14.037  0.5543 -0.3938 -1.3100
 2011TIP3    H227449   6.169   1.981  14.020  2.1046  2.1325 -0.1966
 2012TIP3   OH227450   1.744   4.243  12.664  0.5351 -0.4227  0.0448
 2012TIP3    H127451   1.769   4.160  12.624  2.1629 -0.8485  1.8073
 2012TIP3    H227452   1.807   4.256  12.735 -0.6273  1.5636  0.8127
 2013TIP3   OH227453   1.470   0.726  13.158 -0.0049 -0.5332  0.3277
 2013TIP3    H127454   1.466   0.767  13.072 -0.7317  0.5037  0.8371
 2013TIP3    H227455   1.563   0.728  13.181 -0.0096  0.7518  0.2919
 2014TIP3   OH227456   5.603   5.844  15.679 -0.2654  0.3285 -0.6341
 2014TIP3    H127457   5.688   5.802  15.668  0.3722  1.6754 -1.1204
 2014TIP3    H227458   5.619   5.936  15.659 -1.3229  1.0738  1.5490
 2015TIP3   OH227459   4.286   0.338   3.345 -0.0889  0.7095 -0.4522
 2015TIP3    H127460   4.360   0.367   3.398 -0.6826 -0.3353  1.0560
 2015TIP3    H227461   4.298   0.243   3.338 -1.2686  0.5251 -0.1813
 2016TIP3   OH227462   5.597   2.131   1.097 -0.2648 -0.2934  0.2903
 2016TIP3    H127463   5.534   2.073   1.140 -1.3753  2.3757  2.6257
 2016TIP3    H227464   5.550   2.214   1.088  2.5432  1.5573  1.2541
 2017TIP3   OH227465   0.051   1.042  14.455 -0.1005 -0.0721  0.4642
 2017TIP3    H127466   0.128   1.072  14.503 -0.1044 -0.0399  0.4507
 2017TIP3    H227467   0.075   0.956  14.422  1.1761  1.2210 -2.3067
 2018TIP3   OH227468   4.415   4.685   4.678  0.1877 -0.2595  0.5939
 2018TIP3    H127469   4.480   4.712   4.744  2.3712  0.8625 -1.8571
 2018TIP3    H227470   4.434   4.740   4.602 -1.1429 -2.6040 -1.5673
 2019TIP3   OH227471   4.751   3.865  17.194  0.0694  0.0703  0.5870
 2019TIP3    H127472   4.735   3.772  17.205  0.3416  0.1843  2.1745
 2019TIP3    H227473   4.846   3.875  17.209 -0.0704  0.6734  1.1569
 2020TIP3   OH227474   5.029   2.870  17.275  0.1877  0.1304 -0.2552
 2020TIP3    H127475   5.086   2.835  17.344  0.3352  1.6501  0.4290
 2020TIP3    H227476   4.962   2.802  17.264  0.7525 -0.6076  0.6580
 2021TIP3   OH227477   2.682   4.297  11.389  0.1544 -0.3324 -0.1912
 2021TIP3    H127478   2.595   4.260  11.376  0.3284 -1.0711  0.6651
 2021TIP3    H227479   2.666   4.383  11.430 -0.2459  0.5791 -2.1734
 2022TIP3   OH227480   2.946   2.954   2.010 -0.3583 -0.2477 -0.1469
 2022TIP3    H127481   2.901   2.872   2.029  0.4099 -0.2854  1.7532
 2022TIP3    H227482   2.878   3.012   1.975 -1.7640 -0.5269  1.9697
 2023TIP3   OH227483   2.455   5.927   0.056  0.4429  0.0803 -0.4886
 2023TIP3    H127484   2.515   5.855   0.037  0.9996  0.5029 -0.3440
 2023TIP3    H227485   2.375   5.883   0.085  1.2352 -0.4857  0.9979
 2024TIP3   OH227486   2.133   5.991  10.949 -0.1203  0.3185  0.5065
 2024TIP3    H127487   2.142   5.896  10.943 -3.0736 -0.0999  0.9986
 2024TIP3    H227488   2.082   6.015  10.872  1.1629  1.6553  0.0316
 2025TIP3   OH227489   2.171   1.820   3.746 -0.5738 -0.1155 -0.0671
 2025TIP3    H127490   2.110   1.857   3.809 -0.7679  1.0021 -0.8962
 2025TIP3    H227491   2.195   1.893   3.689 -2.8036 -1.6357 -3.2743
 2026TIP3   OH227492   4.434   0.307  14.158  0.0018 -0.2457 -0.1729
 2026TIP3    H127493   4.476   0.245  14.099  1.6704  0.8243 -0.1630
 2026TIP3    H227494   4.416   0.384  14.104 -1.4640 -0.4636 -0.0340
 2027TIP3   OH227495   4.590   0.723   5.584 -0.2565 -0.3217  0.7888
 2027TIP3    H127496   4.583   0.663   5.659 -0.7750  0.1543  1.1276
 2027TIP3    H227497   4.630   0.802   5.620  1.6583 -0.9112  0.0650
 2028TIP3   OH227498   0.105   0.768   2.119  0.4130  0.5494  0.5633
 2028TIP3    H127499   0.182   0.752   2.064 -0.9773 -1.0948 -1.0483
 2028TIP3    H227500   0.110   0.701   2.187  0.3202  0.3141  0.3409
 2029TIP3   OH227501   6.627   4.704  13.287  0.3515 -0.2624  0.0739
 2029TIP3    H127502   6.699   4.708  13.224  0.3396  1.1080  0.1108
 2029TIP3    H227503   6.665   4.660  13.364  1.5200  1.3754  0.5019
 2030TIP3   OH227504   1.792   2.000  16.245  0.5853 -0.2098  0.3499
 2030TIP3    H127505   1.831   2.080  16.208 -1.3794  0.5529 -0.2346
 2030TIP3    H227506   1.782   2.019  16.338 -0.7290  0.6446  0.0600
 2031TIP3   OH227507   5.523   5.188  14.695  0.6642  0.0710 -0.2140
 2031TIP3    H127508   5.588   5.130  14.734  0.2690 -0.4454 -0.3064
 2031TIP3    H227509   5.531   5.173  14.601  1.1666  0.8266 -0.2905
 2032TIP3   OH227510   1.689   5.807  11.426  0.0790 -0.2704  0.3586
 2032TIP3    H127511   1.656   5.720  11.402  0.1327  0.1042 -1.2299
 2032TIP3    H227512   1.644   5.866  11.366  0.7839  0.6912  0.7581
 2033TIP3   OH227513   3.733   1.826  12.559 -0.1671 -0.2322 -0.3383
 2033TIP3    H127514   3.764   1.757  12.500  0.5184  1.8498 -2.5537
 2033TIP3    H227515   3.800   1.832  12.626 -0.2606 -1.7215 -0.0800
 2034TIP3   OH227516   1.311   0.281   2.813  0.0516  0.2522 -0.2896
 2034TIP3    H127517   1.242   0.327   2.765 -0.3004  0.3553  0.3087
 2034TIP3    H227518   1.322   0.198   2.765  0.1373  0.6145 -0.9058
 2035TIP3   OH227519   5.236   5.662  11.312  0.5294 -0.0245  0.6530
 2035TIP3    H127520   5.161   5.633  11.260  1.6283 -0.7741 -0.5522
 2035TIP3    H227521   5.304   5.681  11.248  1.8461 -0.7637  1.7945
 2036TIP3   OH227522   2.794   2.191  12.745 -0.1088  0.4443 -0.1148
 2036TIP3    H127523   2.810   2.111  12.795  2.4852  0.2638 -1.0657
 2036TIP3    H227524   2.699   2.196  12.736 -0.4499 -1.2661  1.9476
 2037TIP3   OH227525   4.243   2.331   1.707  0.3181 -0.6612  0.3357
 2037TIP3    H127526   4.234   2.397   1.776  0.8766  2.6014 -2.4421
 2037TIP3    H227527   4.326   2.287   1.727  0.4060  0.0865  1.7882
 2038TIP3   OH227528   4.950   2.217  13.296 -0.0520  0.0524  0.2045
 2038TIP3    H127529   4.956   2.121  13.299  0.7673  0.1250  2.2101
 2038TIP3    H227530   5.035   2.247  13.327 -0.1470  1.4698 -0.7934
 2039TIP3   OH227531   6.200   0.009  15.258 -0.0187  0.6257 -0.0284
 2039TIP3    H127532   6.268  -0.056  15.271 -0.8561  0.0660  1.8823
 2039TIP3    H227533   6.121  -0.031  15.295 -0.6664  2.5025  0.7384
 2040TIP3   OH227534   6.312   5.631  11.266 -0.2334  0.0896  0.1068
 2040TIP3    H127535   6.278   5.681  11.340  0.0978 -1.5313  1.4265
 2040TIP3    H227536   6.402   5.662  11.255 -0.1803  0.1282  0.6142
 2041TIP3   OH227537   6.377   4.936   6.242  0.5870 -0.1918 -0.0077
 2041TIP3    H127538   6.382   5.017   6.293  0.7639 -0.6126  0.6622
 2041TIP3    H227539   6.451   4.884   6.272  1.9211  0.3477 -2.1743
 2042TIP3   OH227540   6.384   5.727  15.180 -0.3819 -0.4731 -0.1899
 2042TIP3    H127541   6.403   5.664  15.111 -0.1419 -1.0550  0.3939
 2042TIP3    H227542   6.461   5.724  15.237 -0.9184 -0.6014  0.5380
 2043TIP3   OH227543   3.722   0.606   3.490  0.7100 -0.0993 -0.1199
 2043TIP3    H127544   3.742   0.531   3.545  1.7999  0.5114  0.3414
 2043TIP3    H227545   3.629   0.597   3.471  1.0479 -2.2325 -1.1012
 2044TIP3   OH227546   5.366   0.274  14.404  0.2261 -0.8962 -0.2017
 2044TIP3    H127547   5.279   0.235  14.407  0.2000 -0.8557 -0.4357
 2044TIP3    H227548   5.361   0.349  14.463  0.8090 -2.3079  1.7599
 2045TIP3   OH227549   2.028   0.712   4.299 -0.1930 -0.3819 -0.0842
 2045TIP3    H127550   1.976   0.780   4.258 -0.0218 -1.0924 -1.5541
 2045TIP3    H227551   2.052   0.747   4.385 -1.0791  0.9077 -0.3525
 2046TIP3   OH227552   5.021   3.945  14.134  0.4819 -0.4848  0.0423
 2046TIP3    H127553   4.942   3.953  14.081 -0.4364 -0.2983  1.3850
 2046TIP3    H227554   5.012   3.860  14.176  0.3406  0.0775  1.1880
 2047TIP3   OH227555   2.766   0.261  10.964  0.5550 -0.2921  0.2664
 2047TIP3    H127556   2.832   0.272  11.033  1.1171 -2.4270  0.1510
 2047TIP3    H227557   2.712   0.189  10.994 -1.7966  1.3798  0.3206
 2048TIP3   OH227558   0.378   2.446   3.283 -0.5850  0.2691  0.1086
 2048TIP3    H127559   0.464   2.404   3.279 -0.9910 -0.5663 -0.1004
 2048TIP3    H227560   0.396   2.537   3.307  0.4247  0.3422 -0.8795
 2049TIP3   OH227561   1.021   0.030  15.018 -0.0741 -0.2058  0.0417
 2049TIP3    H127562   0.928   0.039  15.039  0.4078  1.4865  1.7888
 2049TIP3    H227563   1.065   0.084  15.083  2.1125 -0.4816 -1.1193
 2050TIP3   OH227564   1.688   2.744   0.444  0.6384  0.5041  0.2027
 2050TIP3    H127565   1.640   2.811   0.493  0.4325  0.5830 -0.1008
 2050TIP3    H227566   1.676   2.769   0.352  1.3142  0.5584  0.1225
 2051TIP3   OH227567   2.082   1.620  14.216 -0.1428 -0.1045 -0.2535
 2051TIP3    H127568   2.047   1.658  14.135 -1.1929 -1.4314 -0.4487
 2051TIP3    H227569   2.011   1.631  14.280  0.8783  1.4511  0.7057
 2052TIP3   OH227570   2.712   5.208  16.826 -0.3306  0.0146  0.3700
 2052TIP3    H127571   2.800   5.240  16.812 -0.9116  2.3408  1.5203
 2052TIP3    H227572   2.720   5.147  16.900  0.2747  0.4526  0.6732
 2053TIP3   OH227573   1.945   0.332  12.707 -0.1945 -0.0093  0.2874
 2053TIP3    H127574   1.871   0.381  12.672 -0.2504 -1.0940 -1.2129
 2053TIP3    H227575   1.906   0.266  12.764 -0.4207 -0.6710 -0.6131
 2054TIP3   OH227576   1.153   1.241  12.607  0.0305  0.2197 -0.6631
 2054TIP3    H127577   1.072   1.288  12.629  0.9268  1.6296 -0.1810
 2054TIP3    H227578   1.137   1.151  12.634 -1.4109  0.4441 -0.6794
 2055TIP3   OH227579   0.251   1.104  13.796 -0.1352  0.3633 -0.0877
 2055TIP3    H127580   0.222   1.095  13.705 -1.0081  0.4256  0.1724
 2055TIP3    H227581   0.214   1.028  13.840 -1.4087  1.3574  0.6192
 2056TIP3   OH227582   4.069   1.230   2.816  0.0819  0.5865 -0.1416
 2056TIP3    H127583   4.087   1.197   2.904 -1.2886  0.9404  0.3026
 2056TIP3    H227584   4.085   1.155   2.759 -3.1625 -1.0345  0.8532
 2057TIP3   OH227585   5.951   3.466  12.631  0.0694  0.2037  0.1948
 2057TIP3    H127586   6.006   3.491  12.557 -2.5316  1.4789 -1.4518
 2057TIP3    H227587   5.943   3.545  12.684 -2.8155  1.1410 -1.4470
 2058TIP3   OH227588   4.794   2.313  16.362 -0.6909  0.1107 -0.7729
 2058TIP3    H127589   4.759   2.401  16.367 -0.1961  0.3320 -1.1118
 2058TIP3    H227590   4.725   2.257  16.398 -0.6267  0.7299  0.3512
 2059TIP3   OH227591   1.988   4.357  14.104 -0.1533  0.9942  0.5007
 2059TIP3    H127592   2.081   4.342  14.083 -0.6530 -1.3309 -0.3563
 2059TIP3    H227593   1.954   4.405  14.028  0.2288  1.3685  0.5622
 2060TIP3   OH227594   1.399   5.867  13.162  0.8588  0.2747  0.0034
 2060TIP3    H127595   1.477   5.895  13.113 -0.3107  1.1733 -1.4554
 2060TIP3    H227596   1.362   5.948  13.196  0.3738 -0.1000  0.3753
 2061TIP3   OH227597   6.293   2.213   2.520  0.0589 -0.3846 -0.0391
 2061TIP3    H127598   6.364   2.274   2.501 -1.2613  1.1820 -0.1669
 2061TIP3    H227599   6.242   2.209   2.439 -0.0888 -1.3744  0.0932
 2062TIP3   OH227600   1.225   0.528   4.399  0.3821 -0.2072  0.3417
 2062TIP3    H127601   1.227   0.478   4.480  1.0435  1.3334  1.3180
 2062TIP3    H227602   1.133   0.529   4.374  0.2324 -1.0752  0.8203
 2063TIP3   OH227603   6.632   6.666   2.685 -0.2991 -0.0811  0.2547
 2063TIP3    H127604   6.655   6.596   2.625  0.7117  0.8695 -0.5122
 2063TIP3    H227605   6.715   6.711   2.703 -0.6372 -0.1192  2.0944
 2064TIP3   OH227606   3.151   3.310  12.498 -0.4703 -0.3580 -0.6262
 2064TIP3    H127607   3.162   3.311  12.402 -1.9599 -3.3408 -0.9242
 2064TIP3    H227608   3.071   3.359  12.513  0.2830  0.9657 -0.7603
 2065TIP3   OH227609   0.951   6.445   1.050  0.1167 -0.6855  0.1733
 2065TIP3    H127610   0.934   6.476   0.961  0.7012  1.2596  0.6898
 2065TIP3    H227611   0.865   6.432   1.089 -0.1625  0.1029 -0.1591
 2066TIP3   OH227612   2.930   1.357  15.034 -0.4909  0.6843 -0.0568
 2066TIP3    H127613   2.909   1.263  15.026 -2.7939  1.1675 -0.5114
 2066TIP3    H227614   2.951   1.368  15.127 -0.8920 -0.1861  0.1570
 2067TIP3   OH227615   5.872   0.900  15.268 -0.2506 -0.5851  0.2113
 2067TIP3    H127616   5.822   0.834  15.315 -1.9834  0.8373  0.4836
 2067TIP3    H227617   5.892   0.967  15.334 -0.8180  0.3926 -0.5717
 2068TIP3   OH227618   5.884   0.311   2.644  0.1942 -0.6427  0.3247
 2068TIP3    H127619   5.815   0.262   2.689  0.4713 -0.1907  1.2673
 2068TIP3    H227620   5.842   0.393   2.618  0.4960 -0.1290  1.3899
 2069TIP3   OH227621   3.738   3.504  11.058 -0.0423 -0.6035  0.3453
 2069TIP3    H127622   3.753   3.597  11.070  0.7567 -0.7035  0.1636
 2069TIP3    H227623   3.649   3.498  11.022  0.4495  0.1816 -1.0445
 2070TIP3   OH227624   2.221   1.776  12.391  0.2352 -0.3696  0.1436
 2070TIP3    H127625   2.183   1.717  12.457  0.7429 -3.3275 -1.9708
 2070TIP3    H227626   2.152   1.787  12.326  0.4710  0.6757  0.0593
 2071TIP3   OH227627   0.835   6.700   1.372 -0.0674  0.1060  0.0003
 2071TIP3    H127628   0.808   6.687   1.463  1.0068 -0.8887  0.2003
 2071TIP3    H227629   0.850   6.612   1.338 -0.5543  0.4619 -1.1787
 2072TIP3   OH227630   4.503   3.800  16.474 -0.0778 -0.1607  0.2555
 2072TIP3    H127631   4.421   3.849  16.476 -0.4301 -0.7634  0.8274
 2072TIP3    H227632   4.518   3.783  16.381 -0.1329  0.7242  0.0809
 2073TIP3   OH227633   2.135   4.311   5.928  0.1420  0.0277 -0.2458
 2073TIP3    H127634   2.044   4.331   5.904  0.3276  0.4474 -0.6254
 2073TIP3    H227635   2.129   4.268   6.013 -0.3991  0.2307 -0.1788
 2074TIP3   OH227636   6.376   4.310   4.480 -0.0410  0.5331 -0.1263
 2074TIP3    H127637   6.350   4.400   4.498  1.8839  1.1187  0.0306
 2074TIP3    H227638   6.401   4.275   4.565  0.8985  0.4678 -0.4090
 2075TIP3   OH227639   3.534   3.377   3.449 -0.0919  0.3492 -0.0156
 2075TIP3    H127640   3.630   3.375   3.454  0.1284  1.4473 -2.2071
 2075TIP3    H227641   3.505   3.385   3.539  1.9433  1.1770  0.6275
 2076TIP3   OH227642   5.545   4.061  15.769  0.2408  0.2126 -0.5107
 2076TIP3    H127643   5.569   3.985  15.718  0.1238 -0.6022  0.6025
 2076TIP3    H227644   5.625   4.084  15.817 -0.1930 -0.3407  0.5208
 2077TIP3   OH227645   5.657   3.507  13.196 -0.8194  0.2400 -0.1020
 2077TIP3    H127646   5.654   3.594  13.156  0.1304  0.0808 -0.5471
 2077TIP3    H227647   5.576   3.465  13.167 -0.9931  0.7636 -0.3936
 2078TIP3   OH227648   4.066   3.912   2.897  0.1854  0.5203 -0.3569
 2078TIP3    H127649   4.099   3.997   2.925  3.1761 -1.0998  1.6845
 2078TIP3    H227650   4.119   3.849   2.946 -1.4649 -2.5496 -2.2040
 2079TIP3   OH227651   1.466   3.013  16.500  0.0271  0.3095  0.2152
 2079TIP3    H127652   1.517   2.941  16.464  0.1318 -0.5028  1.9224
 2079TIP3    H227653   1.481   3.085  16.439 -3.2533 -2.0393 -3.9559
 2080TIP3   OH227654   0.191   2.461   3.915 -0.3566  0.3210 -0.1323
 2080TIP3    H127655   0.096   2.463   3.914 -0.4058  1.5930  1.5974
 2080TIP3    H227656   0.218   2.520   3.845 -0.8672  0.6211 -0.0761
 2081TIP3   OH227657   5.795   1.257  17.015  0.2225 -0.0995 -0.3963
 2081TIP3    H127658   5.721   1.243  16.956 -0.4362 -1.4147  0.6910
 2081TIP3    H227659   5.866   1.286  16.958 -0.3421 -1.4822 -1.8525
 2082TIP3   OH227660   2.323   2.051   1.438 -0.4828  0.2133  0.0036
 2082TIP3    H127661   2.273   2.106   1.378  0.8596  1.5294  0.0008
 2082TIP3    H227662   2.370   2.114   1.494 -0.2451 -0.9625  1.1824
 2083TIP3   OH227663   0.578   0.814   2.053  0.3478 -0.1788 -0.5850
 2083TIP3    H127664   0.600   0.840   1.964 -0.0730 -1.6625 -1.1526
 2083TIP3    H227665   0.654   0.763   2.082 -0.1956 -1.0918 -0.7219
 2084TIP3   OH227666   1.540   0.900  12.932  0.3773 -0.1021 -0.0244
 2084TIP3    H127667   1.494   0.933  12.855  0.9684 -1.3333 -0.9389
 2084TIP3    H227668   1.632   0.912  12.912  0.5467 -0.7130  0.3483
 2085TIP3   OH227669   0.611   6.622  15.474 -0.2320  0.2276 -0.2202
 2085TIP3    H127670   0.638   6.712  15.454 -1.1869  0.8062  0.9134
 2085TIP3    H227671   0.616   6.617  15.570  0.2970 -1.1022 -0.3098
 2086TIP3   OH227672   2.047   4.469  12.127 -0.4696 -0.2667  0.3526
 2086TIP3    H127673   2.000   4.429  12.053 -0.4439 -0.6270  0.5268
 2086TIP3    H227674   2.013   4.423  12.204 -0.4768  0.0886  0.5620
 2087TIP3   OH227675   6.200   4.368   2.995 -0.2160 -0.3844 -0.6964
 2087TIP3    H127676   6.295   4.374   3.004  0.0885  0.4563 -3.4621
 2087TIP3    H227677   6.168   4.355   3.084  2.3700  0.7479  0.4928
 2088TIP3   OH227678   3.265   0.814  11.334  0.2749  0.2149  0.2470
 2088TIP3    H127679   3.261   0.787  11.426 -1.7668 -1.6016 -0.2872
 2088TIP3    H227680   3.216   0.896  11.331  1.7094  1.1326  0.9931
 2089TIP3   OH227681   3.227   4.291   0.343 -0.1596  0.7067 -0.0021
 2089TIP3    H127682   3.313   4.249   0.348  0.1092  1.2473 -0.0049
 2089TIP3    H227683   3.172   4.228   0.297  0.2780  0.4202 -0.1414
 2090TIP3   OH227684   6.606   5.216  12.344  0.1785  0.0359  0.0367
 2090TIP3    H127685   6.543   5.283  12.369  1.0910  1.5019 -1.4013
 2090TIP3    H227686   6.555   5.135  12.344 -1.5301  1.0511 -0.3611
 2091TIP3   OH227687   0.808   4.853  14.048 -0.6384 -0.5324  0.3017
 2091TIP3    H127688   0.728   4.820  14.089 -1.4686 -0.1005 -0.9036
 2091TIP3    H227689   0.779   4.928  13.996  0.5863 -0.2545 -0.0089
 2092TIP3   OH227690   5.823   0.651  10.767 -0.4318  0.0441 -0.6901
 2092TIP3    H127691   5.840   0.569  10.720 -2.5347 -0.8865  0.0629
 2092TIP3    H227692   5.900   0.662  10.823  0.0158 -1.2684 -1.0003
 2093TIP3   OH227693   5.856   1.101  11.056 -0.0954 -0.3678  0.4667
 2093TIP3    H127694   5.905   1.067  10.981  1.2465  0.5935  0.8772
 2093TIP3    H227695   5.764   1.087  11.032  0.1595  1.8317 -2.3627
 2094TIP3   OH227696   5.853   5.615  15.475 -0.5803  0.0273  0.7959
 2094TIP3    H127697   5.856   5.699  15.521  2.4081  1.1766 -1.1391
 2094TIP3    H227698   5.925   5.565  15.512 -0.9938 -0.8212  0.4695
 2095TIP3   OH227699   3.785   4.121   4.028  0.2963 -0.0502  0.4695
 2095TIP3    H127700   3.760   4.161   4.111  0.2469  0.1073  0.3794
 2095TIP3    H227701   3.839   4.188   3.985  1.5829 -0.6927  1.0179
 2096TIP3   OH227702   6.425   2.864   6.231  0.2768 -0.3242  0.0692
 2096TIP3    H127703   6.409   2.925   6.159 -1.0324 -0.4249  0.2399
 2096TIP3    H227704   6.439   2.920   6.307 -1.4546 -0.1969  0.3326
 2097TIP3   OH227705   6.140   6.314  17.173 -0.1526  0.1032  0.1255
 2097TIP3    H127706   6.222   6.364  17.173 -0.4873  0.6871  1.2853
 2097TIP3    H227707   6.166   6.225  17.149  0.6913  0.4667 -0.3645
 2098TIP3   OH227708   1.394   3.889  10.882 -0.3157  0.2091  0.6508
 2098TIP3    H127709   1.461   3.821  10.877  0.8100  1.1812  1.5308
 2098TIP3    H227710   1.312   3.842  10.893  0.3332 -1.0187  0.4265
 2099TIP3   OH227711   1.960   0.685  11.989  0.3897 -0.1496  0.4303
 2099TIP3    H127712   1.920   0.622  11.929 -1.3150  0.7726  0.5446
 2099TIP3    H227713   2.009   0.744  11.932 -1.4941  0.9251 -0.1581
 2100TIP3   OH227714   1.172   1.255   0.964 -0.2174  0.6065 -0.1361
 2100TIP3    H127715   1.182   1.160   0.962 -0.8770  0.5482 -1.0008
 2100TIP3    H227716   1.237   1.288   0.903 -0.0714  0.7054  0.0714
 2101TIP3   OH227717   0.760   0.203   2.528  0.4536  0.1377  0.2468
 2101TIP3    H127718   0.748   0.284   2.479  1.4032 -1.5962 -3.1197
 2101TIP3    H227719   0.833   0.221   2.587  0.4272  1.7840 -0.1685
 2102TIP3   OH227720   1.674   2.172  11.484  0.1572 -0.2302  0.5773
 2102TIP3    H127721   1.587   2.141  11.507 -0.2196  1.8123  2.2663
 2102TIP3    H227722   1.734   2.112  11.528 -0.4675 -0.2838  1.3695
 2103TIP3   OH227723   6.001   5.358   3.539 -0.6611  0.1871 -0.1748
 2103TIP3    H127724   5.905   5.348   3.544 -0.6057  0.1564  1.1518
 2103TIP3    H227725   6.031   5.280   3.493 -1.2068 -0.2179  0.1422
 2104TIP3   OH227726   3.340   3.037  14.507 -0.7570  0.0099 -0.3491
 2104TIP3    H127727   3.364   2.954  14.549  0.4187 -0.4140 -1.7338
 2104TIP3    H227728   3.366   3.024  14.415  0.4122  2.2762 -0.4014
 2105TIP3   OH227729   4.579   5.340  15.160  0.0424 -0.6571 -0.2784
 2105TIP3    H127730   4.671   5.367  15.161  0.3372 -1.4749 -1.6980
 2105TIP3    H227731   4.580   5.255  15.116 -1.5281 -0.0429 -1.6100
 2106TIP3   OH227732   6.109   3.927   3.725 -0.1811  0.4088 -0.0537
 2106TIP3    H127733   6.194   3.968   3.739  0.1002 -0.7740  2.1518
 2106TIP3    H227734   6.118   3.878   3.644  0.6946  1.5905 -0.6974
 2107TIP3   OH227735   2.637   5.281  15.237 -0.0400 -0.1744 -0.0763
 2107TIP3    H127736   2.695   5.234  15.297 -0.0158 -0.9940 -0.7196
 2107TIP3    H227737   2.601   5.212  15.181  0.8378  0.6767 -1.7594
 2108TIP3   OH227738   1.979   3.789  13.598 -0.4417  0.1657  0.7651
 2108TIP3    H127739   1.906   3.768  13.539  1.3666  1.8012 -2.3217
 2108TIP3    H227740   2.032   3.709  13.598 -1.8327 -0.8275  2.5603
 2109TIP3   OH227741   6.459   4.661  12.028 -0.1802  1.2416 -0.3261
 2109TIP3    H127742   6.432   4.582  12.076  1.9322  0.7287  0.1240
 2109TIP3    H227743   6.437   4.643  11.937  3.1881 -1.4453 -0.8358
 2110TIP3   OH227744   1.571   0.749   5.991  0.1611  0.0685  0.4604
 2110TIP3    H127745   1.538   0.827   6.036  1.1031 -0.6263  2.4311
 2110TIP3    H227746   1.606   0.693   6.060  1.4786 -1.1686 -1.1171
 2111TIP3   OH227747   3.155   0.317   1.761  0.3058 -0.3458 -0.6986
 2111TIP3    H127748   3.118   0.404   1.749  0.9600 -0.0866 -0.8261
 2111TIP3    H227749   3.086   0.258   1.729  0.3222  0.1670 -1.7108
 2112TIP3   OH227750   3.669   3.874   3.904  0.3105 -0.5805 -0.5220
 2112TIP3    H127751   3.689   3.944   3.967  0.2299 -1.6183  0.7070
 2112TIP3    H227752   3.646   3.920   3.824  1.4321  0.7766 -0.1124
 2113TIP3   OH227753   5.112   1.835  16.494  0.0781 -0.2568 -0.4358
 2113TIP3    H127754   5.160   1.916  16.479 -0.0659 -0.2165 -0.7000
 2113TIP3    H227755   5.140   1.805  16.580  0.2149  0.0161 -0.3861
 2114TIP3   OH227756   1.966   5.829  12.910  0.0516 -0.0227 -0.8315
 2114TIP3    H127757   1.897   5.888  12.880 -1.6350 -1.4384  0.0456
 2114TIP3    H227758   2.033   5.887  12.945 -1.7871  1.4235  0.5373
 2115TIP3   OH227759   1.967   6.612  11.675  0.3218 -0.2569 -0.0798
 2115TIP3    H127760   1.995   6.615  11.583 -2.1587 -0.0531 -0.9092
 2115TIP3    H227761   2.014   6.538  11.712 -1.3357 -2.7216 -2.5591
 2116TIP3   OH227762   1.561   4.563   6.694  0.0269 -0.0787 -0.3076
 2116TIP3    H127763   1.476   4.524   6.713 -1.3644  2.4117 -0.8832
 2116TIP3    H227764   1.612   4.551   6.774 -1.6768  0.3148  0.8944
 2117TIP3   OH227765   5.999   5.453  17.505 -0.5308 -0.2462 -0.3642
 2117TIP3    H127766   6.012   5.483  17.595 -1.2328  0.3126 -0.4394
 2117TIP3    H227767   6.076   5.400  17.486  0.2847  0.7529  0.0961
 2118TIP3   OH227768   5.304   3.124  16.917  0.1171  0.2147  0.4087
 2118TIP3    H127769   5.251   3.105  16.839  0.6912  0.5192 -0.0657
 2118TIP3    H227770   5.270   3.065  16.984  1.2299 -1.8814 -0.7659
 2119TIP3   OH227771   6.688   6.333  11.202 -0.0721  0.5046 -0.1661
 2119TIP3    H127772   6.677   6.333  11.107  1.1250 -1.0143 -0.3376
 2119TIP3    H227773   6.780   6.355  11.216 -0.2063  0.6031  0.6464
 2120TIP3   OH227774   6.171   2.308   3.761  0.0406 -0.6829 -0.1072
 2120TIP3    H127775   6.154   2.265   3.677  1.6235  0.4266 -1.0327
 2120TIP3    H227776   6.243   2.368   3.744 -1.4996  1.7645  1.3342
 2121TIP3   OH227777   6.328   6.655  13.410 -0.1169 -0.2974  0.1144
 2121TIP3    H127778   6.238   6.655  13.443 -0.3939 -2.5813 -0.4986
 2121TIP3    H227779   6.370   6.582  13.454  1.1725  0.1418 -0.3474
 2122TIP3   OH227780   4.095   6.690  11.646  0.2013  0.3823 -0.3304
 2122TIP3    H127781   4.089   6.729  11.733  1.3841  0.6345 -0.3483
 2122TIP3    H227782   4.038   6.613  11.650 -1.8983  1.8506 -0.1756
 2123TIP3   OH227783   2.466   5.625  13.133 -0.4511  0.1219 -0.0191
 2123TIP3    H127784   2.513   5.694  13.086 -0.2508  0.1403  0.2043
 2123TIP3    H227785   2.387   5.669  13.166 -0.8436 -0.0105 -0.7472
 2124TIP3   OH227786   0.637   1.448  15.541 -0.2770 -0.2350 -0.1634
 2124TIP3    H127787   0.665   1.357  15.530  1.5192  0.3049 -0.2444
 2124TIP3    H227788   0.631   1.482  15.452  0.2801  0.0879 -0.0756
 2125TIP3   OH227789   2.997   2.417   1.228  0.3195  0.1772 -0.1618
 2125TIP3    H127790   3.025   2.491   1.174 -0.4028  2.3391  2.1995
 2125TIP3    H227791   3.065   2.409   1.294  0.5376 -1.5238 -0.5632
 2126TIP3   OH227792   0.741   1.373   5.158  0.0362 -0.1870 -0.2917
 2126TIP3    H127793   0.667   1.401   5.104 -0.6895 -1.0987  0.2165
 2126TIP3    H227794   0.741   1.277   5.152  1.6136 -0.1884 -0.8611
 2127TIP3   OH227795   3.847   2.535   4.717  0.6970  0.2642 -0.2743
 2127TIP3    H127796   3.761   2.553   4.755  0.7542  0.2525 -0.1401
 2127TIP3    H227797   3.904   2.600   4.756  0.8511 -0.0427  0.0124
 2128TIP3   OH227798   6.718   2.860  15.012 -0.1515  0.2244  0.4548
 2128TIP3    H127799   6.687   2.775  15.045 -0.6654  0.3708  0.3545
 2128TIP3    H227800   6.705   2.920  15.085 -1.5067  0.5998 -0.0603
 2129TIP3   OH227801   4.536   6.433  16.093 -0.1104 -0.4508 -0.0019
 2129TIP3    H127802   4.484   6.359  16.123  1.9986 -2.0361  0.0320
 2129TIP3    H227803   4.616   6.393  16.059  1.3717  1.8476  0.5499
 2130TIP3   OH227804   3.564   4.577   5.847 -0.6493  0.2066  0.1874
 2130TIP3    H127805   3.619   4.653   5.866  2.4427 -1.2363 -2.0527
 2130TIP3    H227806   3.506   4.606   5.776 -1.1602  1.0626  0.9278
 2131TIP3   OH227807   5.909   2.363   2.771 -0.2432  0.3253 -0.5145
 2131TIP3    H127808   5.850   2.387   2.700 -0.8643  1.1057  0.2406
 2131TIP3    H227809   5.994   2.397   2.744 -0.3921  0.2531 -1.0741
 2132TIP3   OH227810   0.387   0.856  15.356  0.1035 -0.5018 -0.4757
 2132TIP3    H127811   0.433   0.773  15.358 -2.2247 -1.8594  1.0585
 2132TIP3    H227812   0.437   0.914  15.414  0.8954 -1.3137 -0.3392
 2133TIP3   OH227813   4.121   2.216  14.854  0.0660 -0.1350  0.3960
 2133TIP3    H127814   4.056   2.207  14.925 -1.3425 -0.0251 -0.8336
 2133TIP3    H227815   4.118   2.131  14.810  0.9750 -0.2163  0.4834
 2134TIP3   OH227816   1.560   6.316  16.864  0.7950 -0.9329  0.1622
 2134TIP3    H127817   1.539   6.297  16.772 -1.1404 -1.7010  0.7090
 2134TIP3    H227818   1.591   6.232  16.899 -0.3680 -1.1725  0.6699
 2135TIP3   OH227819   2.989   5.647   1.449  0.0984 -0.1482  0.2256
 2135TIP3    H127820   3.008   5.715   1.385  1.8861  0.5713  1.4545
 2135TIP3    H227821   2.917   5.683   1.502 -1.5353 -0.8337 -1.4022
 2136TIP3   OH227822   4.545   5.853   5.538  0.3884  0.2243  0.3573
 2136TIP3    H127823   4.635   5.884   5.545  0.0334  1.3384  0.2198
 2136TIP3    H227824   4.495   5.910   5.597 -0.3546  0.2021 -0.2341
 2137TIP3   OH227825   1.284   2.883  13.385 -0.1481 -0.0074 -0.0864
 2137TIP3    H127826   1.343   2.916  13.317  0.2806  0.2810  0.4222
 2137TIP3    H227827   1.300   2.788  13.387  0.0420  0.0225 -0.1903
 2138TIP3   OH227828   2.742   0.373   5.001  0.0855  0.1803  0.3432
 2138TIP3    H127829   2.807   0.305   4.985  0.8496  0.8381  0.5842
 2138TIP3    H227830   2.785   0.455   4.975 -1.6027  0.3834 -2.0933
 2139TIP3   OH227831   3.421   1.485  14.555  0.6187  0.5063  0.7064
 2139TIP3    H127832   3.402   1.403  14.600  1.1841  0.0127  0.0501
 2139TIP3    H227833   3.516   1.491  14.553  0.5877  0.8858  0.2152
 2140TIP3   OH227834   3.242   3.338   5.537  0.3692  0.1509  0.1509
 2140TIP3    H127835   3.266   3.425   5.569 -3.0334  1.2189  0.1812
 2140TIP3    H227836   3.278   3.334   5.448  0.7627  1.4613  0.2366
 2141TIP3   OH227837   4.390   2.817  16.580  0.3445 -0.4552 -0.1382
 2141TIP3    H127838   4.463   2.855  16.531  2.1260 -1.9179  1.2459
 2141TIP3    H227839   4.407   2.840  16.671 -2.4242  1.4536  0.0328
 2142TIP3   OH227840   2.874   3.866   2.243 -0.2675  0.0903 -0.3612
 2142TIP3    H127841   2.942   3.916   2.289 -1.0597  1.4474 -0.6160
 2142TIP3    H227842   2.923   3.818   2.175  0.5411  0.3519  0.0171
 2143TIP3   OH227843   5.183   1.624  16.684 -0.2109 -0.1778 -0.0762
 2143TIP3    H127844   5.112   1.561  16.671  0.4028 -1.0865  0.8513
 2143TIP3    H227845   5.223   1.599  16.766  0.6955  0.8260 -0.1833
 2144TIP3   OH227846   3.314   0.399  16.320  0.4343 -0.3879 -0.4608
 2144TIP3    H127847   3.399   0.358  16.335  0.4322 -0.6249 -1.0719
 2144TIP3    H227848   3.306   0.404  16.225 -0.3769 -0.6714 -0.4170
 2145TIP3   OH227849   3.091   0.715  16.243 -0.2223  0.2136  0.0158
 2145TIP3    H127850   3.029   0.788  16.235 -0.4570  0.0347  0.1704
 2145TIP3    H227851   3.037   0.642  16.272  0.1911  0.2594  0.9583
 2146TIP3   OH227852   0.753   4.742  11.618 -0.4909  0.2906 -0.1088
 2146TIP3    H127853   0.798   4.744  11.533  1.0185  0.0833  0.6362
 2146TIP3    H227854   0.792   4.815  11.666 -0.6723 -0.1373  0.7010
 2147TIP3   OH227855   4.597   5.144   5.184 -0.4726  0.0924  0.4034
 2147TIP3    H127856   4.537   5.091   5.235  0.1917  0.3296  1.4634
 2147TIP3    H227857   4.627   5.212   5.244  0.6829  0.1097 -0.1547
 2148TIP3   OH227858   6.134   5.127  16.829 -0.0598 -0.0063 -0.1513
 2148TIP3    H127859   6.173   5.040  16.836 -0.8205 -0.4275 -0.9405
 2148TIP3    H227860   6.203   5.181  16.790 -0.4553 -0.9445 -2.3562
 2149TIP3   OH227861   0.128   3.620  12.576  0.4389  0.7367  0.0596
 2149TIP3    H127862   0.144   3.583  12.489 -0.3084  0.0359  0.1997
 2149TIP3    H227863   0.034   3.610  12.589  0.4824  1.2023  0.7885
 2150TIP3   OH227864   6.309   0.816  12.768  0.0098 -0.0279 -0.6315
 2150TIP3    H127865   6.248   0.853  12.832 -0.6226 -2.8357  0.5179
 2150TIP3    H227866   6.395   0.823  12.811 -0.2349 -0.7295 -0.0203
 2151TIP3   OH227867   2.580   1.441  11.722  0.3216 -0.0326  0.1051
 2151TIP3    H127868   2.552   1.532  11.724  1.1857  0.2393  0.3913
 2151TIP3    H227869   2.520   1.398  11.661  0.9387  1.0943 -1.3527
 2152TIP3   OH227870   2.525   5.881  10.763  0.0862 -0.1795 -0.0514
 2152TIP3    H127871   2.489   5.828  10.833  0.5641  0.3707  0.6234
 2152TIP3    H227872   2.544   5.965  10.804  2.3742 -0.5231 -0.3158
 2153TIP3   OH227873   4.231   0.378  16.764 -0.0600  0.2244  0.1529
 2153TIP3    H127874   4.283   0.374  16.684  2.9410 -2.4089  1.9969
 2153TIP3    H227875   4.165   0.310  16.754  0.9091 -0.7534  0.2207
 2154TIP3   OH227876   2.878   4.440   0.651 -0.5091  0.5960 -0.0540
 2154TIP3    H127877   2.856   4.361   0.603 -0.5311  0.8590 -0.4768
 2154TIP3    H227878   2.820   4.508   0.617 -0.6061  0.7599  0.4200
 2155TIP3   OH227879   2.994   4.683   3.742 -0.1414 -0.4020 -0.0507
 2155TIP3    H127880   3.036   4.601   3.769 -0.7322 -0.8905 -0.5852
 2155TIP3    H227881   2.974   4.671   3.649 -1.9244 -0.4083  0.2963
 2156TIP3   OH227882   2.546   6.399   2.996  0.5209  0.1665 -0.0481
 2156TIP3    H127883   2.616   6.392   3.061 -0.0720  1.2680  0.7488
 2156TIP3    H227884   2.475   6.444   3.042  0.1559  1.1717 -1.5123
 2157TIP3   OH227885   4.866   1.576  11.196  0.1448  0.8424 -0.0645
 2157TIP3    H127886   4.788   1.545  11.241 -1.1833  0.2737 -2.5794
 2157TIP3    H227887   4.894   1.653  11.246 -1.7415  0.8057  1.1589
 2158TIP3   OH227888   5.887   2.058   4.347  0.2919  1.1447 -0.2160
 2158TIP3    H127889   5.829   2.126   4.311  0.0494  0.6015 -0.8729
 2158TIP3    H227890   5.846   1.976   4.322 -0.6916  0.6784  2.5754
 2159TIP3   OH227891   5.794   1.110  13.752  0.2256 -0.2061  0.9008
 2159TIP3    H127892   5.849   1.122  13.675 -0.0616 -0.3385  0.6732
 2159TIP3    H227893   5.855   1.111  13.826  1.1304 -4.3329  0.4743
 2160TIP3   OH227894   4.815   3.563   0.131 -0.6408 -0.4068  0.0171
 2160TIP3    H127895   4.817   3.553   0.035  0.1411 -1.8129  0.1581
 2160TIP3    H227896   4.902   3.536   0.160 -0.1790  1.9083  1.0010
 2161TIP3   OH227897   5.953   0.517  12.466  0.0435 -0.2320  0.1762
 2161TIP3    H127898   5.940   0.433  12.510 -0.0701 -0.5197 -0.3911
 2161TIP3    H227899   5.982   0.576  12.535  0.8727 -0.9290  0.4501
 2162TIP3   OH227900   3.268   2.082   1.509  0.1976  0.2570 -0.2052
 2162TIP3    H127901   3.347   2.133   1.523 -0.5266  1.1284  0.8075
 2162TIP3    H227902   3.273   2.011   1.573 -1.1670  1.9348  1.8653
 2163TIP3   OH227903   3.418   0.818  12.561 -0.1338  0.1478  0.4831
 2163TIP3    H127904   3.356   0.854  12.497  1.2839  0.1671 -0.9585
 2163TIP3    H227905   3.392   0.857  12.644 -1.3422  1.0575 -0.2758
 2164TIP3   OH227906   0.813   5.441  15.510 -0.5248 -0.4568 -0.5300
 2164TIP3    H127907   0.771   5.481  15.586  0.4441 -1.4776  0.5857
 2164TIP3    H227908   0.741   5.418  15.452 -1.2394  0.8678 -0.2089
 2165TIP3   OH227909   0.645   2.744   6.462  0.0496 -0.8867 -0.2859
 2165TIP3    H127910   0.708   2.814   6.479  0.0962 -0.7624 -0.9409
 2165TIP3    H227911   0.692   2.683   6.405 -0.3501 -0.8974 -0.6081
 2166TIP3   OH227912   0.168   6.226   0.023 -0.0081 -0.1435 -0.8016
 2166TIP3    H127913   0.258   6.225  -0.008  0.5204  0.9582  0.5827
 2166TIP3    H227914   0.149   6.135   0.046  1.0285 -0.2580 -0.3647
 2167TIP3   OH227915   6.030   2.689  12.621 -0.2571  0.1110  0.2699
 2167TIP3    H127916   5.975   2.704  12.544 -0.8091  1.2561  0.8764
 2167TIP3    H227917   6.119   2.704  12.590 -0.4138 -0.1515 -0.3187
 2168TIP3   OH227918   6.366   4.444   3.351 -0.0523  0.1040 -0.2947
 2168TIP3    H127919   6.376   4.471   3.442 -1.4934  2.1212 -0.6874
 2168TIP3    H227920   6.285   4.394   3.349  0.3383 -0.5485 -0.3799
 2169TIP3   OH227921   5.249   6.038  16.735  0.3520 -0.2781  0.1936
 2169TIP3    H127922   5.224   6.059  16.645 -1.7289  0.8895  0.9802
 2169TIP3    H227923   5.209   5.953  16.752 -0.7640  0.3019  0.5472
 2170TIP3   OH227924   0.836   0.258   3.253  0.3285 -0.0161  0.0651
 2170TIP3    H127925   0.929   0.238   3.263  0.4789  0.7478  0.3070
 2170TIP3    H227926   0.822   0.333   3.312 -0.5365 -0.4005  0.3534
 2171TIP3   OH227927   0.536   5.845  14.765 -0.2270 -0.2535 -0.1884
 2171TIP3    H127928   0.483   5.822  14.688 -0.4376 -2.1065  0.4498
 2171TIP3    H227929   0.472   5.871  14.831 -0.7133 -4.0378  1.1263
 2172TIP3   OH227930   2.550   1.634  15.043  0.7915 -0.2907  0.9844
 2172TIP3    H127931   2.501   1.702  15.090 -4.0278 -1.6764 -1.3524
 2172TIP3    H227932   2.554   1.667  14.953  0.9132 -1.8592  0.3955
 2173TIP3   OH227933   1.133   2.172  12.954 -0.3098 -0.6527  0.3234
 2173TIP3    H127934   1.194   2.159  12.882 -0.7668  0.9078 -0.3833
 2173TIP3    H227935   1.047   2.146  12.919 -0.6921  1.0055 -0.0544
 2174TIP3   OH227936   6.334   4.777  17.180  0.1342  0.7590 -0.0637
 2174TIP3    H127937   6.380   4.793  17.262  0.9759  0.0980 -0.4006
 2174TIP3    H227938   6.316   4.683  17.180 -1.2004  0.9863  0.0409
 2175TIP3   OH227939   2.102   3.744  17.008  0.3315  0.0854  0.3691
 2175TIP3    H127940   2.182   3.763  17.057 -0.0987  0.7330  0.8420
 2175TIP3    H227941   2.123   3.666  16.957  1.4739  0.6227 -0.0062
 2176TIP3   OH227942   0.719   2.610  17.343  0.6625  0.0569  0.2385
 2176TIP3    H127943   0.782   2.544  17.372 -1.7619 -1.8220  1.6176
 2176TIP3    H227944   0.633   2.572  17.362 -0.9214  2.9051 -0.5473
 2177TIP3   OH227945   3.571   0.723   1.416  0.5754 -0.2655  0.3465
 2177TIP3    H127946   3.511   0.791   1.444  0.5906 -0.2262  0.2832
 2177TIP3    H227947   3.615   0.695   1.497  1.6028  0.7943  0.1844
 2178TIP3   OH227948   5.959   0.377   5.641 -0.2023  0.4190 -0.1219
 2178TIP3    H127949   6.029   0.442   5.643 -1.6909  2.0669  1.8682
 2178TIP3    H227950   5.982   0.316   5.711  1.7759 -2.0341 -2.6708
 2179TIP3   OH227951   2.523   6.405  13.924  0.3549 -0.2025 -0.1619
 2179TIP3    H127952   2.614   6.402  13.892  0.2801 -1.3239 -0.3042
 2179TIP3    H227953   2.492   6.315  13.917 -1.0115  0.2929 -0.7774
 2180TIP3   OH227954   6.286   0.280   0.653 -0.1223  0.3403  0.2216
 2180TIP3    H127955   6.303   0.201   0.704  1.2104  0.1090 -0.5391
 2180TIP3    H227956   6.191   0.287   0.650 -0.2938 -1.8317 -0.6201
 2181TIP3   OH227957   5.984   1.203  14.561 -0.6496 -0.2440  0.2108
 2181TIP3    H127958   5.947   1.287  14.532 -0.4840 -0.2158  0.0738
 2181TIP3    H227959   6.029   1.223  14.643  0.6734  0.1257 -0.5755
 2182TIP3   OH227960   2.631   6.690   5.773  0.5778 -0.2124  0.0325
 2182TIP3    H127961   2.624   6.747   5.698 -2.7158 -0.0712  0.3099
 2182TIP3    H227962   2.662   6.747   5.844  2.1179  0.0122 -0.7762
 2183TIP3   OH227963   6.559   1.273  16.500  0.3558 -0.1773  0.4499
 2183TIP3    H127964   6.511   1.303  16.422  0.3391  0.1923  0.5985
 2183TIP3    H227965   6.567   1.178  16.488  0.5220 -0.0996 -0.0948
 2184TIP3   OH227966   3.426   4.858  14.053 -0.4733  0.2455 -0.0771
 2184TIP3    H127967   3.424   4.901  13.967 -1.0916 -2.0359 -1.2880
 2184TIP3    H227968   3.488   4.786  14.042 -2.9116 -2.0541  0.3322
 2185TIP3   OH227969   2.884   1.017  17.355  0.3786 -0.7038  0.0317
 2185TIP3    H127970   2.790   1.004  17.368  0.1030  2.4451  2.2875
 2185TIP3    H227971   2.925   0.946  17.404 -0.7884 -1.5284 -0.1359
 2186TIP3   OH227972   0.735   0.511   0.330 -0.1758 -0.1442 -0.3543
 2186TIP3    H127973   0.677   0.452   0.284 -1.1971  0.6124 -0.0847
 2186TIP3    H227974   0.683   0.544   0.404  1.2762 -1.0364  1.1400
 2187TIP3   OH227975   2.734   2.501   0.946  0.3429 -0.1105  0.5891
 2187TIP3    H127976   2.760   2.413   0.972 -0.5034 -0.1086  1.5009
 2187TIP3    H227977   2.716   2.495   0.853  2.8284 -0.2790  0.0467
 2188TIP3   OH227978   0.465   0.211  10.447  0.1012  0.3505  0.2022
 2188TIP3    H127979   0.428   0.270  10.513 -0.6515 -1.3445  1.3698
 2188TIP3    H227980   0.441   0.123  10.477  1.4682 -0.5893 -1.2920
 2189TIP3   OH227981   2.068   4.705  15.986  0.5739  0.3547  0.2364
 2189TIP3    H127982   2.107   4.713  15.898 -0.7742  0.0478 -0.4154
 2189TIP3    H227983   2.033   4.616  15.988  2.3763 -0.3806  1.8780
 2190TIP3   OH227984   1.562   0.591  17.407  0.2913 -0.2340 -0.3081
 2190TIP3    H127985   1.573   0.537  17.329  1.9097 -1.3248  0.6266
 2190TIP3    H227986   1.641   0.645  17.411 -0.0267  0.1997  0.2856
 2191TIP3   OH227987   6.018   2.767   4.586 -0.2163  0.8613 -0.4183
 2191TIP3    H127988   5.964   2.776   4.664  1.2289  0.1740  0.7123
 2191TIP3    H227989   6.088   2.831   4.597  1.6341 -1.1578  0.3423
 2192TIP3   OH227990   3.842   4.921   2.573 -0.1188 -0.3662 -0.7869
 2192TIP3    H127991   3.927   4.882   2.589 -0.8132 -1.8001 -0.4244
 2192TIP3    H227992   3.827   4.978   2.649  0.4814 -0.1397 -0.8329
 2193TIP3   OH227993   2.677   0.540   4.732  0.2142 -0.2017  0.0550
 2193TIP3    H127994   2.739   0.469   4.714  0.6176  0.1276  0.1278
 2193TIP3    H227995   2.679   0.550   4.827  0.2201 -0.0416  0.0386
 2194TIP3   OH227996   4.551   5.247  12.143 -0.6318  0.0620 -0.6781
 2194TIP3    H127997   4.574   5.155  12.158 -1.7801 -0.1328  0.0183
 2194TIP3    H227998   4.531   5.281  12.231 -1.1026  0.7230 -1.0314
 2195TIP3   OH227999   2.411   3.986   5.165  0.4625  0.1552  0.2005
 2195TIP3    H128000   2.420   4.026   5.252  1.6005  0.3349  0.0190
 2195TIP3    H228001   2.435   4.056   5.104 -0.5080  0.0863 -0.2877
 2196TIP3   OH228002   6.432   0.749   5.427  0.1343  0.1208 -0.4228
 2196TIP3    H128003   6.425   0.662   5.466 -1.2384  0.3419 -0.1017
 2196TIP3    H228004   6.368   0.801   5.475  0.7495  1.2420 -0.7912
 2197TIP3   OH228005   4.429   5.208   4.563 -0.1377 -0.2090  0.5449
 2197TIP3    H128006   4.496   5.142   4.579 -0.1928 -0.1600  0.9731
 2197TIP3    H228007   4.368   5.167   4.501  1.3516  0.4210 -1.4731
 2198TIP3   OH228008   4.491   2.645  17.004 -0.5086 -0.1011 -0.3898
 2198TIP3    H128009   4.515   2.554  16.989 -0.1721  0.2301 -2.0500
 2198TIP3    H228010   4.487   2.684  16.916 -3.1321  0.8777  0.0719
 2199TIP3   OH228011   0.258   6.733  16.538  0.3161 -0.1743 -0.2019
 2199TIP3    H128012   0.316   6.775  16.474  0.0622 -1.6513 -1.4461
 2199TIP3    H228013   0.310   6.729  16.618  1.1936  0.3310 -0.7310
 2200TIP3   OH228014   4.516   6.348  16.930 -0.5315 -0.4421  0.1590
 2200TIP3    H128015   4.535   6.265  16.973 -1.0157 -0.0964  1.0701
 2200TIP3    H228016   4.459   6.325  16.857  1.8481 -1.2864 -1.5733
 2201TIP3   OH228017   2.274   2.324  11.175  0.3075 -0.2285 -0.1832
 2201TIP3    H128018   2.346   2.387  11.177 -0.5982  0.8338 -0.0388
 2201TIP3    H228019   2.214   2.358  11.109 -0.7122 -0.3630  0.6537
 2202TIP3   OH228020   4.996   0.182   3.869 -0.3322 -0.6331  0.1836
 2202TIP3    H128021   5.052   0.172   3.792  3.1526  3.3920  1.7574
 2202TIP3    H228022   4.920   0.231   3.838  1.5306  1.8786 -0.6764
 2203TIP3   OH228023   1.679   3.966  11.470 -0.0308  0.6073  0.1578
 2203TIP3    H128024   1.768   3.937  11.493 -0.0039  0.3062 -0.3073
 2203TIP3    H228025   1.691   4.019  11.391 -0.4145 -0.6523 -0.7719
 2204TIP3   OH228026   4.924   2.777   1.972  0.2620  0.3336  0.0234
 2204TIP3    H128027   4.947   2.789   1.880  0.8320  0.3411  0.1637
 2204TIP3    H228028   4.978   2.704   2.002  0.7870  0.9471  0.5989
 2205TIP3   OH228029   3.785   5.207  14.310  0.2462 -0.2419  0.1856
 2205TIP3    H128030   3.781   5.277  14.245 -1.7669 -0.3170  0.1664
 2205TIP3    H228031   3.802   5.252  14.393 -1.7731  0.3900  0.2936
 2206TIP3   OH228032   2.317   4.618   0.345 -0.1468 -0.6345  0.6444
 2206TIP3    H128033   2.301   4.610   0.251 -0.0569  1.2978  0.4266
 2206TIP3    H228034   2.388   4.557   0.363  1.0299  0.2286 -0.8923
 2207TIP3   OH228035   0.859   5.956  15.405  0.5346  0.1244 -0.2439
 2207TIP3    H128036   0.897   5.998  15.482 -0.0069  1.0985 -0.4961
 2207TIP3    H228037   0.912   5.987  15.332  0.4017  0.0256 -0.3834
 2208TIP3   OH228038   2.776   0.313  15.796  0.1580 -0.4114 -0.2245
 2208TIP3    H128039   2.850   0.373  15.790 -0.4890  0.8351  2.7055
 2208TIP3    H228040   2.699   0.367  15.783 -0.3996 -0.6777  1.6682
 2209TIP3   OH228041   0.577   1.155   3.433  0.0361  0.2128 -0.0747
 2209TIP3    H128042   0.589   1.148   3.338  1.4556 -0.4694  0.1339
 2209TIP3    H228043   0.638   1.223   3.460  0.3828 -0.3109  0.4788
 2210TIP3   OH228044   3.997   0.696   1.548 -0.2266  0.2670  1.0288
 2210TIP3    H128045   4.018   0.668   1.637  3.1246 -1.7023 -0.2117
 2210TIP3    H228046   4.077   0.736   1.516 -0.8589 -0.3661 -1.5539
 2211TIP3   OH228047   6.003   3.130   5.535  0.0266  0.5779  0.0477
 2211TIP3    H128048   5.966   3.088   5.613 -0.6089  0.9136 -0.0684
 2211TIP3    H228049   6.057   3.201   5.569  2.1354 -1.0448  0.3209
 2212TIP3   OH228050   2.462   2.098   1.856 -0.0339  0.1015  0.4748
 2212TIP3    H128051   2.538   2.124   1.804  0.2832 -0.0772  0.8438
 2212TIP3    H228052   2.498   2.041   1.924 -0.7398 -1.5907 -0.5080
 2213TIP3   OH228053   6.062   5.884  15.377  0.2506  0.2189  0.3619
 2213TIP3    H128054   6.098   5.797  15.357 -0.7795 -0.0048 -0.6682
 2213TIP3    H228055   6.107   5.911  15.456  0.1833 -1.5182  1.0501
 2214TIP3   OH228056   2.158   4.283  15.820  0.0125  0.2192  0.1396
 2214TIP3    H128057   2.224   4.314  15.757  0.7045 -1.0231  0.2197
 2214TIP3    H228058   2.161   4.187  15.813 -1.6708  0.1285  0.2814
 2215TIP3   OH228059   6.565   3.350   2.590  0.0004  0.2183 -0.3729
 2215TIP3    H128060   6.626   3.286   2.553  0.9373  0.9508 -0.1322
 2215TIP3    H228061   6.482   3.302   2.600  0.1715 -0.4435 -1.8866
 2216TIP3   OH228062   5.719   1.982  15.261 -0.0552 -0.5470 -0.1212
 2216TIP3    H128063   5.663   1.937  15.199  0.6122 -0.5232 -0.7615
 2216TIP3    H228064   5.733   2.069  15.222  3.0895 -1.6181 -1.7285
 2217TIP3   OH228065   0.334   5.539  17.151 -0.2957  0.1169  0.5619
 2217TIP3    H128066   0.308   5.539  17.243  0.1014  1.0423  0.6879
 2217TIP3    H228067   0.358   5.448  17.133  1.5484  0.2653  1.9448
 2218TIP3   OH228068   2.838   0.879  13.817 -0.1965  0.5492  0.0230
 2218TIP3    H128069   2.928   0.849  13.821 -0.3313 -0.2990 -2.0774
 2218TIP3    H228070   2.787   0.807  13.854 -0.1117  0.5809  0.2063
 2219TIP3   OH228071   4.069   3.442   4.614 -0.2984 -0.2986  0.4814
 2219TIP3    H128072   4.080   3.409   4.525  1.3952  1.9256 -0.2014
 2219TIP3    H228073   3.979   3.474   4.617 -1.0453 -2.2066  0.2903
 2220TIP3   OH228074   1.234   3.644  15.111  0.1730 -0.1978 -0.0134
 2220TIP3    H128075   1.253   3.555  15.079  2.4931  1.4111 -3.7733
 2220TIP3    H228076   1.155   3.670  15.063  1.2723  0.7569 -1.3974
 2221TIP3   OH228077   3.976   5.276   6.082 -0.5960 -0.5191 -0.1496
 2221TIP3    H128078   3.948   5.364   6.057 -1.2768 -0.4031  0.9500
 2221TIP3    H228079   3.896   5.223   6.075 -0.6014 -0.6640  0.8961
 2222TIP3   OH228080   5.930   2.420  13.457  0.1665 -0.2953  0.7258
 2222TIP3    H128081   5.884   2.389  13.535  0.4248 -1.1719  0.5400
 2222TIP3    H228082   5.997   2.479  13.491 -1.1149  1.0554  0.9976
 2223TIP3   OH228083   3.161   3.900   3.969 -0.6349  0.0726 -0.0788
 2223TIP3    H128084   3.248   3.871   3.999 -0.8141  0.1050  0.4938
 2223TIP3    H228085   3.113   3.919   4.050 -0.5298  1.9798 -0.4190
 2224TIP3   OH228086   2.958   3.853  14.197  0.2993 -0.3083 -0.6125
 2224TIP3    H128087   2.902   3.858  14.275  0.9263  2.7538 -0.2499
 2224TIP3    H228088   3.034   3.803  14.226 -0.1956 -0.5715  0.2649
 2225TIP3   OH228089   1.703   3.220  13.874 -0.0457  0.3489 -0.6699
 2225TIP3    H128090   1.763   3.187  13.941  0.5148 -0.4525 -1.5348
 2225TIP3    H228091   1.738   3.306  13.850  0.3748  0.1671 -0.7064
 2226TIP3   OH228092   3.407   0.479  12.847  0.0017  0.1028 -0.6816
 2226TIP3    H128093   3.483   0.434  12.885 -0.0558  0.4206 -0.1873
 2226TIP3    H228094   3.379   0.540  12.915 -0.0402  0.7538 -1.2778
 2227TIP3   OH228095   1.989   1.306   4.071  0.4378  0.3369  0.3614
 2227TIP3    H128096   2.009   1.399   4.085  2.4917 -0.0292  0.1720
 2227TIP3    H228097   2.008   1.291   3.978  2.3340 -0.7276  0.8689
 2228TIP3   OH228098   0.965   5.845  13.891  0.2741 -0.2123 -0.2906
 2228TIP3    H128099   0.886   5.802  13.859 -0.2782  0.7417 -0.2249
 2228TIP3    H228100   1.010   5.876  13.812 -1.0049  1.9931 -0.2362
 2229TIP3   OH228101   5.736   2.083   3.301  0.0421  0.0426 -0.7668
 2229TIP3    H128102   5.659   2.070   3.245  0.3732  2.0978 -1.7800
 2229TIP3    H228103   5.765   2.172   3.282  1.0036  0.3301  1.7043
 2230TIP3   OH228104   6.038   6.558  16.150  0.2709 -0.1106  0.3394
 2230TIP3    H128105   5.959   6.519  16.112  0.7103  0.1244 -0.8359
 2230TIP3    H228106   6.011   6.585  16.238 -0.6709 -0.9594  0.3258
 2231TIP3   OH228107   2.685   0.142   5.571 -0.6303 -0.5163 -0.0675
 2231TIP3    H128108   2.605   0.173   5.528 -0.4090 -0.0239 -0.1347
 2231TIP3    H228109   2.752   0.148   5.502 -0.4035 -0.3064  0.1704
 2232TIP3   OH228110   0.311   1.902  14.718 -0.7169 -0.3028  0.0704
 2232TIP3    H128111   0.226   1.858  14.710 -0.1779 -1.2452 -0.6486
 2232TIP3    H228112   0.351   1.894  14.631  0.1397  0.0578  0.4162
 2233TIP3   OH228113   5.960   2.558  16.066 -0.1353  0.1691 -0.1060
 2233TIP3    H128114   5.997   2.485  16.115  1.8263  0.1045 -1.5751
 2233TIP3    H228115   5.900   2.518  16.004  1.9412 -0.4334 -1.8361
 2234TIP3   OH228116   0.013   4.080   3.376 -0.0173 -0.3672  0.0334
 2234TIP3    H128117   0.079   4.107   3.440 -1.9104 -0.9217  2.3708
 2234TIP3    H228118   0.033   3.989   3.356 -0.5460 -0.8144  1.4413
 2235TIP3   OH228119   1.992   5.673   0.194  0.2290 -0.3789  0.2904
 2235TIP3    H128120   1.945   5.703   0.116 -1.2002  1.7569  1.8372
 2235TIP3    H228121   1.942   5.598   0.225 -0.3144 -0.0825  0.1496
 2236TIP3   OH228122   1.808   5.153   0.334  0.0252  0.2142 -0.0483
 2236TIP3    H128123   1.761   5.071   0.345 -1.8094  1.0521 -1.2078
 2236TIP3    H228124   1.856   5.142   0.252  2.7077 -0.9629  1.5512
 2237TIP3   OH228125   4.610   2.816  11.387  0.4671  0.4501  0.1641
 2237TIP3    H128126   4.538   2.875  11.411  0.3586  0.4000 -0.0386
 2237TIP3    H228127   4.671   2.822  11.461 -0.0655 -0.0250  0.6561
 2238TIP3   OH228128   1.922   5.720   6.111  0.2710 -0.2744  0.0687
 2238TIP3    H128129   1.995   5.717   6.173  0.0990  0.3669  0.3111
 2238TIP3    H228130   1.903   5.813   6.102  1.0969 -0.2469 -1.8873
 2239TIP3   OH228131   5.564   1.116   4.431  0.2778  0.1284  0.7345
 2239TIP3    H128132   5.510   1.179   4.480 -0.6102 -0.3279  0.3676
 2239TIP3    H228133   5.638   1.099   4.488  1.0802  2.2653  0.4452
 2240TIP3   OH228134   3.706   3.977  16.066 -0.0617  0.2291  0.3847
 2240TIP3    H128135   3.741   4.010  16.149  0.0666  0.6525  0.1639
 2240TIP3    H228136   3.640   4.042  16.040  0.9497  0.8952 -0.5894
 2241TIP3   OH228137   4.185   0.490  14.534 -0.0446 -0.5986 -0.1798
 2241TIP3    H128138   4.108   0.447  14.572 -0.5194 -1.0441 -1.6007
 2241TIP3    H228139   4.253   0.422  14.534 -0.6314 -1.2411 -1.9060
 2242TIP3   OH228140   1.627   0.841   1.449 -0.1853  0.6381 -0.1384
 2242TIP3    H128141   1.571   0.823   1.373 -0.7216  0.4868  0.2843
 2242TIP3    H228142   1.715   0.817   1.420 -0.4197  0.3490 -0.6312
 2243TIP3   OH228143   5.422   2.067  14.938  0.2795 -0.2235 -0.1495
 2243TIP3    H128144   5.364   2.040  14.866  0.6304 -2.9065  0.4648
 2243TIP3    H228145   5.362   2.103  15.004 -0.4173 -0.7088 -0.4983
 2244TIP3   OH228146   0.436   5.038   3.428  0.3791 -0.2912 -0.0684
 2244TIP3    H128147   0.404   4.956   3.390 -0.5578  0.2345 -0.4424
 2244TIP3    H228148   0.357   5.083   3.458  1.0033 -0.1101  1.3520
 2245TIP3   OH228149   3.418   4.953  16.042 -0.0929 -0.0180 -0.2727
 2245TIP3    H128150   3.340   4.975  16.093  0.6632 -1.0674  1.4421
 2245TIP3    H228151   3.485   5.015  16.072  0.5044 -0.9780  0.4431
 2246TIP3   OH228152   6.347   5.176  13.357  0.3206  0.4442  0.0707
 2246TIP3    H128153   6.285   5.141  13.421  1.3359  0.0122  0.8454
 2246TIP3    H228154   6.293   5.203  13.283 -0.5661 -3.4314 -0.9178
 2247TIP3   OH228155   5.747   3.027  12.737  0.2318 -0.5985 -0.0892
 2247TIP3    H128156   5.751   3.119  12.712 -0.4649 -0.8217 -1.1129
 2247TIP3    H228157   5.823   3.013  12.794  0.9945  0.3334 -0.8548
 2248TIP3   OH228158   5.624   1.481   4.129 -0.5623  0.6342 -0.2733
 2248TIP3    H128159   5.573   1.492   4.209  0.6104 -0.2542  0.6449
 2248TIP3    H228160   5.562   1.444   4.066 -1.6462  1.8665  0.0176
 2249TIP3   OH228161   1.740   6.543   2.759  0.1107 -0.0863  0.4306
 2249TIP3    H128162   1.813   6.535   2.820 -0.3176  2.8563  1.4878
 2249TIP3    H228163   1.677   6.600   2.804 -0.2018  2.3454 -2.7074
 2250TIP3   OH228164   0.566   6.563  11.533  0.0872 -0.4994  0.2520
 2250TIP3    H128165   0.586   6.625  11.603  1.8661 -0.2738 -0.4053
 2250TIP3    H228166   0.526   6.488  11.577  0.0925  0.1237  1.3433
 2251TIP3   OH228167   1.454   5.020  11.835  0.2169 -0.1835  0.4226
 2251TIP3    H128168   1.372   5.026  11.885  0.1080 -1.8831  0.5071
 2251TIP3    H228169   1.503   4.950  11.879  0.9796 -0.3445 -0.6555
 2252TIP3   OH228170   1.825   6.238   3.660 -0.5272 -0.1149  0.0689
 2252TIP3    H128171   1.737   6.275   3.673  0.1073  1.4433  0.2267
 2252TIP3    H228172   1.813   6.144   3.669 -1.8402  0.1734  2.3338
 2253TIP3   OH228173   4.460   3.287  11.971 -0.3505 -0.0943 -0.2326
 2253TIP3    H128174   4.402   3.328  12.035 -1.1762  0.6229 -1.4239
 2253TIP3    H228175   4.404   3.228  11.922  0.5099 -1.5187  0.4094
 2254TIP3   OH228176   3.116   6.469  16.313  0.0699 -0.2022  0.0593
 2254TIP3    H128177   3.130   6.387  16.265 -0.7243 -0.7473  0.7282
 2254TIP3    H228178   3.079   6.529  16.248 -2.4565 -1.3959  0.2511
 2255TIP3   OH228179   2.515   0.945  14.718  0.2041 -0.6415  0.6758
 2255TIP3    H128180   2.546   1.032  14.742 -0.6112 -0.4138  0.9496
 2255TIP3    H228181   2.564   0.923  14.639  0.1759  0.2101  0.4082
 2256TIP3   OH228182   0.537   1.464  11.663 -0.3751 -0.6546 -0.6160
 2256TIP3    H128183   0.509   1.436  11.576 -1.6451 -1.5720  0.0463
 2256TIP3    H228184   0.459   1.507  11.700  0.7829  1.6752 -0.6942
 2257TIP3   OH228185   0.507   1.815  12.685  0.3242 -0.1391  0.5150
 2257TIP3    H128186   0.442   1.757  12.725 -0.8040  1.7952  1.6641
 2257TIP3    H228187   0.455   1.881  12.640  1.5325  0.6976  0.3067
 2258TIP3   OH228188   2.866   4.745  12.847 -0.3602 -0.0716 -0.8401
 2258TIP3    H128189   2.901   4.795  12.921  0.7210 -3.1279  0.8974
 2258TIP3    H228190   2.775   4.729  12.870 -0.5133  0.4602 -1.0583
 2259TIP3   OH228191   2.459   1.939  14.011 -0.1526 -0.6479 -0.1369
 2259TIP3    H128192   2.470   1.903  14.099 -1.4490 -0.5357  0.0902
 2259TIP3    H228193   2.365   1.951  14.002 -0.0221 -0.4986 -1.4843
 2260TIP3   OH228194   2.274   3.685  17.295  0.3041 -0.1030  0.8157
 2260TIP3    H128195   2.348   3.624  17.288 -0.9699 -1.7236  0.8347
 2260TIP3    H228196   2.284   3.724  17.382  2.7743  2.0322 -0.2854
 2261TIP3   OH228197   3.047   0.602  14.693  0.3298  0.3825  0.5084
 2261TIP3    H128198   3.059   0.680  14.748 -0.8562 -0.6256  2.2895
 2261TIP3    H228199   3.028   0.637  14.606  0.7339  2.0674  1.0583
 2262TIP3   OH228200   6.535   3.658  15.855 -0.0245  0.3585 -0.4344
 2262TIP3    H128201   6.463   3.626  15.909 -0.0368  0.8958 -0.1241
 2262TIP3    H228202   6.606   3.595  15.868 -0.1131  0.3484  0.0106
 2263TIP3   OH228203   4.256   3.245  16.769  0.1740 -0.1822  0.2279
 2263TIP3    H128204   4.188   3.177  16.776  1.4654 -1.4411  1.2764
 2263TIP3    H228205   4.267   3.259  16.675 -0.7899 -0.7365  0.0175
 2264TIP3   OH228206   5.758   0.926  17.425 -0.3983  0.1813  0.3745
 2264TIP3    H128207   5.747   0.834  17.448 -1.7562 -0.6228 -2.9046
 2264TIP3    H228208   5.684   0.970  17.465 -1.3787 -0.7107 -0.4033
 2265TIP3   OH228209   5.773   5.129   1.132  0.2697 -0.3518 -0.0078
 2265TIP3    H128210   5.779   5.213   1.179 -0.7096 -0.2554 -0.0220
 2265TIP3    H228211   5.793   5.151   1.041 -0.9988  0.0890 -0.2064
 2266TIP3   OH228212   4.114   5.011   6.040 -0.4672 -0.0952 -0.8333
 2266TIP3    H128213   4.076   4.953   6.107  1.0883 -0.5736 -0.3162
 2266TIP3    H228214   4.105   5.099   6.077 -2.2780 -0.0165 -1.3441
 2267TIP3   OH228215   5.805   4.384   3.219  0.7174 -0.4733 -0.5840
 2267TIP3    H128216   5.742   4.453   3.240  2.0332  0.3314  0.9628
 2267TIP3    H228217   5.771   4.343   3.139 -1.2996  0.4617 -0.2590
 2268TIP3   OH228218   1.715   3.607  13.641  0.1070  0.4424 -0.1883
 2268TIP3    H128219   1.720   3.702  13.645  0.1187  0.4122  0.7743
 2268TIP3    H228220   1.622   3.588  13.629  0.0387  0.5625  0.1487
 2269TIP3   OH228221   2.897   6.574  16.970  1.2433 -0.7254 -0.1182
 2269TIP3    H128222   2.980   6.528  16.958  1.8344  0.3853 -0.4504
 2269TIP3    H228223   2.850   6.523  17.036  1.3113 -2.5253 -1.3981
 2270TIP3   OH228224   6.205   5.418   4.810 -0.2718  0.4353 -0.0186
 2270TIP3    H128225   6.166   5.482   4.870  1.2196  0.9249  0.4625
 2270TIP3    H228226   6.296   5.411   4.838  0.2107 -0.0823 -1.6192
 2271TIP3   OH228227   0.289   2.431  12.198  0.0157 -0.1226  0.4413
 2271TIP3    H128228   0.349   2.366  12.163 -0.3517 -1.0861  1.5309
 2271TIP3    H228229   0.344   2.485  12.256  0.2887  0.4674 -0.3496
 2272TIP3   OH228230   5.742   5.848   2.873 -0.1174  0.0067  0.4761
 2272TIP3    H128231   5.828   5.875   2.903  0.1093 -1.2146  0.9778
 2272TIP3    H228232   5.725   5.903   2.796  1.0951  0.2726  0.3779
 2273TIP3   OH228233   4.048   5.872   0.971  0.3661  0.7828 -0.0894
 2273TIP3    H128234   4.037   5.821   1.051  0.0372  0.4443 -0.3472
 2273TIP3    H228235   4.015   5.815   0.902  1.6786  0.6213 -0.6104
 2274TIP3   OH228236   2.701   5.836  11.895  0.2727  1.2527  0.5400
 2274TIP3    H128237   2.656   5.765  11.849  0.5382  0.3366  1.6517
 2274TIP3    H228238   2.700   5.909  11.833 -1.2796  0.7453 -0.0844
 2275TIP3   OH228239   6.531   1.783   2.825 -0.1438  0.5195 -0.3899
 2275TIP3    H128240   6.545   1.868   2.782  0.2109  0.7045  0.0732
 2275TIP3    H228241   6.503   1.725   2.755 -0.4327  1.0312 -0.7090
 2276TIP3   OH228242   1.916   0.940   5.229 -0.4942  0.1365  0.3519
 2276TIP3    H128243   1.881   0.962   5.143  1.6651  1.1396 -0.3482
 2276TIP3    H228244   1.857   0.985   5.291 -2.0321 -0.5515 -0.5688
 2277TIP3   OH228245   6.541   1.367  14.963  0.6524  0.2475  0.5525
 2277TIP3    H128246   6.613   1.400  15.017  0.8218 -0.6860  0.9306
 2277TIP3    H228247   6.580   1.354  14.876  0.8743 -0.0053  0.6877
 2278TIP3   OH228248   0.370   3.042   0.913  0.0162  0.2555 -0.3228
 2278TIP3    H128249   0.278   3.031   0.938  0.4520 -0.5358  1.0364
 2278TIP3    H228250   0.369   3.040   0.818 -1.6595  2.7210 -0.4537
 2279TIP3   OH228251   1.851   1.547   3.515  0.0002  0.0922 -0.2122
 2279TIP3    H128252   1.826   1.607   3.445 -0.0256 -0.9545 -1.1270
 2279TIP3    H228253   1.774   1.541   3.571  0.4094  1.8320  0.5722
 2280TIP3   OH228254   3.965   2.704   6.345 -0.3100  0.6498  0.0444
 2280TIP3    H128255   3.883   2.724   6.390  0.9045  1.0348  2.2169
 2280TIP3    H228256   3.993   2.788   6.308  0.2045  1.0392  1.2658
 2281TIP3   OH228257   0.132   4.769   5.268 -0.3646 -0.0008  0.2680
 2281TIP3    H128258   0.223   4.745   5.285 -0.8313 -0.6420  2.0853
 2281TIP3    H228259   0.083   4.688   5.282 -1.3238  0.5718  0.2841
 2282TIP3   OH228260   0.459   1.103  15.184 -0.4216 -0.0351 -0.0642
 2282TIP3    H128261   0.400   1.051  15.131 -0.9405  0.3574  0.1248
 2282TIP3    H228262   0.431   1.194  15.170 -1.0232  0.0381  1.4052
 2283TIP3   OH228263   0.158   5.224   5.552  0.0246 -0.0153 -0.2429
 2283TIP3    H128264   0.120   5.137   5.567  2.5729 -1.3309 -0.9030
 2283TIP3    H228265   0.150   5.238   5.458  1.8377 -0.6948 -0.5295
 2284TIP3   OH228266   3.584   2.145   2.856  0.0160 -0.2811 -0.4002
 2284TIP3    H128267   3.573   2.050   2.861 -0.5585 -0.1817  0.2714
 2284TIP3    H228268   3.612   2.171   2.943 -0.2168  0.2175 -0.4695
 2285TIP3   OH228269   2.008   4.738  13.270 -0.2051 -0.6830  0.0155
 2285TIP3    H128270   2.085   4.696  13.308  0.3656 -0.6691 -1.0868
 2285TIP3    H228271   2.043   4.803  13.209 -1.0789 -0.6459 -0.4658
 2286TIP3   OH228272   4.140   1.771  12.621  0.4924 -0.3528 -0.2800
 2286TIP3    H128273   4.078   1.830  12.579  0.7306  1.3925  1.6497
 2286TIP3    H228274   4.226   1.800  12.589  0.6989  1.1802  1.4897
 2287TIP3   OH228275   0.692   5.735  15.375  0.2666 -0.0303  0.1494
 2287TIP3    H128276   0.611   5.733  15.426 -0.4126  1.3018 -0.7948
 2287TIP3    H228277   0.732   5.819  15.397  2.1863 -1.2463  1.6816
 2288TIP3   OH228278   1.685   4.556   3.901  0.4190 -0.5445  0.0733
 2288TIP3    H128279   1.605   4.532   3.949 -0.8998  1.0876 -1.2036
 2288TIP3    H228280   1.656   4.572   3.811  2.1613  0.2145 -0.4006
 2289TIP3   OH228281   2.047   4.801  11.644 -0.0548  0.0765  0.5281
 2289TIP3    H128282   2.053   4.735  11.713 -0.2455  0.1455  0.6102
 2289TIP3    H228283   2.060   4.753  11.563 -0.2626 -0.0737  0.5831
 2290TIP3   OH228284   5.332   6.651   1.108 -0.0138  0.2618  0.3220
 2290TIP3    H128285   5.249   6.658   1.061  1.0968  0.4408 -1.7521
 2290TIP3    H228286   5.391   6.608   1.046  1.6937  0.9955  1.3580
 2291TIP3   OH228287   3.798   2.061  16.987  0.2004  0.3428  0.6607
 2291TIP3    H128288   3.866   2.003  16.952  2.0454  1.8603  1.5273
 2291TIP3    H228289   3.843   2.115  17.052 -1.8710  1.4027  1.3181
 2292TIP3   OH228290   1.928   1.847  11.292 -0.1052 -0.0664 -0.2315
 2292TIP3    H128291   1.888   1.910  11.232  1.4394  0.8590 -0.3487
 2292TIP3    H228292   1.938   1.896  11.374 -2.2988 -1.3527  0.8800
 2293TIP3   OH228293   1.363   1.790   1.605  0.1411  0.2393 -0.1140
 2293TIP3    H128294   1.348   1.881   1.632  0.1926  0.5194 -1.0182
 2293TIP3    H228295   1.280   1.763   1.566  0.4110  0.1877 -0.6513
 2294TIP3   OH228296   3.941   2.901   5.769 -0.1046 -0.6448  0.1237
 2294TIP3    H128297   3.889   2.914   5.689 -1.3415  0.8703  1.1160
 2294TIP3    H228298   4.030   2.884   5.738 -0.4035  0.6410 -1.5712
 2295TIP3   OH228299   6.594   4.935   4.914  1.1880 -0.1495 -0.0473
 2295TIP3    H128300   6.620   4.950   5.005 -2.0520 -0.0369  0.9917
 2295TIP3    H228301   6.577   5.022   4.879 -0.2243 -0.3228  0.1650
 2296TIP3   OH228302   6.135   1.995   5.531 -0.1139  0.3405  0.2119
 2296TIP3    H128303   6.169   1.994   5.620 -1.2659  0.4193  0.6709
 2296TIP3    H228304   6.192   2.056   5.484  0.3679  0.4670  0.9547
 2297TIP3   OH228305   0.080   4.541   1.864 -0.4455  0.2476 -0.7084
 2297TIP3    H128306   0.071   4.527   1.959 -1.5893  0.2592 -0.7981
 2297TIP3    H228307   0.142   4.613   1.856  1.0249 -0.8804 -0.0360
 2298TIP3   OH228308   4.325   6.266  15.746 -0.3716 -0.0858  0.1788
 2298TIP3    H128309   4.270   6.203  15.793 -1.4563  2.0717  2.0589
 2298TIP3    H228310   4.414   6.231  15.753 -1.1162 -2.1592 -0.2617
 2299TIP3   OH228311   4.313   4.272  15.435  0.0469  0.2311 -0.6973
 2299TIP3    H128312   4.245   4.268  15.368 -0.1868  1.7221 -0.5850
 2299TIP3    H228313   4.395   4.264  15.386 -0.1742 -0.7604 -0.9226
 2300TIP3   OH228314   5.805   4.796   0.072 -0.0269  0.2961 -0.3760
 2300TIP3    H128315   5.746   4.740   0.122  0.3019  0.5518  0.3137
 2300TIP3    H228316   5.872   4.822   0.135  1.8124 -1.3486 -1.5587
 2301TIP3   OH228317   2.819   5.041   1.216  0.2690 -0.0956  0.0565
 2301TIP3    H128318   2.767   4.992   1.152  2.9113  0.1858 -2.5217
 2301TIP3    H228319   2.842   5.122   1.171 -0.2482  1.5401  2.5650
 2302TIP3   OH228320   3.588   5.352   4.855  0.1749  0.3512 -0.7071
 2302TIP3    H128321   3.523   5.418   4.879  1.4650  1.3066  0.3639
 2302TIP3    H228322   3.549   5.269   4.881 -0.7201  0.8711 -0.3236
 2303TIP3   OH228323   1.457   1.877  13.781  0.6542  0.0893 -0.1432
 2303TIP3    H128324   1.545   1.912  13.789  0.5543 -0.0176  2.1385
 2303TIP3    H228325   1.467   1.783  13.800  0.0332  0.1276  0.4170
 2304TIP3   OH228326   2.041   5.027  14.709 -0.2142 -0.7158 -0.1922
 2304TIP3    H128327   2.015   5.108  14.753  2.6914 -1.1212  2.6731
 2304TIP3    H228328   2.104   5.054  14.643 -1.9893 -0.4296 -1.8677
 2305TIP3   OH228329   3.574   4.841  15.237  0.2393 -0.3720  0.9005
 2305TIP3    H128330   3.555   4.869  15.326 -2.4426  0.3762  0.1828
 2305TIP3    H228331   3.635   4.906  15.203 -1.0400  1.0728  1.2738
 2306TIP3   OH228332   5.153   6.718  14.542 -0.1008 -0.2421  0.6902
 2306TIP3    H128333   5.117   6.691  14.627  0.8745 -1.8366  0.6264
 2306TIP3    H228334   5.247   6.728  14.558 -0.1032  0.7760  0.1069
 2307TIP3   OH228335   2.824   4.137   2.873  0.3713  0.6801  0.2537
 2307TIP3    H128336   2.780   4.189   2.806  0.1064  0.5900  0.3574
 2307TIP3    H228337   2.763   4.136   2.946 -1.1848 -2.6285 -0.9254
 2308TIP3   OH228338   0.527   0.661  10.788 -0.4309  0.0136  0.2833
 2308TIP3    H128339   0.618   0.644  10.811 -0.5956 -1.9390 -0.2984
 2308TIP3    H228340   0.477   0.633  10.864 -0.6860 -1.9554 -0.5438
 2309TIP3   OH228341   2.771   5.273   1.905  0.1205 -0.1563  0.0390
 2309TIP3    H128342   2.719   5.266   1.985 -0.8845  0.2082 -0.5650
 2309TIP3    H228343   2.858   5.239   1.929 -0.7235 -1.9118  0.7568
 2310TIP3   OH228344   4.590   6.647  14.069 -0.0701 -0.1659 -0.0981
 2310TIP3    H128345   4.555   6.576  14.016  0.2354 -0.7750  0.5143
 2310TIP3    H228346   4.515   6.679  14.119 -0.3110  0.2654 -0.7218
 2311TIP3   OH228347   3.976   2.173   5.968  0.0619  0.0320  0.7355
 2311TIP3    H128348   3.918   2.249   5.977 -0.6826 -0.4792  0.3130
 2311TIP3    H228349   3.986   2.161   5.873  1.9387  0.9102  0.7690
 2312TIP3   OH228350   6.060   3.189   2.305  0.3488  0.0033  0.2005
 2312TIP3    H128351   6.143   3.226   2.272 -0.1989  0.3871 -0.7974
 2312TIP3    H228352   6.040   3.117   2.245 -0.2590  0.1833  0.1798
 2313TIP3   OH228353   6.255   3.713  17.158 -0.0109 -0.8460 -0.0551
 2313TIP3    H128354   6.340   3.757  17.149 -1.1559  1.3021 -1.0009
 2313TIP3    H228355   6.257   3.644  17.092  0.6362 -0.1307 -0.8180
 2314TIP3   OH228356   3.797   1.779  16.856  0.5340  0.1840  0.3440
 2314TIP3    H128357   3.709   1.774  16.895  0.4059 -4.4140  0.0169
 2314TIP3    H228358   3.854   1.800  16.929 -0.5961  1.3469  0.9453
 2315TIP3   OH228359   3.180   5.885   3.209 -0.1094 -0.0087 -0.7112
 2315TIP3    H128360   3.175   5.855   3.118  0.7991 -0.7899 -0.5126
 2315TIP3    H228361   3.150   5.811   3.261  1.9005 -0.5432 -0.2354
 2316TIP3   OH228362   5.612   0.284  15.408 -0.3808  0.0694  0.0551
 2316TIP3    H128363   5.662   0.339  15.468 -0.7371  0.6626 -0.1809
 2316TIP3    H228364   5.654   0.297  15.323 -1.0262  0.7004 -0.1772
 2317TIP3   OH228365   3.936   4.426  11.773 -0.3722 -0.0519  0.0815
 2317TIP3    H128366   3.981   4.390  11.697  0.0096 -1.0753  0.7755
 2317TIP3    H228367   3.921   4.518  11.751  1.3169  0.1055 -0.5070
 2318TIP3   OH228368   2.270   4.600   3.965  0.2473 -0.0958 -0.0938
 2318TIP3    H128369   2.348   4.650   3.940  0.0298 -0.2752 -1.2014
 2318TIP3    H228370   2.213   4.664   4.008  1.6427 -0.3048  2.2094
 2319TIP3   OH228371   1.040   0.014  11.665 -0.3089  0.5116  0.6118
 2319TIP3    H128372   1.135   0.004  11.661 -0.4196 -0.2450 -0.2630
 2319TIP3    H228373   1.005  -0.061  11.618 -1.3419  0.9140  0.7008
 2320TIP3   OH228374   4.525   4.212   5.450 -0.2916 -0.8164 -0.9889
 2320TIP3    H128375   4.480   4.228   5.533 -0.1278  0.6396 -1.1527
 2320TIP3    H228376   4.519   4.117   5.437 -1.5287 -0.8944 -0.0098
 2321TIP3   OH228377   4.602   3.008   6.491 -0.3832  0.4116  0.2811
 2321TIP3    H128378   4.590   3.071   6.563 -0.7943  1.5192 -0.7202
 2321TIP3    H228379   4.551   3.045   6.419 -1.0878 -1.3826 -0.1755
 2322TIP3   OH228380   1.839   2.282  13.650 -0.8069  0.1339  0.4763
 2322TIP3    H128381   1.813   2.282  13.742 -3.2288 -0.9350 -0.1159
 2322TIP3    H228382   1.918   2.228  13.647 -0.3659  0.6564  1.9879
 2323TIP3   OH228383   4.579   0.766  11.844  0.2453  0.2689  0.4006
 2323TIP3    H128384   4.533   0.689  11.810 -0.2552  0.8015 -0.1503
 2323TIP3    H228385   4.514   0.810  11.900  0.0838  0.9984 -0.3440
 2324TIP3   OH228386   4.259   3.801  13.953 -0.2164 -0.2175  0.0516
 2324TIP3    H128387   4.304   3.873  13.908  3.6013 -1.2657  1.7984
 2324TIP3    H228388   4.207   3.844  14.021 -0.5880  1.0060 -0.9727
 2325TIP3   OH228389   4.123   5.566  13.448 -0.6201 -0.0645 -0.8620
 2325TIP3    H128390   4.060   5.574  13.377  0.3233 -0.6968 -1.8150
 2325TIP3    H228391   4.198   5.619  13.419 -0.9590  1.2399  0.5563
 2326TIP3   OH228392   4.499   1.504  11.542 -0.1354  0.1951  0.1752
 2326TIP3    H128393   4.505   1.408  11.546  0.5343  0.1890 -0.6646
 2326TIP3    H228394   4.444   1.527  11.616  2.4002 -0.5905  2.5040
 2327TIP3   OH228395   2.088   6.235   6.962  0.6035  0.0277 -0.4226
 2327TIP3    H128396   2.128   6.320   6.981  0.5260  0.2546 -1.2566
 2327TIP3    H228397   2.139   6.172   7.013  1.1739  0.4751 -0.4403
 2328TIP3   OH228398   1.789   3.407   3.679 -0.5392  0.2154 -0.2868
 2328TIP3    H128399   1.708   3.412   3.730 -0.9454  0.3412 -0.9326
 2328TIP3    H228400   1.843   3.478   3.713  1.1916 -2.4450  3.2676
 2329TIP3   OH228401   4.414   5.065  15.435 -0.5636  0.0261  0.2488
 2329TIP3    H128402   4.344   5.067  15.501 -0.5832 -0.3107  0.2436
 2329TIP3    H228403   4.383   5.001  15.370  0.7245 -1.8386  1.3741
 2330TIP3   OH228404   1.167   0.041  15.323  0.7096 -0.3621 -0.0207
 2330TIP3    H128405   1.104  -0.030  15.312 -0.9924  0.5474  2.8256
 2330TIP3    H228406   1.116   0.120  15.311  2.1707  0.4508 -1.2397
 2331TIP3   OH228407   2.498   4.954  13.104 -0.3793 -0.4208 -0.0202
 2331TIP3    H128408   2.500   4.872  13.055 -2.0081 -0.4059 -0.1684
 2331TIP3    H228409   2.447   5.014  13.050  2.3913  1.3848 -0.8561
 2332TIP3   OH228410   2.153   5.079   6.462  0.0172 -0.0955  0.4562
 2332TIP3    H128411   2.134   5.152   6.521  1.4175  0.2744  0.4968
 2332TIP3    H228412   2.125   5.001   6.510  0.1215  0.2875  1.1469
 2333TIP3   OH228413   4.855   5.830   5.456 -0.0017  0.2711  1.0229
 2333TIP3    H128414   4.930   5.865   5.407  0.2321  2.0468  2.5817
 2333TIP3    H228415   4.785   5.824   5.391  1.1223 -0.2934 -0.1890
 2334TIP3   OH228416   1.313   4.169  12.227 -0.1127  0.0103  0.0671
 2334TIP3    H128417   1.229   4.181  12.272 -0.9276 -3.2008 -0.3460
 2334TIP3    H228418   1.307   4.226  12.150 -0.5527  2.1505  1.5723
 2335TIP3   OH228419   3.302   1.110  11.511 -0.6255  0.4046 -0.3259
 2335TIP3    H128420   3.234   1.093  11.446 -1.4035 -0.4067  0.6555
 2335TIP3    H228421   3.264   1.079  11.593  1.0223 -0.2987  0.2124
 2336TIP3   OH228422   1.407   6.163   5.542  0.1759  0.3074 -0.3241
 2336TIP3    H128423   1.463   6.128   5.474 -0.1498 -0.9871  0.0455
 2336TIP3    H228424   1.468   6.199   5.607  0.5266  0.1646 -0.5708
 2337TIP3   OH228425   6.435   2.147  17.418 -0.1509  0.0887  0.4119
 2337TIP3    H128426   6.529   2.135  17.404 -0.3782  0.8565 -2.3662
 2337TIP3    H228427   6.395   2.070  17.379 -0.7378  0.2226  0.7400
 2338TIP3   OH228428   6.590   5.422   5.310  0.2064  0.0537 -0.7389
 2338TIP3    H128429   6.517   5.481   5.328  1.4021  1.1553  0.7328
 2338TIP3    H228430   6.664   5.458   5.359  2.0478 -0.4504 -2.9309
 2339TIP3   OH228431   3.233   3.470   5.898  0.3312  0.3436  0.3624
 2339TIP3    H128432   3.214   3.376   5.892  1.3090  0.1965 -0.9353
 2339TIP3    H228433   3.175   3.510   5.833 -0.7905  0.7831  1.5951
 2340TIP3   OH228434   2.807   2.097   3.981  0.5495  0.2312 -0.1387
 2340TIP3    H128435   2.866   2.028   3.949  1.4678  1.5267 -1.3660
 2340TIP3    H228436   2.720   2.071   3.950  0.3843 -1.6984  1.6848
 2341TIP3   OH228437   0.057   2.021   2.272  0.1670  0.2751  0.0272
 2341TIP3    H128438   0.001   2.047   2.199 -2.0581 -0.6209  1.3129
 2341TIP3    H228439   0.111   1.951   2.237 -0.5557  0.1558 -0.9047
 2342TIP3   OH228440   6.448   5.570  12.532 -0.3539  0.5465 -0.0989
 2342TIP3    H128441   6.509   5.644  12.541  0.5410 -0.1191 -0.5216
 2342TIP3    H228442   6.407   5.562  12.618 -0.3633  1.4502 -0.0066
 2343TIP3   OH228443   4.938   0.804   4.811  0.5273  0.5272 -0.3063
 2343TIP3    H128444   4.866   0.760   4.856  1.4039 -0.1860  0.4375
 2343TIP3    H228445   4.963   0.875   4.870 -0.9724  2.2027 -1.5631
 2344TIP3   OH228446   3.438   4.711  17.204  0.4573  0.2790 -0.3918
 2344TIP3    H128447   3.385   4.742  17.278  0.0952 -0.2261 -0.4284
 2344TIP3    H228448   3.523   4.753  17.215  0.1644  0.8092 -0.1196
 2345TIP3   OH228449   5.440   5.401  15.348 -0.1454 -0.0078 -0.1648
 2345TIP3    H128450   5.348   5.388  15.325  0.0201 -1.2647 -0.1708
 2345TIP3    H228451   5.440   5.483  15.397 -1.4175 -0.4230  0.6014
 2346TIP3   OH228452   4.677   4.477  14.801  0.2268 -0.8981 -0.0247
 2346TIP3    H128453   4.633   4.432  14.729 -0.9654 -0.6961  0.5596
 2346TIP3    H228454   4.682   4.568  14.773  0.1674 -0.8994 -0.0384
 2347TIP3   OH228455   4.635   3.442   3.318  0.1883  0.6492 -0.2269
 2347TIP3    H128456   4.614   3.530   3.285  2.6735  1.7208  0.7725
 2347TIP3    H228457   4.731   3.441   3.322  0.1465 -1.2977  1.9386
 2348TIP3   OH228458   0.546   1.506  14.218  0.2433 -0.4479  0.2520
 2348TIP3    H128459   0.623   1.494  14.272  0.1215 -1.8218  0.1565
 2348TIP3    H228460   0.533   1.421  14.175 -1.0948 -0.1333 -0.0156
 2349TIP3   OH228461   0.572   0.430  16.859 -0.2196  0.4351 -0.6324
 2349TIP3    H128462   0.631   0.498  16.892  0.7850 -0.9359  0.5337
 2349TIP3    H228463   0.485   0.457  16.888 -0.0853  2.0487 -1.6370
 2350TIP3   OH228464   3.894   1.732  16.593  0.2985  0.2949 -0.3948
 2350TIP3    H128465   3.842   1.789  16.535 -1.2875  1.3318  1.8993
 2350TIP3    H228466   3.846   1.732  16.676  2.5734 -0.9687  1.0241
 2351TIP3   OH228467   5.216   5.038   3.595  0.0927  0.6533 -0.6812
 2351TIP3    H128468   5.293   4.982   3.597 -0.4333 -0.0851  0.4762
 2351TIP3    H228469   5.236   5.105   3.530  2.3765  1.4621  0.7354
 2352TIP3   OH228470   0.808   6.722  12.990 -0.1972  0.0911  0.0748
 2352TIP3    H128471   0.728   6.753  13.032 -1.2111 -1.4450 -0.6487
 2352TIP3    H228472   0.875   6.728  13.058 -1.0131  0.9791  0.8212
 2353TIP3   OH228473   4.788   4.940   2.516  0.2980  0.3193  0.3754
 2353TIP3    H128474   4.798   4.935   2.421 -1.6224  0.8132  0.0988
 2353TIP3    H228475   4.802   5.033   2.536 -0.9079  0.5233  0.3297
 2354TIP3   OH228476   2.453   2.739   5.302  0.1266  0.1134  0.1671
 2354TIP3    H128477   2.476   2.778   5.218 -0.8701 -0.8980 -0.6052
 2354TIP3    H228478   2.471   2.645   5.291 -0.9172 -0.1728  0.7329
 2355TIP3   OH228479   3.844   5.004   4.862  0.3619 -0.5109 -0.3777
 2355TIP3    H128480   3.763   5.031   4.818 -1.4009 -1.7398  1.8588
 2355TIP3    H228481   3.876   4.929   4.812 -0.9134 -1.1332 -0.3036
 2356TIP3   OH228482   1.020   1.920  15.864 -0.0248 -0.3726  0.2240
 2356TIP3    H128483   1.105   1.915  15.821  0.7584  1.7818  1.3701
 2356TIP3    H228484   1.023   1.852  15.932  0.8366 -0.2284  0.3360
 2357TIP3   OH228485   5.957   4.113   0.149 -0.0125  0.8150  0.3067
 2357TIP3    H128486   5.886   4.073   0.100 -0.7097  1.1195  1.0549
 2357TIP3    H228487   6.031   4.114   0.087 -0.7713  0.8984 -0.6247
 2358TIP3   OH228488   2.475   0.289  10.694  0.8467 -0.1779  0.4340
 2358TIP3    H128489   2.570   0.283  10.683  0.5321 -0.8216 -3.2952
 2358TIP3    H228490   2.459   0.382  10.711  2.0543  0.4110 -1.3365
 2359TIP3   OH228491   4.141   3.882   5.334 -0.3616  0.0109 -0.4294
 2359TIP3    H128492   4.161   3.965   5.291 -0.7988  0.1388 -0.3888
 2359TIP3    H228493   4.089   3.906   5.411  1.6114 -0.0754  1.0288
 2360TIP3   OH228494   3.074   1.895   4.569  0.5154 -0.0142 -0.1384
 2360TIP3    H128495   2.993   1.943   4.584  0.5911  0.7217 -1.8691
 2360TIP3    H228496   3.071   1.823   4.632 -1.7951 -0.3759 -0.5628
 2361TIP3   OH228497   5.517   5.622  17.289 -0.2991 -0.1086  0.3778
 2361TIP3    H128498   5.430   5.581  17.288 -0.0348 -0.6744 -0.2221
 2361TIP3    H228499   5.572   5.562  17.239  0.4637  0.2016  0.8317
 2362TIP3   OH228500   6.666   0.487  14.617  0.0289 -0.0449 -0.1077
 2362TIP3    H128501   6.715   0.470  14.536 -0.5271 -0.0225 -0.4572
 2362TIP3    H228502   6.733   0.504  14.683  0.4885  1.6917 -0.9488
 2363TIP3   OH228503   6.706   3.703   6.315  0.3008  0.3246 -0.2033
 2363TIP3    H128504   6.720   3.769   6.384  0.8526 -0.4375  0.4274
 2363TIP3    H228505   6.717   3.752   6.234  4.1987  0.4316  0.1966
 2364TIP3   OH228506   3.745   0.756  17.291 -0.4132 -0.5955  0.0588
 2364TIP3    H128507   3.717   0.709  17.369  0.0567 -2.0625 -0.6149
 2364TIP3    H228508   3.667   0.803  17.262 -0.5263  0.1495  1.5184
 2365TIP3   OH228509   6.434   1.629  14.819  0.1447 -0.0419  0.0603
 2365TIP3    H128510   6.352   1.610  14.863 -0.2678  0.4692 -0.4689
 2365TIP3    H228511   6.481   1.686  14.880 -0.4106  0.6377 -0.1324
 2366TIP3   OH228512   2.843   3.754  15.876 -0.8003  0.1309 -0.3013
 2366TIP3    H128513   2.935   3.725  15.872 -0.7078  0.0192  1.4690
 2366TIP3    H228514   2.796   3.692  15.821 -0.1745 -1.5641  0.9751
 2367TIP3   OH228515   0.775   6.031   5.464 -0.8053 -0.4106  0.8213
 2367TIP3    H128516   0.820   6.090   5.525 -0.9192 -1.5083  1.9988
 2367TIP3    H228517   0.845   5.980   5.424 -0.7935 -0.1833  0.5428
 2368TIP3   OH228518   0.175   3.399  17.293 -0.2508  0.3492 -0.3703
 2368TIP3    H128519   0.199   3.323  17.347 -3.9773 -1.2844 -0.6668
 2368TIP3    H228520   0.158   3.469  17.356  1.6756  0.5218  0.0204
 2369TIP3   OH228521   3.926   1.273  11.335  0.5305  0.1335  0.4730
 2369TIP3    H128522   3.882   1.335  11.277  0.6950  1.1287  1.3776
 2369TIP3    H228523   4.017   1.302  11.335  0.9210 -1.0163 -0.2295
 2370TIP3   OH228524   0.344   3.562   2.375 -0.2170 -0.0867 -0.7291
 2370TIP3    H128525   0.351   3.609   2.459 -0.3953  0.3218 -0.9404
 2370TIP3    H228526   0.268   3.601   2.332 -0.5430 -0.7763 -0.7846
 2371TIP3   OH228527   0.412   0.926   6.588 -0.1852 -0.1284  0.1343
 2371TIP3    H128528   0.390   1.008   6.631 -0.1763  1.3335 -2.4469
 2371TIP3    H228529   0.457   0.875   6.655 -1.5401  1.3037  2.2660
 2372TIP3   OH228530   1.114   0.143   0.347  0.6185 -0.3236 -0.2899
 2372TIP3    H128531   1.023   0.129   0.320  0.3266  0.8553  0.0553
 2372TIP3    H228532   1.160   0.068   0.310 -0.3589 -0.5439 -1.1417
 2373TIP3   OH228533   3.983   5.739  11.549 -0.6729 -0.2818 -0.3701
 2373TIP3    H128534   4.038   5.817  11.547  0.6297 -1.1239  1.2509
 2373TIP3    H228535   3.894   5.773  11.563  0.0331  0.8905  1.6422
 2374TIP3   OH228536   2.561   1.836   0.328 -0.1642 -0.1978  0.1346
 2374TIP3    H128537   2.531   1.818   0.240 -0.4858  0.3142  0.1340
 2374TIP3    H228538   2.624   1.766   0.347  0.7707  0.3185 -0.9247
 2375TIP3   OH228539   6.212   4.604  11.582 -0.1485 -0.2843  0.2992
 2375TIP3    H128540   6.270   4.657  11.527 -0.8180 -0.1946 -0.3365
 2375TIP3    H228541   6.132   4.657  11.590 -0.9230 -1.2802 -0.5419
 2376TIP3   OH228542   3.862   0.461  16.204 -0.7512  0.1125 -0.0482
 2376TIP3    H128543   3.939   0.408  16.184 -1.3592 -0.4397 -0.9892
 2376TIP3    H228544   3.895   0.551  16.207 -0.3754  0.1250 -2.4514
 2377TIP3   OH228545   5.869   5.648   6.488  0.5966 -0.5333 -0.5866
 2377TIP3    H128546   5.940   5.711   6.495  0.1618 -0.1409  0.6044
 2377TIP3    H228547   5.903   5.568   6.527  0.8337 -0.7614 -1.2517
 2378TIP3   OH228548   2.154   0.298  11.500  0.1206  0.1467  0.0331
 2378TIP3    H128549   2.154   0.390  11.528  0.6847  0.3914 -0.7240
 2378TIP3    H228550   2.177   0.302  11.407  1.7592 -0.8584  0.3527
 2379TIP3   OH228551   2.407   6.183  13.842 -0.2273 -0.1066  0.0483
 2379TIP3    H128552   2.445   6.153  13.759 -0.6961 -1.5455  0.3177
 2379TIP3    H228553   2.341   6.247  13.816 -1.2613 -1.4522 -0.8299
 2380TIP3   OH228554   4.546   1.143  16.661 -0.7293  0.0812 -0.2470
 2380TIP3    H128555   4.595   1.125  16.581  1.4263  0.2924  0.9506
 2380TIP3    H228556   4.530   1.057  16.700  2.4882  0.1045  1.4342
 2381TIP3   OH228557   6.210   5.080  13.823  0.1875 -0.6796  0.7717
 2381TIP3    H128558   6.270   5.147  13.856 -0.5251  1.0381 -1.1724
 2381TIP3    H228559   6.130   5.092  13.875  0.5955 -1.1322  1.5155
 2382TIP3   OH228560   2.632   3.270   3.189  0.1114 -0.2440  0.7454
 2382TIP3    H128561   2.632   3.302   3.279 -1.4142  0.1022  0.6380
 2382TIP3    H228562   2.679   3.337   3.139 -0.9539  0.6440  0.9211
 2383TIP3   OH228563   1.250   2.257   0.156  0.5776 -0.3810  0.5937
 2383TIP3    H128564   1.319   2.260   0.089 -0.7565 -0.3046 -0.8180
 2383TIP3    H228565   1.294   2.221   0.233  2.6466  1.2651  0.2991
 2384TIP3   OH228566   2.246   2.936  16.592 -0.4225 -0.2373 -0.5034
 2384TIP3    H128567   2.250   3.031  16.600  0.5618 -0.3279  0.2800
 2384TIP3    H228568   2.153   2.915  16.600 -0.5753  0.6021  0.0406
 2385TIP3   OH228569   0.797   1.173   0.127 -0.4489  0.4803 -0.0286
 2385TIP3    H128570   0.768   1.262   0.144 -0.9243  0.3933 -0.3627
 2385TIP3    H228571   0.736   1.118   0.176  1.2744  0.3887  2.1820
 2386TIP3   OH228572   1.123   1.602   2.032  0.0825 -0.0617  0.2645
 2386TIP3    H128573   1.149   1.525   1.982  0.1309  0.4550 -0.5183
 2386TIP3    H228574   1.152   1.583   2.121 -2.3629 -2.1422  0.7184
 2387TIP3   OH228575   0.364   3.388   5.756 -0.1560 -0.2490 -0.2574
 2387TIP3    H128576   0.403   3.448   5.819 -0.0815  0.0180 -0.5536
 2387TIP3    H228577   0.435   3.328   5.732  0.0601  0.2006 -0.7522
 2388TIP3   OH228578   2.534   1.846   1.522 -0.7763 -0.5998 -0.3496
 2388TIP3    H128579   2.535   1.751   1.511 -0.0746 -0.8005  1.1255
 2388TIP3    H228580   2.443   1.868   1.540 -0.9230 -1.0110 -0.5908
 2389TIP3   OH228581   0.607   1.252   0.341 -0.7651  0.0997  0.1528
 2389TIP3    H128582   0.559   1.212   0.268 -0.0240 -1.3924  0.4460
 2389TIP3    H228583   0.542   1.305   0.387 -1.1390  1.5555 -1.8978
 2390TIP3   OH228584   2.249   2.417  15.114 -0.5989  0.4681  0.5005
 2390TIP3    H128585   2.201   2.363  15.051  0.4949 -2.3549  1.8799
 2390TIP3    H228586   2.190   2.424  15.189  0.5452 -2.1256  1.7826
 2391TIP3   OH228587   2.655   4.555  13.817  0.1764 -0.7781 -0.6129
 2391TIP3    H128588   2.662   4.559  13.912 -1.4083  1.4118 -0.5018
 2391TIP3    H228589   2.738   4.517  13.788  0.2541 -2.5683  1.6504
 2392TIP3   OH228590   0.745   6.337  13.179 -0.0246  0.3840 -0.1254
 2392TIP3    H128591   0.684   6.406  13.206 -0.0612  0.8623 -1.3418
 2392TIP3    H228592   0.793   6.376  13.105  0.9450 -0.3990  0.0736
 2393TIP3   OH228593   6.179   4.482   1.374  0.2168 -0.2053 -0.1670
 2393TIP3    H128594   6.208   4.551   1.434 -2.0819  0.8234 -0.1431
 2393TIP3    H228595   6.181   4.522   1.288 -0.0235 -0.4898 -0.3073
 2394TIP3   OH228596   3.519   1.808  11.404 -0.5900  0.1920 -0.2794
 2394TIP3    H128597   3.545   1.811  11.312 -0.0208  1.2317 -0.1066
 2394TIP3    H228598   3.493   1.717  11.419 -2.9737  0.4517 -2.0756
 2395TIP3   OH228599   0.989   6.055  12.044 -0.3300 -0.4741 -0.7737
 2395TIP3    H128600   1.084   6.044  12.052 -0.4648 -0.6450  1.4043
 2395TIP3    H228601   0.976   6.149  12.041 -0.0825 -0.4462 -0.9519
 2396TIP3   OH228602   2.203   2.261   6.308  0.1086 -0.3069  0.3920
 2396TIP3    H128603   2.254   2.326   6.260  0.1898  0.0006  0.8956
 2396TIP3    H228604   2.157   2.310   6.375 -0.5049 -0.6491  0.2308
 2397TIP3   OH228605   2.631   6.115  14.814 -0.3399  0.3865  0.2851
 2397TIP3    H128606   2.663   6.163  14.890  1.1999 -0.1574  0.0354
 2397TIP3    H228607   2.537   6.132  14.811 -0.4696  0.2951  2.3977
 2398TIP3   OH228608   1.036   5.316  13.991 -1.0033  0.0266 -0.2892
 2398TIP3    H128609   0.998   5.375  14.056  1.0237 -0.9357  1.9262
 2398TIP3    H228610   1.039   5.231  14.035  0.7427 -0.5875 -1.4929
 2399TIP3   OH228611   5.428   0.963   5.372  0.4977  0.4896 -0.1414
 2399TIP3    H128612   5.367   1.033   5.395  0.1210  1.2830 -3.1946
 2399TIP3    H228613   5.407   0.892   5.434 -0.3156  2.3646  1.8843
 2400TIP3   OH228614   2.274   0.725  15.894 -0.9822  0.1996  0.1460
 2400TIP3    H128615   2.193   0.734  15.843 -1.7708 -0.5270  1.2325
 2400TIP3    H228616   2.302   0.635  15.878 -1.2153 -0.0205  0.9590
 2401TIP3   OH228617   6.507   4.613   4.346 -0.6020  0.1324 -0.1702
 2401TIP3    H128618   6.486   4.523   4.371 -1.7713  0.2031 -0.8185
 2401TIP3    H228619   6.593   4.629   4.385  0.7804 -2.0805 -2.0596
 2402TIP3   OH228620   6.249   0.160   2.730 -0.1376 -0.7448 -0.0617
 2402TIP3    H128621   6.332   0.196   2.762 -1.2792  1.3083  0.7762
 2402TIP3    H228622   6.273   0.113   2.650  1.9924 -1.3013  0.8350
 2403TIP3   OH228623   6.149   1.114  12.663  0.1645 -0.4738 -0.0681
 2403TIP3    H128624   6.230   1.144  12.703 -0.7836  1.1758  0.6820
 2403TIP3    H228625   6.081   1.130  12.729 -0.7922 -1.8348 -0.6667
 2404TIP3   OH228626   0.664   0.383  17.497 -0.6039  0.1186 -0.7879
 2404TIP3    H128627   0.657   0.445  17.425  0.2642  2.2693  0.8782
 2404TIP3    H228628   0.669   0.297  17.455  2.5381  1.4341 -3.4575
 2405TIP3   OH228629   0.521   3.856  15.575  0.4302 -0.5236 -0.0012
 2405TIP3    H128630   0.598   3.911  15.589  0.1912  0.0371 -0.7819
 2405TIP3    H228631   0.550   3.787  15.516  0.1710  0.0983 -0.8713
 2406TIP3   OH228632   0.993   5.134  17.178 -0.3590 -0.0477  0.1980
 2406TIP3    H128633   1.042   5.216  17.168 -0.0113 -0.0560  1.6859
 2406TIP3    H228634   0.972   5.109  17.088 -1.1019  2.0306 -0.2713
 2407TIP3   OH228635   0.521   3.986   1.731 -0.6270 -0.2951 -0.0652
 2407TIP3    H128636   0.528   3.988   1.826  0.5254  1.4720 -0.1305
 2407TIP3    H228637   0.609   4.007   1.700 -1.3139  0.6532 -1.4818
 2408TIP3   OH228638   5.956   4.468  12.567  0.0884  0.6530 -0.0162
 2408TIP3    H128639   6.047   4.496  12.567  0.1846  0.3480  0.6311
 2408TIP3    H228640   5.922   4.498  12.482  0.6458  1.2206 -0.0445
 2409TIP3   OH228641   0.821   2.848  12.031  0.2283  0.3010 -0.1266
 2409TIP3    H128642   0.916   2.862  12.036  0.3867 -0.9382  0.6601
 2409TIP3    H228643   0.783   2.927  12.069  0.9947  0.0250  1.2478
 2410TIP3   OH228644   0.967   6.503   5.025  0.5018  0.2210 -0.4441
 2410TIP3    H128645   1.035   6.531   4.964  1.0039 -0.2043 -0.0879
 2410TIP3    H228646   0.970   6.567   5.096  0.4929  0.2340 -0.4554
 2411TIP3   OH228647   1.396   2.289  17.416 -0.0429  0.5810  0.3709
 2411TIP3    H128648   1.379   2.216  17.356 -0.6587  0.7736  0.3042
 2411TIP3    H228649   1.489   2.306  17.406 -0.0905  0.4528 -0.3633
 2412TIP3   OH228650   2.996   1.626  11.598 -0.4137 -0.2010  0.5438
 2412TIP3    H128651   2.997   1.587  11.511  0.8614 -0.3024  0.5894
 2412TIP3    H228652   2.965   1.556  11.655 -1.9789  0.0872  0.0960
 2413TIP3   OH228653   6.067   0.731  12.621 -0.1932 -0.4454  0.3200
 2413TIP3    H128654   6.142   0.779  12.656  1.4459 -1.1674 -1.9882
 2413TIP3    H228655   6.006   0.800  12.593  0.0438  0.1688  1.2486
 2414TIP3   OH228656   5.228   4.877  14.201  0.1613  0.0983  0.4019
 2414TIP3    H128657   5.253   4.797  14.155 -1.1536  1.1972 -2.4970
 2414TIP3    H228658   5.133   4.880  14.194  0.2200  2.2400 -0.2993
 2415TIP3   OH228659   4.130   6.626  17.412 -0.5459  0.5198 -0.5533
 2415TIP3    H128660   4.187   6.578  17.471 -0.7480  0.7692 -0.1548
 2415TIP3    H228661   4.180   6.705  17.389 -0.0453 -0.0550 -1.5262
 2416TIP3   OH228662   1.846   1.116   0.081  0.1784  0.0547  0.4336
 2416TIP3    H128663   1.886   1.089   0.163 -1.4945 -0.1849  1.2206
 2416TIP3    H228664   1.764   1.157   0.107  0.0509  0.8342 -1.0778
 2417TIP3   OH228665   0.905   5.093   5.756 -0.6208 -0.2784  0.0296
 2417TIP3    H128666   0.811   5.103   5.766 -0.6682 -0.3677 -0.3259
 2417TIP3    H228667   0.917   5.059   5.667 -0.4302 -2.7641  0.9103
 2418TIP3   OH228668   6.734   4.344  14.871 -0.4497  0.3108 -0.9283
 2418TIP3    H128669   6.763   4.261  14.833 -1.1980  0.0854 -1.0331
 2418TIP3    H228670   6.638   4.338  14.870 -0.4990  0.9380 -0.4045
 2419TIP3   OH228671   2.651   1.866  12.332 -0.0290 -0.3150 -0.5047
 2419TIP3    H128672   2.731   1.815  12.329 -0.6843 -1.3454 -0.9634
 2419TIP3    H228673   2.597   1.831  12.261 -0.4677  1.0835 -0.9030
 2420TIP3   OH228674   6.006   5.045  12.535 -0.2008 -0.0184 -0.5857
 2420TIP3    H128675   6.005   5.121  12.476  2.2663  2.4530  2.2512
 2420TIP3    H228676   6.038   4.973  12.479  0.9943  1.9029 -2.5759
 2421TIP3   OH228677   2.577   0.772  15.574  0.0350  0.5879 -0.2021
 2421TIP3    H128678   2.666   0.766  15.608  0.1461  0.8301 -0.4394
 2421TIP3    H228679   2.588   0.798  15.483 -0.2447 -0.3707 -0.5216
 2422TIP3   OH228680   4.789   4.482   4.220  0.5219 -0.0562 -0.4089
 2422TIP3    H128681   4.787   4.395   4.179  2.1098 -0.3231  0.0351
 2422TIP3    H228682   4.792   4.543   4.146  2.0892 -0.4857 -0.7240
 2423TIP3   OH228683   0.803   1.545   3.137 -0.4469  0.1666 -0.5141
 2423TIP3    H128684   0.783   1.620   3.194 -0.9772  0.8612 -1.5867
 2423TIP3    H228685   0.883   1.571   3.092  0.9252 -1.0720  1.0665
 2424TIP3   OH228686   0.923   0.171   0.759  0.5839  0.5491 -0.3849
 2424TIP3    H128687   0.984   0.098   0.767  0.1143  0.0907 -0.9098
 2424TIP3    H228688   0.853   0.138   0.702  0.6252  1.5770 -1.0530
 2425TIP3   OH228689   0.882   3.314   0.385 -0.1739  0.0192  0.1483
 2425TIP3    H128690   0.828   3.388   0.359 -0.6797 -0.1210  0.7551
 2425TIP3    H228691   0.867   3.306   0.480 -0.1182 -0.8415  0.0959
 2426TIP3   OH228692   4.888   5.388   2.471  0.0043 -0.1098 -0.4939
 2426TIP3    H128693   4.827   5.336   2.420 -0.0034 -0.3356 -0.2585
 2426TIP3    H228694   4.846   5.473   2.480 -0.5146 -0.4213  0.1085
 2427TIP3   OH228695   5.374   2.231  15.337  0.3170 -0.1089 -0.6445
 2427TIP3    H128696   5.331   2.215  15.421 -1.1472  2.3355 -0.8281
 2427TIP3    H228697   5.461   2.265  15.361 -0.1423  0.7137 -0.0813
 2428TIP3   OH228698   0.577   6.352   4.180 -0.1541 -0.7655 -0.0175
 2428TIP3    H128699   0.511   6.289   4.209  0.5942 -1.0191  1.2422
 2428TIP3    H228700   0.638   6.358   4.254 -0.2282  1.4871 -0.0705
 2429TIP3   OH228701   5.763   1.670   2.262  0.1006  0.0429 -0.3066
 2429TIP3    H128702   5.693   1.611   2.289  1.1698  0.0450  2.8788
 2429TIP3    H228703   5.803   1.627   2.187 -0.5900 -2.1276  0.4839
 2430TIP3   OH228704   5.876   4.631  12.359  0.1267 -0.3850  0.9171
 2430TIP3    H128705   5.812   4.694  12.391  1.1530  0.4712  1.3385
 2430TIP3    H228706   5.869   4.636  12.264 -1.4515 -1.4002  0.9381
 2431TIP3   OH228707   0.286   6.391  16.297  0.2024  0.1511  0.1242
 2431TIP3    H128708   0.345   6.465  16.286  0.8278 -0.0482  1.8521
 2431TIP3    H228709   0.219   6.421  16.358 -1.3269  0.2454 -1.5062
 2432TIP3   OH228710   4.814   0.939   4.204  0.4776 -0.6637 -0.6175
 2432TIP3    H128711   4.775   0.946   4.117 -0.0942 -0.7839 -0.3743
 2432TIP3    H228712   4.808   0.847   4.227  1.2327 -0.7494 -0.7188
 2433TIP3   OH228713   3.261   6.097  11.883  0.4224  0.0160 -0.2398
 2433TIP3    H128714   3.243   6.072  11.974 -0.1718 -0.6897 -0.5373
 2433TIP3    H228715   3.286   6.189  11.888 -3.8180  1.3939  0.2398
 2434TIP3   OH228716   0.639   5.695  11.575 -0.1010 -0.2243 -0.4700
 2434TIP3    H128717   0.588   5.614  11.567  0.6039 -0.6870 -0.3764
 2434TIP3    H228718   0.667   5.714  11.485 -1.4116  0.6915 -0.7129
 2435TIP3   OH228719   3.001   2.045  17.402 -0.3517  0.0651  0.1398
 2435TIP3    H128720   2.911   2.076  17.414 -0.2415  1.0891 -1.3769
 2435TIP3    H228721   3.009   2.030  17.308  0.7086 -1.1882  0.4052
 2436TIP3   OH228722   4.305   6.412  11.274  0.3681 -0.0030 -0.1047
 2436TIP3    H128723   4.312   6.423  11.369 -0.4093 -1.0065  0.0778
 2436TIP3    H228724   4.377   6.465  11.239 -0.0221  1.2944  0.9738
 2437TIP3   OH228725   6.367   6.465  14.456 -0.1927 -0.6203  0.0008
 2437TIP3    H128726   6.449   6.486  14.411 -0.1475  1.6296  1.0393
 2437TIP3    H228727   6.299   6.503  14.401 -0.6343 -2.5366 -0.8913
 2438TIP3   OH228728   5.642   1.405  12.472  0.2383 -0.1985 -0.2123
 2438TIP3    H128729   5.580   1.368  12.535  2.5844 -0.9292  1.8764
 2438TIP3    H228730   5.640   1.345  12.398 -0.4770 -1.0367  0.4613
 2439TIP3   OH228731   4.806   6.224  14.122 -0.3507  0.2185  0.1606
 2439TIP3    H128732   4.818   6.312  14.086  0.3560 -0.0038 -0.1542
 2439TIP3    H228733   4.766   6.175  14.050  0.8413 -0.1629 -0.2597
 2440TIP3   OH228734   3.764   3.569  12.835 -0.5342  0.4667  0.2771
 2440TIP3    H128735   3.697   3.523  12.885  0.2834 -0.4301  0.5868
 2440TIP3    H228736   3.838   3.508  12.832 -0.2724  0.7984 -1.3597
 2441TIP3   OH228737   4.650   5.115   3.386 -0.2603  0.4504  0.2131
 2441TIP3    H128738   4.562   5.098   3.419 -0.6487  0.4225 -0.7941
 2441TIP3    H228739   4.654   5.211   3.376  0.1109  0.5237  1.0149
 2442TIP3   OH228740   0.936   5.977   4.357 -0.0840  0.3309 -0.5534
 2442TIP3    H128741   0.877   5.935   4.293  1.1814 -0.5959 -1.1503
 2442TIP3    H228742   1.009   5.916   4.366 -0.3466  0.2721  2.0523
 2443TIP3   OH228743   0.395   4.729  13.097 -0.2300  0.2423  0.9519
 2443TIP3    H128744   0.429   4.818  13.086 -0.8660  0.5068  1.1152
 2443TIP3    H228745   0.473   4.677  13.117  0.5093  0.3357 -1.3416
 2444TIP3   OH228746   0.592   3.041  11.620  0.3848  0.1121  0.3482
 2444TIP3    H128747   0.657   3.072  11.557 -0.2624  0.3334 -0.2255
 2444TIP3    H228748   0.594   2.946  11.612 -0.3790  0.1685 -0.7304
 2445TIP3   OH228749   1.997   2.467  15.964 -0.6206 -0.1375  0.0504
 2445TIP3    H128750   2.083   2.496  15.934 -0.2275 -0.8639  0.4309
 2445TIP3    H228751   1.980   2.387  15.914 -1.0078 -0.0797  0.0862
 2446TIP3   OH228752   5.185   1.256  13.542  0.1110  1.1053 -0.0214
 2446TIP3    H128753   5.101   1.240  13.584 -0.2412  1.5821 -0.5259
 2446TIP3    H228754   5.237   1.301  13.608  0.2734  0.0617  0.5833
 2447TIP3   OH228755   3.517   6.409   2.574 -0.1368  0.2620  0.2761
 2447TIP3    H128756   3.488   6.499   2.581 -0.1997  0.3850 -1.2419
 2447TIP3    H228757   3.447   6.364   2.527 -0.2365 -0.6518  1.2570
 2448TIP3   OH228758   4.295   4.944   5.845 -0.1981 -0.4830 -0.2031
 2448TIP3    H128759   4.229   4.970   5.909 -0.1930  1.0144 -0.7641
 2448TIP3    H228760   4.260   4.864   5.806 -0.6916 -0.8424  0.9286
 2449TIP3   OH228761   2.368   0.290  11.059 -0.5117  0.6983  0.3681
 2449TIP3    H128762   2.294   0.229  11.056 -0.5459  0.7675 -0.2797
 2449TIP3    H228763   2.345   0.358  10.996  0.8671 -0.1526 -1.1409
 2450TIP3   OH228764   5.940   5.737  14.818 -0.4946 -0.0944 -0.1974
 2450TIP3    H128765   5.889   5.679  14.762 -0.5172  1.3929 -1.8041
 2450TIP3    H228766   6.028   5.737  14.779  0.0875 -0.7004  1.0630
 2451TIP3   OH228767   3.111   1.097  11.316  0.0009  0.1672  0.5224
 2451TIP3    H128768   3.150   1.167  11.264 -1.1934  0.3806 -0.1245
 2451TIP3    H228769   3.038   1.066  11.263 -0.0067 -0.9998  1.1823
 2452TIP3   OH228770   4.500   2.089   6.289  0.3746  0.1422 -0.3032
 2452TIP3    H128771   4.513   2.093   6.384 -0.3663 -0.1456 -0.1795
 2452TIP3    H228772   4.549   2.011   6.262  0.8597  0.4111 -0.2073
 2453TIP3   OH228773   2.210   2.015  13.424 -0.1739 -0.0899 -0.3998
 2453TIP3    H128774   2.180   1.925  13.408  0.2533 -0.3676  0.3098
 2453TIP3    H228775   2.296   2.019  13.382 -1.1462  0.7146 -2.4584
 2454TIP3   OH228776   1.581   0.709  12.354 -0.2343  0.3978  0.5342
 2454TIP3    H128777   1.559   0.788  12.305  0.9948  0.0931 -0.5590
 2454TIP3    H228778   1.676   0.699  12.342 -0.5240 -1.8855 -0.3930
 2455TIP3   OH228779   3.333   0.684  16.144 -0.5033 -0.0308 -0.2388
 2455TIP3    H128780   3.382   0.640  16.214 -0.7822 -0.2721 -0.1952
 2455TIP3    H228781   3.246   0.699  16.181 -0.5243  0.2209 -0.3876
 2456TIP3   OH228782   3.645   0.550   0.835 -0.8306  0.2468  0.0296
 2456TIP3    H128783   3.644   0.501   0.917 -3.4788 -0.5635 -0.3922
 2456TIP3    H228784   3.609   0.636   0.857  1.5175  1.2366  0.2836
 2457TIP3   OH228785   2.219   6.430  14.046  0.1996 -0.3914  0.3122
 2457TIP3    H128786   2.205   6.523  14.064 -0.4640 -0.3012 -0.5676
 2457TIP3    H228787   2.292   6.429  13.984  0.4218 -0.4878  0.5715
 2458TIP3   OH228788   6.072   2.158  16.409  0.0761  0.5914  0.5225
 2458TIP3    H128789   6.037   2.074  16.439 -0.5313  0.6500  0.0024
 2458TIP3    H228790   6.134   2.184  16.477  0.7773 -0.5944  0.3750
 2459TIP3   OH228791   3.815   6.130  12.359 -1.0408  0.1421 -0.5463
 2459TIP3    H128792   3.743   6.079  12.398  0.4251 -3.0946 -1.7144
 2459TIP3    H228793   3.784   6.151  12.271 -0.7561 -0.9718 -0.9343
 2460TIP3   OH228794   4.816   5.783   0.518  0.9084  0.3244  0.3400
 2460TIP3    H128795   4.804   5.689   0.532 -0.1935  0.4528  0.3798
 2460TIP3    H228796   4.870   5.811   0.591 -0.0009 -0.0336  1.1842
 2461TIP3   OH228797   0.808   1.361   2.255  0.1970 -0.1861  0.3403
 2461TIP3    H128798   0.870   1.410   2.309 -2.3858  0.9037  2.5799
 2461TIP3    H228799   0.779   1.289   2.310 -1.0651 -0.2184 -0.3209
 2462TIP3   OH228800   4.803   5.569   4.257 -0.2864  0.3537 -0.5676
 2462TIP3    H128801   4.845   5.565   4.172  0.8318  0.2099 -0.0220
 2462TIP3    H228802   4.863   5.619   4.312 -1.7555  1.8793 -0.2683
 2463TIP3   OH228803   1.308   3.098   0.505 -0.1524 -0.0387  0.2052
 2463TIP3    H128804   1.213   3.093   0.504 -0.1535 -0.2969  1.0753
 2463TIP3    H228805   1.337   3.007   0.497  0.0837  0.1835 -2.5178
 2464TIP3   OH228806   5.560   6.172   5.685  0.2155 -0.6308  0.1915
 2464TIP3    H128807   5.531   6.187   5.595  0.9174 -1.7191 -0.2435
 2464TIP3    H228808   5.569   6.077   5.692  2.0593 -0.4655  0.7865
 2465TIP3   OH228809   3.091   3.115   4.934 -0.1680 -0.1968  0.2278
 2465TIP3    H128810   3.149   3.044   4.905  1.3870  0.3088  1.9226
 2465TIP3    H228811   3.038   3.076   5.003  0.5353  0.2047  1.0086
 2466TIP3   OH228812   2.686   5.041  13.353 -0.1807  0.1367 -0.1480
 2466TIP3    H128813   2.683   4.954  13.315  1.2440  0.3477 -0.8236
 2466TIP3    H228814   2.651   5.029  13.442  0.9480 -1.3447  0.1435
 2467TIP3   OH228815   1.697   2.925  15.763  0.5292  0.0197 -0.4954
 2467TIP3    H128816   1.624   2.894  15.710  1.1185  2.0171 -2.6346
 2467TIP3    H228817   1.759   2.852  15.762 -0.5731 -0.9480 -0.3273
 2468TIP3   OH228818   5.257   0.096   3.717 -0.4077  0.2590 -0.1363
 2468TIP3    H128819   5.240   0.134   3.631  1.0788  1.7443  0.1697
 2468TIP3    H228820   5.256   0.002   3.703 -1.2408  0.4565 -1.5539
 2469TIP3   OH228821   2.850   0.444   1.610 -0.0721 -0.4152 -0.6824
 2469TIP3    H128822   2.923   0.476   1.664 -0.6276  0.2218 -0.2976
 2469TIP3    H228823   2.834   0.356   1.643  0.4230 -0.5081 -0.6726
 2470TIP3   OH228824   0.121   1.713   0.955 -0.1174  0.3786  0.3778
 2470TIP3    H128825   0.050   1.754   0.905 -0.5584 -0.0990  0.5891
 2470TIP3    H228826   0.200   1.761   0.931 -0.6219  1.3882  0.6756
 2471TIP3   OH228827   1.627   4.867  13.931 -0.2948  0.3092 -0.6196
 2471TIP3    H128828   1.641   4.824  14.015 -2.3203  1.4842  0.4085
 2471TIP3    H228829   1.671   4.811  13.867  0.4200 -1.1636  1.0925
 2472TIP3   OH228830   1.495   2.126  11.232 -0.9330  0.2476  1.0141
 2472TIP3    H128831   1.569   2.127  11.293 -1.6870 -1.0992  2.0072
 2472TIP3    H228832   1.460   2.215  11.235  1.0775  1.1294 -0.0650
 2473TIP3   OH228833   4.384   5.111   2.412  0.4588  0.1930  0.3048
 2473TIP3    H128834   4.318   5.180   2.404  1.1725  0.6977 -2.3771
 2473TIP3    H228835   4.352   5.040   2.357  1.0194 -0.5305  0.8818
 2474TIP3   OH228836   1.043   0.999  11.022  0.2495 -0.1164  0.1462
 2474TIP3    H128837   1.023   1.093  11.030  0.0974 -0.2869  2.1183
 2474TIP3    H228838   1.111   0.984  11.087 -0.6372 -1.6361  0.7507
 2475TIP3   OH228839   0.184   0.633  14.114  0.1147 -0.2380 -0.7440
 2475TIP3    H128840   0.278   0.616  14.114 -0.0177 -1.2749  1.2279
 2475TIP3    H228841   0.144   0.548  14.098 -0.4874 -0.1275  0.0748
 2476TIP3   OH228842   3.102   0.177  10.532  0.4367 -0.0270  0.2353
 2476TIP3    H128843   3.145   0.091  10.542  1.1544  0.1313 -1.1891
 2476TIP3    H228844   3.013   0.156  10.504  0.6058 -0.3239 -0.0996
 2477TIP3   OH228845   4.219   5.029   0.342 -0.4822  0.5395 -0.5881
 2477TIP3    H128846   4.264   5.011   0.259  1.2880 -0.2866  0.4940
 2477TIP3    H228847   4.215   5.125   0.346 -2.3866  0.6037 -2.5029
 2478TIP3   OH228848   4.000   2.950   2.770 -0.1333  0.2348 -0.8686
 2478TIP3    H128849   3.947   2.916   2.698  0.5101 -0.0214 -1.2361
 2478TIP3    H228850   4.051   2.875   2.800  1.2520  0.8136 -1.6496
 2479TIP3   OH228851   5.199   1.096  12.597 -0.0998  0.1445  0.3570
 2479TIP3    H128852   5.249   1.079  12.677 -1.8410  1.8710  1.9272
 2479TIP3    H228853   5.134   1.162  12.623 -1.2334  0.2092 -2.3128
 2480TIP3   OH228854   5.579   0.493   4.208 -0.8570  0.1785 -0.2334
 2480TIP3    H128855   5.587   0.404   4.174  0.0989  0.6629 -1.3236
 2480TIP3    H228856   5.487   0.516   4.195 -1.8268 -1.5859  2.5500
 2481TIP3   OH228857   4.093   4.208   2.923 -0.2779 -0.2410  0.2784
 2481TIP3    H128858   4.135   4.266   2.987 -1.1584 -1.8020  2.3790
 2481TIP3    H228859   4.000   4.231   2.928 -0.4312 -0.8060  0.0380
 2482TIP3   OH228860   4.766   3.628   4.976 -0.2856 -0.2363  0.3487
 2482TIP3    H128861   4.696   3.576   5.014 -1.1567 -0.4017 -1.3689
 2482TIP3    H228862   4.820   3.565   4.928 -1.1808  0.3287 -1.4974
 2483TIP3   OH228863   3.683   5.979   2.636  0.6959  0.3066  0.3660
 2483TIP3    H128864   3.682   6.060   2.585 -1.4318  0.3210  0.3735
 2483TIP3    H228865   3.761   5.987   2.692 -0.1010  2.8995  1.2196
 2484TIP3   OH228866   3.080   6.306  13.699  0.5232 -0.5411 -0.3208
 2484TIP3    H128867   3.066   6.389  13.745 -1.1637 -1.2707  0.5753
 2484TIP3    H228868   3.102   6.244  13.769 -0.3545 -1.2987 -0.7013
 2485TIP3   OH228869   5.842   3.961  13.723  0.2904  0.0759  0.2056
 2485TIP3    H128870   5.824   3.906  13.647  1.0480  0.1879 -0.0686
 2485TIP3    H228871   5.758   3.968  13.769 -0.1417 -0.1052 -0.5428
 2486TIP3   OH228872   5.956   2.411  16.425  0.3355 -0.2323  0.4099
 2486TIP3    H128873   5.875   2.379  16.385  1.2480 -0.7008 -1.1441
 2486TIP3    H228874   6.011   2.333  16.436  0.1592 -0.1198  2.5987
 2487TIP3   OH228875   0.978   1.128   2.396  0.4352 -0.2888 -0.3267
 2487TIP3    H128876   1.033   1.192   2.351  0.0802 -0.4536 -1.0091
 2487TIP3    H228877   0.992   1.047   2.347  2.6422 -1.3698  1.8255
 2488TIP3   OH228878   5.467   1.722  17.270 -0.8096  0.2129 -0.0764
 2488TIP3    H128879   5.563   1.725  17.278 -0.3742 -3.5474 -2.1145
 2488TIP3    H228880   5.446   1.792  17.208  1.0911 -0.9421 -2.1575
 2489TIP3   OH228881   2.626   0.677  13.635  0.0243  0.3184 -0.3604
 2489TIP3    H128882   2.640   0.662  13.542  0.5678 -0.7463 -0.1313
 2489TIP3    H228883   2.647   0.593  13.676 -1.3743  0.4162  0.6135
 2490TIP3   OH228884   5.611   3.162   4.159 -0.0004  0.8548 -0.1696
 2490TIP3    H128885   5.534   3.219   4.155  0.1813  1.0519 -1.0815
 2490TIP3    H228886   5.657   3.191   4.238 -1.6432 -0.3155  1.3117
 2491TIP3   OH228887   1.560   2.495  12.552  0.4780  0.1783  0.4326
 2491TIP3    H128888   1.608   2.421  12.516  0.1373 -0.1622  0.6605
 2491TIP3    H228889   1.477   2.457  12.582  0.7071  0.4646  1.4766
 2492TIP3   OH228890   2.630   4.143  12.364  0.1571 -0.1505 -0.6411
 2492TIP3    H128891   2.714   4.102  12.341  0.9797 -0.0960  1.9247
 2492TIP3    H228892   2.655   4.231  12.395 -0.6017 -0.6282  1.5197
 2493TIP3   OH228893   3.947   4.988   1.653  0.2490  0.1497  0.2192
 2493TIP3    H128894   3.896   4.919   1.611  0.4031  0.0455  0.2039
 2493TIP3    H228895   3.961   5.053   1.583  0.4193  0.0232  0.1350
 2494TIP3   OH228896   5.188   0.757  15.756 -0.5516 -0.7464 -0.2272
 2494TIP3    H128897   5.187   0.663  15.736 -1.8258 -0.7441 -0.2784
 2494TIP3    H228898   5.133   0.766  15.834 -2.0576  0.1490 -1.3221
 2495TIP3   OH228899   1.090   3.414   5.923 -0.4028  0.5982 -0.4937
 2495TIP3    H128900   1.101   3.321   5.905 -0.9380  0.4213  0.0600
 2495TIP3    H228901   1.066   3.452   5.839 -2.1785 -0.0992 -0.3421
 2496TIP3   OH228902   5.199   0.875  12.829  0.4253 -0.3058 -0.0579
 2496TIP3    H128903   5.249   0.799  12.802  0.4821 -0.2668 -0.0630
 2496TIP3    H228904   5.265   0.942  12.849  0.3787 -0.2857  0.0284
 2497TIP3   OH228905   4.005   6.212   0.433  0.9310  0.2619  0.3727
 2497TIP3    H128906   4.075   6.199   0.369  1.0621  0.8366  0.3887
 2497TIP3    H228907   4.021   6.146   0.501  1.6208  0.5636  0.5101
 2498TIP3   OH228908   5.522   6.287  16.112 -0.6685  0.0232  0.7912
 2498TIP3    H128909   5.532   6.323  16.200  0.4910  0.1216  0.6438
 2498TIP3    H228910   5.547   6.195  16.121  1.0063  0.3872  0.3047
 2499TIP3   OH228911   6.364   4.235  16.205 -0.2184  0.8799  0.3142
 2499TIP3    H128912   6.425   4.172  16.166  0.2869  1.1452  0.6575
 2499TIP3    H228913   6.392   4.320  16.170 -1.2741  0.8649 -0.6237
 2500TIP3   OH228914   3.551   1.339   3.804 -0.7089  0.4792  0.9691
 2500TIP3    H128915   3.538   1.276   3.734  1.2726  0.7843  0.2672
 2500TIP3    H228916   3.474   1.329   3.860 -1.3639 -1.1777 -0.1576
 2501TIP3   OH228917   6.117   4.182   2.355  0.0979  0.4649 -0.0109
 2501TIP3    H128918   6.206   4.184   2.389  0.0373  0.8118  0.1297
 2501TIP3    H228919   6.126   4.200   2.261  0.1300  1.0515  0.1011
 2502TIP3   OH228920   3.090   2.443   0.276  0.1677  0.0131  0.0571
 2502TIP3    H128921   3.041   2.429   0.196  0.7852  0.0065 -0.3273
 2502TIP3    H228922   3.033   2.411   0.346 -1.4975  2.4515 -0.0987
 2503TIP3   OH228923   1.794   5.044  15.129  0.2784  0.1140  0.5276
 2503TIP3    H128924   1.877   5.078  15.096  0.0908  0.8407  0.7728
 2503TIP3    H228925   1.728   5.103  15.091  0.0330  0.7873  1.9410
 2504TIP3   OH228926   5.066   6.338  14.615  0.1538 -0.0744 -0.8863
 2504TIP3    H128927   5.081   6.391  14.693 -0.4494 -0.2641 -0.6410
 2504TIP3    H228928   5.081   6.248  14.644 -0.6162 -0.1947 -0.8477
 2505TIP3   OH228929   0.271   6.363  11.754  0.5796  0.1577  0.2583
 2505TIP3    H128930   0.217   6.309  11.696  0.0699  0.8737  0.0544
 2505TIP3    H228931   0.361   6.342  11.728  0.4507 -1.4679  0.9887
 2506TIP3   OH228932   4.314   2.643   2.684 -0.0041 -0.0564  0.1135
 2506TIP3    H128933   4.391   2.652   2.627  0.4575  0.3083  0.7876
 2506TIP3    H228934   4.337   2.572   2.744 -0.9049 -1.1635 -0.7935
 2507TIP3   OH228935   5.197   1.548  15.961 -0.0193  0.5238  0.2670
 2507TIP3    H128936   5.171   1.478  16.022  0.5530  0.3232  0.2826
 2507TIP3    H228937   5.197   1.627  16.015  0.9789  0.2691  0.6587
 2508TIP3   OH228938   3.484   5.672   1.166 -0.4281 -0.4418 -0.0469
 2508TIP3    H128939   3.422   5.602   1.145 -0.1436 -0.2608 -1.6270
 2508TIP3    H228940   3.451   5.710   1.248 -2.5620 -0.2004 -0.9603
 2509TIP3   OH228941   5.156   1.621   3.611  0.5763  0.1775  0.4729
 2509TIP3    H128942   5.123   1.683   3.546  2.9165  0.5119 -0.5042
 2509TIP3    H228943   5.243   1.596   3.579 -0.0906 -3.3884  0.9767
 2510TIP3   OH228944   4.636   6.351  15.057 -0.6349  0.2312  0.1384
 2510TIP3    H128945   4.685   6.431  15.042 -0.7628  0.2821 -0.0129
 2510TIP3    H228946   4.703   6.283  15.064 -0.5777  0.1146 -1.2341
 2511TIP3   OH228947   5.488   2.782   2.707  0.3546 -0.4749  0.0641
 2511TIP3    H128948   5.476   2.688   2.711 -0.3957 -0.3748  0.3535
 2511TIP3    H228949   5.474   2.812   2.797 -0.5787  0.0323 -0.2318
 2512TIP3   OH228950   5.352   2.425   1.484 -0.6404 -0.2854 -0.0796
 2512TIP3    H128951   5.321   2.484   1.415  2.0096  2.7766  1.0805
 2512TIP3    H228952   5.415   2.368   1.440  0.9578  1.5693 -0.3060
 2513TIP3   OH228953   2.905   4.539  11.584 -0.1149  0.3258  0.0198
 2513TIP3    H128954   2.954   4.614  11.617 -0.1851 -0.4993  2.1284
 2513TIP3    H228955   2.949   4.515  11.502 -0.0457  2.5656 -0.6571
 2514TIP3   OH228956   1.651   1.532  14.761  0.1211  0.4187  0.2866
 2514TIP3    H128957   1.642   1.436  14.760  1.3592  0.2683  1.1191
 2514TIP3    H228958   1.604   1.559  14.840 -2.7262  0.8492 -1.4140
 2515TIP3   OH228959   5.741   4.470  17.054  0.7009 -0.2251 -0.1361
 2515TIP3    H128960   5.766   4.561  17.073  1.9418  0.1715 -3.0717
 2515TIP3    H228961   5.824   4.426  17.038  0.0728 -1.7704  0.7421
 2516TIP3   OH228962   6.709   1.583   4.858 -0.1532 -0.4926 -0.2598
 2516TIP3    H128963   6.728   1.522   4.930  1.1844  0.5443  0.3047
 2516TIP3    H228964   6.773   1.653   4.868 -0.0636 -0.2011 -2.3509
 2517TIP3   OH228965   6.483   5.575   0.797  0.2073  0.1409  0.2839
 2517TIP3    H128966   6.517   5.526   0.723  0.1968  1.2659 -0.4941
 2517TIP3    H228967   6.440   5.651   0.758  0.3480  0.8499  1.4526
 2518TIP3   OH228968   0.265   1.580  15.469  0.7200 -0.6290  0.2695
 2518TIP3    H128969   0.277   1.488  15.446  0.4254 -0.0409 -2.6573
 2518TIP3    H228970   0.189   1.607  15.417  0.7938  1.2759  1.0788
 2519TIP3   OH228971   4.669   2.426   3.833  0.1620 -0.5208 -0.1808
 2519TIP3    H128972   4.690   2.360   3.767  3.1950 -0.3186  0.4250
 2519TIP3    H228973   4.701   2.508   3.797 -1.9488  0.3860 -0.1610
 2520TIP3   OH228974   0.807   3.447   6.782 -0.8339 -0.1486 -0.0738
 2520TIP3    H128975   0.770   3.512   6.721  0.9061  0.9801  0.0058
 2520TIP3    H228976   0.898   3.474   6.793 -0.6529 -1.3382  1.7153
 2521TIP3   OH228977   6.387   0.411  15.814 -0.8120 -0.5848 -0.2505
 2521TIP3    H128978   6.341   0.474  15.758  0.3135 -0.2008 -0.7779
 2521TIP3    H228979   6.329   0.335  15.818 -2.6490  0.7915  1.1630
 2522TIP3   OH228980   6.544   1.303   5.862 -0.1884 -0.3371  0.4582
 2522TIP3    H128981   6.555   1.209   5.845  3.3381 -0.2736  1.6038
 2522TIP3    H228982   6.504   1.338   5.783  1.3756 -2.3375 -1.3240
 2523TIP3   OH228983   0.731   1.770   5.993 -0.4507  0.5599  0.0464
 2523TIP3    H128984   0.687   1.850   5.965  0.1853  0.7626 -0.3981
 2523TIP3    H228985   0.750   1.785   6.086 -2.1910  0.0541  0.5363
 2524TIP3   OH228986   2.350   1.037   1.727  0.2700  0.3490  0.1317
 2524TIP3    H128987   2.304   0.973   1.782 -1.8703  1.4450 -0.2786
 2524TIP3    H228988   2.320   1.019   1.638  1.5967  0.3582 -0.3517
 2525TIP3   OH228989   2.477   2.476   0.442 -0.5036 -0.2013 -0.5153
 2525TIP3    H128990   2.397   2.454   0.395 -1.1569  0.2922  0.3200
 2525TIP3    H228991   2.463   2.566   0.472  0.8057  0.2745 -1.2319
 2526TIP3   OH228992   3.649   1.127  12.565  0.3709 -0.4443  0.5976
 2526TIP3    H128993   3.639   1.079  12.483  0.7856 -0.0891  0.3328
 2526TIP3    H228994   3.590   1.083  12.626  2.1205 -2.4830  0.9176
 2527TIP3   OH228995   3.067   3.000   0.837 -0.3816 -0.1424 -0.1318
 2527TIP3    H128996   3.032   3.064   0.776  1.7797  1.5114  0.2274
 2527TIP3    H228997   3.102   2.931   0.781 -0.3462  0.3013 -0.6700
 2528TIP3   OH228998   4.417   4.172  14.787 -0.2193 -0.4413  0.4616
 2528TIP3    H128999   4.396   4.165  14.694 -0.3273  1.3204  0.3068
 2528TIP3    H229000   4.362   4.243  14.818  2.1786  1.3132  1.0506
 2529TIP3   OH229001   0.858   4.558   5.984 -0.2898  0.0501  0.3436
 2529TIP3    H129002   0.764   4.569   6.000 -0.2819 -0.0178  0.4398
 2529TIP3    H229003   0.885   4.640   5.943 -0.1844  0.4831  1.2490
 2530TIP3   OH229004   3.254   2.177   4.489 -0.3230 -0.2947 -0.1639
 2530TIP3    H129005   3.198   2.126   4.547 -1.6325  0.9896 -0.2431
 2530TIP3    H229006   3.212   2.262   4.483  2.4044  1.2449  0.8988
 2531TIP3   OH229007   3.597   5.643  14.257  0.1381  0.1929 -0.0763
 2531TIP3    H129008   3.624   5.724  14.215  0.5231 -0.4796 -1.1522
 2531TIP3    H229009   3.645   5.574  14.212 -0.7325 -0.7102  0.3171
 2532TIP3   OH229010   4.850   5.624  14.612  0.1143 -0.3062  0.2550
 2532TIP3    H129011   4.920   5.626  14.548 -0.0335 -1.7777 -0.0071
 2532TIP3    H229012   4.797   5.548  14.587 -1.8184  0.9771  0.1957
 2533TIP3   OH229013   1.091   2.001  14.168  0.6220 -0.7554 -0.4930
 2533TIP3    H129014   1.126   1.919  14.203  0.1903 -0.9200 -0.4375
 2533TIP3    H229015   1.138   2.070  14.215  0.8372 -0.9722 -0.3893
 2534TIP3   OH229016   1.174   1.473   3.113 -0.2368  0.1738 -0.2693
 2534TIP3    H129017   1.268   1.484   3.100 -0.3823  3.0663  0.4022
 2534TIP3    H229018   1.163   1.468   3.208 -0.7219 -1.0102 -0.3698
 2535TIP3   OH229019   0.984   4.212   5.591 -0.3842 -0.5931 -0.1385
 2535TIP3    H129020   0.917   4.166   5.541 -1.6740  0.2196  0.7823
 2535TIP3    H229021   0.945   4.298   5.609  1.3087  0.2860 -0.4352
 2536TIP3   OH229022   3.435   4.116  16.681  0.9308  0.5317 -0.0444
 2536TIP3    H129023   3.449   4.187  16.743  0.6265 -0.0372  0.6882
 2536TIP3    H229024   3.463   4.152  16.597  2.6781  0.8681  0.6341
 2537TIP3   OH229025   1.501   3.184   3.900  0.3993  0.0326 -0.7812
 2537TIP3    H129026   1.575   3.221   3.948 -0.2439 -1.3231  1.4450
 2537TIP3    H229027   1.491   3.096   3.936 -2.1659  0.1024 -1.0990
 2538TIP3   OH229028   5.728   1.683  15.920  0.1726  0.8982  0.0253
 2538TIP3    H129029   5.651   1.692  15.977 -0.0197  0.3038 -0.1336
 2538TIP3    H229030   5.779   1.613  15.960 -0.2501  0.0810 -0.8421
 2539TIP3   OH229031   4.516   4.922  16.115  0.3766  0.1828 -0.0309
 2539TIP3    H129032   4.524   4.997  16.173  1.5942  2.6661 -3.1459
 2539TIP3    H229033   4.424   4.923  16.086  0.4839  0.7781 -0.3722
 2540TIP3   OH229034   1.601   3.508   2.630  0.6376  0.0696 -1.0480
 2540TIP3    H129035   1.677   3.529   2.684  1.3780 -0.2490 -1.9383
 2540TIP3    H229036   1.526   3.522   2.687  1.3689  0.3403 -0.1360
 2541TIP3   OH229037   0.577   3.038  13.720 -0.2006 -0.4256  0.0819
 2541TIP3    H129038   0.550   3.118  13.675 -0.4439 -0.5355  0.0335
 2541TIP3    H229039   0.622   2.987  13.652  0.4285 -0.1001  0.2411
 2542TIP3   OH229040   4.301   1.664   5.481  0.0762  0.3435  0.5875
 2542TIP3    H129041   4.366   1.624   5.424  1.2000  2.8468 -0.0215
 2542TIP3    H229042   4.295   1.606   5.556  1.3196 -1.1053 -0.3901
 2543TIP3   OH229043   6.020   6.418   0.081 -0.3382 -0.0465 -0.9209
 2543TIP3    H129044   6.098   6.365   0.097 -0.1486  0.6389  0.6225
 2543TIP3    H229045   5.953   6.379   0.138 -0.2849  1.1552 -0.0120
 2544TIP3   OH229046   4.808   1.626  14.370  0.3022 -0.0804 -0.7736
 2544TIP3    H129047   4.859   1.657  14.445 -1.4703  2.7430 -0.6127
 2544TIP3    H229048   4.723   1.602  14.407 -0.7668  1.8129 -1.8425
 2545TIP3   OH229049   4.961   6.428  17.074  0.6479 -0.2394 -0.0565
 2545TIP3    H129050   4.925   6.356  17.022  0.9735  0.9379 -2.0330
 2545TIP3    H229051   4.928   6.413  17.162  0.7168 -2.7858 -0.3993
 2546TIP3   OH229052   6.538   3.233  14.415 -0.5965  0.4958  0.7926
 2546TIP3    H129053   6.518   3.172  14.486 -1.4958  0.5877  0.6214
 2546TIP3    H229054   6.634   3.241  14.417 -0.5860  0.2256  1.7601
 2547TIP3   OH229055   4.623   0.374   4.400  0.4023  0.1400 -0.0910
 2547TIP3    H129056   4.566   0.298   4.390  1.4135 -0.6623  0.0911
 2547TIP3    H229057   4.689   0.346   4.463  0.4048  1.4146  0.5080
 2548TIP3   OH229058   5.425   0.628  11.387 -0.9197  0.2529 -0.2987
 2548TIP3    H129059   5.474   0.553  11.353  1.1890  1.2787  0.2902
 2548TIP3    H229060   5.355   0.642  11.323 -1.2755 -2.0741 -0.5024
 2549TIP3   OH229061   0.832   4.517  16.699 -0.1404 -0.4901  0.8560
 2549TIP3    H129062   0.738   4.518  16.714 -0.2729 -0.8716  0.0974
 2549TIP3    H229063   0.865   4.593  16.746 -0.9424  0.1708  0.3741
 2550TIP3   OH229064   4.562   2.998  11.123  0.0065 -0.5386  0.3245
 2550TIP3    H129065   4.506   3.063  11.165  0.7150 -0.5082  1.2597
 2550TIP3    H229066   4.644   3.001  11.172  0.2023 -1.8511  0.1302
 2551TIP3   OH229067   3.272   1.455   3.436 -0.3945 -0.9967  0.8017
 2551TIP3    H129068   3.303   1.419   3.352 -1.6148  1.2520 -0.7150
 2551TIP3    H229069   3.186   1.416   3.448 -0.7787 -0.3343  0.2912
 2552TIP3   OH229070   3.130   1.564  11.343  0.5254  0.5880  0.2589
 2552TIP3    H129071   3.124   1.605  11.256  2.6274  0.0081 -0.2396
 2552TIP3    H229072   3.190   1.620  11.392  1.1968 -0.3192  0.5168
 2553TIP3   OH229073   5.967   6.235  15.095 -0.0102  0.2503 -0.1842
 2553TIP3    H129074   5.919   6.312  15.062  0.1529  0.5226  0.2066
 2553TIP3    H229075   5.912   6.161  15.071 -0.9048  0.5965  0.7468
 2554TIP3   OH229076   6.365   2.394  12.042 -0.5540  0.3009  0.3212
 2554TIP3    H129077   6.440   2.405  11.984 -0.5694 -0.7795  0.0821
 2554TIP3    H229078   6.289   2.399  11.984 -0.5258 -2.3870 -0.0706
 2555TIP3   OH229079   2.961   3.364   3.687  0.2769 -0.0797  0.5040
 2555TIP3    H129080   2.875   3.406   3.686  0.0939 -0.4590  0.4742
 2555TIP3    H229081   3.021   3.434   3.661 -0.2065 -0.2300 -1.1399
 2556TIP3   OH229082   5.921   3.040  11.632  0.7413  0.4744  0.0354
 2556TIP3    H129083   5.905   3.010  11.543 -0.7346  0.7088  0.1871
 2556TIP3    H229084   5.834   3.039  11.673  1.0895  2.1744  0.8981
 2557TIP3   OH229085   1.567   1.016   5.687 -0.1491 -0.2250  0.6408
 2557TIP3    H129086   1.603   1.052   5.606 -1.4326 -0.9792 -0.3216
 2557TIP3    H229087   1.472   1.022   5.675 -0.3612 -0.3920  2.0854
 2558TIP3   OH229088   4.611   1.618  17.336  0.0017  0.0100  0.7086
 2558TIP3    H129089   4.523   1.608  17.373 -0.2459 -0.1866  0.0846
 2558TIP3    H229090   4.657   1.674  17.399 -0.3941 -0.3421  1.3238
 2559TIP3   OH229091   4.233   0.852   1.489 -0.2004 -0.7459  0.3239
 2559TIP3    H129092   4.320   0.890   1.476 -0.0198 -1.2574  0.0455
 2559TIP3    H229093   4.184   0.922   1.533  0.7950 -1.0126  1.9155
 2560TIP3   OH229094   0.055   0.802   6.532  0.1679  0.0070 -0.1274
 2560TIP3    H129095   0.040   0.729   6.472 -0.1918 -0.7624  0.8812
 2560TIP3    H229096  -0.019   0.861   6.518  0.8284  0.5705 -1.4649
 2561TIP3   OH229097   3.551   2.766   2.201 -0.4022 -0.3213 -0.3961
 2561TIP3    H129098   3.604   2.710   2.143  1.1455 -0.0203  0.6753
 2561TIP3    H229099   3.557   2.853   2.161 -0.7013 -0.4223 -0.6678
 2562TIP3   OH229100   1.533   4.926  12.599 -0.1341 -0.4689 -0.1324
 2562TIP3    H129101   1.570   4.878  12.673  0.7979 -0.1639 -0.3929
 2562TIP3    H229102   1.608   4.951  12.547 -0.7064  0.2687 -0.6148
 2563TIP3   OH229103   6.659   0.340   4.670 -0.3013  0.2172  0.0247
 2563TIP3    H129104   6.681   0.246   4.672 -1.4452 -0.1157 -1.2872
 2563TIP3    H229105   6.741   0.384   4.691  0.0904 -1.0855  1.4131
 2564TIP3   OH229106   6.566   1.229  17.004  0.1188  0.0166  0.3588
 2564TIP3    H129107   6.643   1.236  16.948  0.2336  1.4981  0.6533
 2564TIP3    H229108   6.500   1.187  16.949  0.5238  0.5828 -0.5944
 2565TIP3   OH229109   3.022   4.088   4.814  0.1706  0.1297 -0.2926
 2565TIP3    H129110   3.014   4.051   4.902  1.5452 -0.0787 -0.2425
 2565TIP3    H229111   2.974   4.027   4.758  0.8504 -0.7460  0.0536
 2566TIP3   OH229112   2.674   4.618   7.208  0.3382 -0.0185 -0.0324
 2566TIP3    H129113   2.604   4.598   7.146  1.5148 -0.5159 -1.2454
 2566TIP3    H229114   2.750   4.572   7.173  0.7075 -1.5916  2.5967
 2567TIP3   OH229115   0.650   2.552  13.764  0.3546  0.4254  0.6193
 2567TIP3    H129116   0.598   2.623  13.728  0.8471  0.6497  0.3402
 2567TIP3    H229117   0.741   2.579  13.750  0.5626 -0.7530 -0.5039
 2568TIP3   OH229118   1.932   6.676  12.711 -0.2936 -0.6155 -0.2932
 2568TIP3    H129119   1.885   6.690  12.628 -0.8094  0.1824  0.1157
 2568TIP3    H229120   2.023   6.660  12.685 -0.2955  0.4122 -0.9877
 2569TIP3   OH229121   1.515   2.816   2.845 -0.9221 -0.2379  0.0982
 2569TIP3    H129122   1.500   2.890   2.904 -0.6172  0.0041 -0.1217
 2569TIP3    H229123   1.607   2.826   2.818 -0.9693 -0.5238 -0.1705
 2570TIP3   OH229124   3.838   0.841   2.131  0.0347  0.0071 -0.0323
 2570TIP3    H129125   3.789   0.827   2.050 -2.5806  3.9798  0.6262
 2570TIP3    H229126   3.910   0.899   2.106 -0.6558  1.0721  0.3788
 2571TIP3   OH229127   3.683   4.991   3.942  0.0666  0.3471  0.1060
 2571TIP3    H129128   3.643   5.059   3.997 -0.7407 -0.1472  0.1534
 2571TIP3    H229129   3.773   4.984   3.974  0.5193  2.1729 -0.6420
 2572TIP3   OH229130   1.141   0.365   3.100 -0.3494 -0.4651  0.1330
 2572TIP3    H129131   1.106   0.379   3.012  0.4154 -0.2130 -0.1368
 2572TIP3    H229132   1.170   0.274   3.101  3.6132  0.5969 -1.3519
 2573TIP3   OH229133   1.879   3.495   4.903 -0.3531 -0.2660 -0.2235
 2573TIP3    H129134   1.804   3.504   4.845 -0.7746 -1.6353  0.0707
 2573TIP3    H229135   1.880   3.402   4.926  0.7922 -0.0575  0.6332
 2574TIP3   OH229136   5.129   5.550  16.651  0.2012  0.1382  0.2708
 2574TIP3    H129137   5.220   5.534  16.674  0.0880  0.4086  0.9487
 2574TIP3    H229138   5.116   5.643  16.669  0.1156  0.3807 -0.9791
 2575TIP3   OH229139   6.011   3.239   3.314  0.3520  0.6967  0.2881
 2575TIP3    H129140   6.027   3.302   3.384 -0.1181  0.4929  0.5906
 2575TIP3    H229141   5.923   3.261   3.282 -0.6902 -0.9946  1.7314
 2576TIP3   OH229142   3.236   2.518  12.953 -0.0302  0.5239 -0.3634
 2576TIP3    H129143   3.155   2.509  13.003  0.5212 -0.4642  0.3982
 2576TIP3    H229144   3.259   2.611  12.962 -1.4885  0.9942 -1.2832
 2577TIP3   OH229145   1.609   5.423  11.561  0.4076  0.0606  0.3001
 2577TIP3    H129146   1.558   5.480  11.504  0.5704  0.4415  0.5353
 2577TIP3    H229147   1.687   5.401  11.509 -1.1020 -2.5524 -1.0692
 2578TIP3   OH229148   5.999   4.003   2.158  0.6913 -0.3653  1.0874
 2578TIP3    H129149   6.000   4.092   2.120 -0.5458 -0.3353  1.0782
 2578TIP3    H229150   6.060   4.008   2.231  0.8539  0.4260  0.9142
 2579TIP3   OH229151   4.256   4.251   0.090 -0.0619  0.0241 -0.8919
 2579TIP3    H129152   4.187   4.210   0.038  0.2328  0.2985 -1.5131
 2579TIP3    H229153   4.337   4.216   0.053  0.1541  0.2456 -0.6294
 2580TIP3   OH229154   1.632   4.955   0.866 -0.2122  0.2482 -0.0764
 2580TIP3    H129155   1.670   5.015   0.802 -2.9711 -0.0701 -2.2419
 2580TIP3    H229156   1.697   4.886   0.877  1.1723  1.3593 -0.9900
 2581TIP3   OH229157   5.371   0.221  15.227  0.3159 -0.0677  0.0731
 2581TIP3    H129158   5.433   0.211  15.298 -1.2257 -1.8917  1.2465
 2581TIP3    H229159   5.316   0.143  15.231 -1.7104  1.1866 -1.2374
 2582TIP3   OH229160   1.207   5.897  12.435 -0.1486 -0.6743 -0.4207
 2582TIP3    H129161   1.179   5.809  12.460 -2.3438  0.5661  1.9061
 2582TIP3    H229162   1.133   5.953  12.457  1.6508  1.9401 -0.6021
 2583TIP3   OH229163   5.805   0.888   5.736  0.1342 -0.1596  0.0737
 2583TIP3    H129164   5.768   0.807   5.700  1.5726 -0.6723 -0.3431
 2583TIP3    H229165   5.858   0.859   5.810  0.3594  0.4412  0.1519
 2584TIP3   OH229166   1.444   5.647   5.959 -0.0899 -0.3076 -0.8550
 2584TIP3    H129167   1.455   5.615   6.049 -0.9909 -1.8223 -1.2681
 2584TIP3    H229168   1.420   5.740   5.970  1.2385 -0.0795  0.3988
 2585TIP3   OH229169   4.902   0.117   4.380  0.0682  0.2641  0.1935
 2585TIP3    H129170   4.940   0.205   4.385 -1.6386  1.0778 -0.2450
 2585TIP3    H229171   4.855   0.107   4.463  0.3440 -0.2740  0.2839
 2586TIP3   OH229172   2.168   3.207  14.820 -0.6870 -0.2711  0.3954
 2586TIP3    H129173   2.137   3.176  14.905 -0.2786  1.4703  1.2220
 2586TIP3    H229174   2.263   3.211  14.829 -0.6642  0.2727 -0.0144
 2587TIP3   OH229175   5.071   1.705   1.955 -0.1621  0.3189  0.1810
 2587TIP3    H129176   5.011   1.657   2.011 -0.3492  1.8541  1.3815
 2587TIP3    H229177   5.111   1.771   2.013  0.6729  1.0781 -1.1835
 2588TIP3   OH229178   0.894   2.827  13.233  0.3063  0.1613 -0.2762
 2588TIP3    H129179   0.906   2.898  13.170 -1.6796  1.9496  1.2021
 2588TIP3    H229180   0.957   2.845  13.303  1.1493 -0.7050 -0.7810
 2589TIP3   OH229181   1.136   4.551  15.269  1.3052 -0.3449  0.5449
 2589TIP3    H129182   1.100   4.529  15.183 -0.0862  1.6168  0.5704
 2589TIP3    H229183   1.060   4.579  15.320  2.4137  0.5633  1.7395
 2590TIP3   OH229184   5.346   0.472  14.614 -0.0419 -0.4475  0.2581
 2590TIP3    H129185   5.419   0.527  14.642  0.3532 -0.3102 -0.9592
 2590TIP3    H229186   5.268   0.523  14.635  0.2841  0.1159  0.1183
 2591TIP3   OH229187   4.476   5.263  13.335 -0.4031 -0.1517 -0.2900
 2591TIP3    H129188   4.566   5.233  13.348  0.3937  2.2023  0.1451
 2591TIP3    H229189   4.441   5.208  13.265  1.4025 -1.0478 -0.5255
 2592TIP3   OH229190   1.537   5.863  14.464  0.1407  0.0398  0.4931
 2592TIP3    H129191   1.529   5.931  14.530  0.0503 -0.2791  0.8191
 2592TIP3    H229192   1.461   5.807  14.478 -0.5440  0.6508 -0.6887
 2593TIP3   OH229193   1.921   5.605  12.189  0.1216 -0.1468  0.5880
 2593TIP3    H129194   1.930   5.621  12.095  0.7185 -1.4028  0.4105
 2593TIP3    H229195   1.845   5.656  12.215  0.4336  0.8714 -0.4145
 2594TIP3   OH229196   2.160   1.541   6.018 -0.2791 -0.2979 -0.2353
 2594TIP3    H129197   2.147   1.506   6.106  0.3675  0.1873  0.0584
 2594TIP3    H229198   2.179   1.464   5.964  0.5806 -0.4719  0.2990
 2595TIP3   OH229199   5.620   2.750  14.069 -0.0664 -0.1952 -0.2577
 2595TIP3    H129200   5.705   2.789  14.047 -1.0804  1.0315 -2.3332
 2595TIP3    H229201   5.641   2.658  14.088  1.6794 -0.0879 -1.3766
 2596TIP3   OH229202   5.330   5.908  11.765  0.5786 -0.4614  0.4574
 2596TIP3    H129203   5.383   5.847  11.816  2.2531  1.5410  1.2676
 2596TIP3    H229204   5.391   5.944  11.700 -0.5140 -0.0843 -0.3817
 2597TIP3   OH229205   2.303   3.997   1.647 -0.2350  0.0436  0.0421
 2597TIP3    H129206   2.291   3.909   1.683 -2.8414  0.3360  0.0572
 2597TIP3    H229207   2.263   4.055   1.712  1.6438  1.3202  0.1511
 2598TIP3   OH229208   0.971   3.310   0.124  0.1871  0.1215 -0.4751
 2598TIP3    H129209   0.921   3.387   0.098 -2.4770 -1.9059 -1.7879
 2598TIP3    H229210   0.950   3.298   0.217 -0.8455 -0.0283 -0.7203
 2599TIP3   OH229211   5.292   6.408  16.303 -0.0272 -0.1528 -0.5122
 2599TIP3    H129212   5.275   6.497  16.270  0.7339  0.1119 -0.2177
 2599TIP3    H229213   5.382   6.412  16.336  0.6591 -1.5047 -2.0931
 2600TIP3   OH229214   6.304   2.638  11.522  0.3427  0.2534  0.2087
 2600TIP3    H129215   6.260   2.721  11.537  0.6722  0.8090 -1.6437
 2600TIP3    H229216   6.396   2.656  11.541  0.6704  0.8071 -1.6216
 2601TIP3   OH229217   0.343   2.265  11.525 -0.1494  0.5901  0.0237
 2601TIP3    H129218   0.347   2.280  11.430 -0.7601  3.3143  0.3357
 2601TIP3    H229219   0.299   2.181  11.535 -0.5305  0.4945 -2.1010
 2602TIP3   OH229220   3.406   1.269  17.219  0.5460 -0.2907  0.1452
 2602TIP3    H129221   3.356   1.283  17.138 -0.2057  1.0347  0.8136
 2602TIP3    H229222   3.351   1.210  17.270  0.1201  0.3714  0.4630
 2603TIP3   OH229223   1.579   3.188  15.762 -0.5227  0.4508  0.3897
 2603TIP3    H129224   1.520   3.138  15.706 -1.0814  0.1257  1.2449
 2603TIP3    H229225   1.582   3.139  15.843  0.1846  0.9725  0.6914
 2604TIP3   OH229226   4.921   4.228  15.881  0.0088  0.0700 -1.1353
 2604TIP3    H129227   5.012   4.203  15.900  0.3333  1.9423  0.0887
 2604TIP3    H229228   4.927   4.275  15.798 -0.1201 -1.2206 -1.8875
 2605TIP3   OH229229   1.420   2.573  15.905  0.1338  0.3197  0.0611
 2605TIP3    H129230   1.386   2.494  15.862 -0.5186  0.2433  0.7112
 2605TIP3    H229231   1.417   2.553  15.998  0.1071  1.0653  0.2242
 2606TIP3   OH229232   2.322   5.780   0.368  0.1596 -0.1783 -0.1032
 2606TIP3    H129233   2.405   5.733   0.369 -0.9541 -2.4449 -2.0371
 2606TIP3    H229234   2.271   5.741   0.440  0.1375 -0.1565 -0.1070
 2607TIP3   OH229235   2.919   1.657   3.735 -0.6484  0.8790 -0.2535
 2607TIP3    H129236   2.950   1.604   3.808 -0.1476  2.1313  0.4831
 2607TIP3    H229237   2.936   1.604   3.658 -1.0608 -0.4187  0.5093
 2608TIP3   OH229238   1.592   1.682  15.254  0.0069 -0.3168 -0.2159
 2608TIP3    H129239   1.686   1.664  15.250  0.0098 -0.1636 -0.9258
 2608TIP3    H229240   1.580   1.724  15.339  0.1693 -2.6748  1.0662
 2609TIP3   OH229241   4.464   4.732  16.607  0.5925 -0.4396  0.6838
 2609TIP3    H129242   4.413   4.798  16.654  1.7506  0.4174  0.7934
 2609TIP3    H229243   4.454   4.653  16.659  2.5128  0.6837  2.9494
 2610TIP3   OH229244   2.634   2.027   2.611 -0.0560 -0.0788  0.4421
 2610TIP3    H129245   2.713   2.046   2.660  0.4546 -0.7589 -0.0885
 2610TIP3    H229246   2.574   2.099   2.632  0.0283 -0.5061  2.2704
 2611TIP3   OH229247   6.081   4.228   2.777  0.3380 -0.4864 -0.0670
 2611TIP3    H129248   6.117   4.282   2.848 -0.6902 -0.1763  0.2396
 2611TIP3    H229249   6.150   4.165   2.758  1.1778  0.3066  0.2535
 2612TIP3   OH229250   0.517   4.329  15.375 -0.1086  0.0700 -0.5773
 2612TIP3    H129251   0.601   4.370  15.355  0.1664 -0.5564 -0.7021
 2612TIP3    H229252   0.453   4.383  15.327  0.4237 -0.6989 -2.2200
 2613TIP3   OH229253   1.961   4.226   5.080 -0.3100 -0.2751  0.7256
 2613TIP3    H129254   1.907   4.276   5.141 -0.0570 -2.2223  2.6717
 2613TIP3    H229255   2.032   4.192   5.135  1.0332 -0.5247 -1.0935
 2614TIP3   OH229256   1.373   3.635  16.885 -0.0178  0.2321 -0.4693
 2614TIP3    H129257   1.281   3.616  16.899 -0.2745  3.1815  3.1815
 2614TIP3    H229258   1.376   3.681  16.801 -1.1173 -3.2657 -2.6303
 2615TIP3   OH229259   5.898   0.480  13.997 -0.1036  0.1286 -0.0092
 2615TIP3    H129260   5.838   0.549  14.023  0.0518  0.2391  0.0623
 2615TIP3    H229261   5.937   0.512  13.916  0.0327  0.1660  0.0699
 2616TIP3   OH229262   4.536   3.090  14.009  0.4162 -0.5074  0.4449
 2616TIP3    H129263   4.545   3.001  14.042  0.8823 -0.5497  0.2253
 2616TIP3    H229264   4.626   3.124  14.009  0.2207  0.0268  0.7033
 2617TIP3   OH229265   3.989   4.294   5.032  0.0962 -0.1548  0.2377
 2617TIP3    H129266   3.987   4.369   5.092 -0.7620  0.1712 -0.1753
 2617TIP3    H229267   3.907   4.248   5.050  0.5747 -0.9457  0.4152
 2618TIP3   OH229268   4.932   4.530   4.434  0.1565  0.4945 -0.4572
 2618TIP3    H129269   4.877   4.517   4.357 -0.5072  1.1900 -0.1240
 2618TIP3    H229270   4.883   4.594   4.487  0.3763 -0.3026  0.7467
 2619TIP3   OH229271   0.621   2.987   1.837 -0.5393  0.2111  0.5245
 2619TIP3    H129272   0.649   2.959   1.750 -1.8627  1.8624 -0.5050
 2619TIP3    H229273   0.674   3.064   1.856 -2.4373  1.8321 -0.3358
 2620TIP3   OH229274   4.606   4.896   2.200 -0.3227 -0.3521  0.1544
 2620TIP3    H129275   4.548   4.936   2.136  1.9430  1.4145 -0.9235
 2620TIP3    H229276   4.627   4.810   2.163 -1.3172 -0.5350 -0.0021
 2621TIP3   OH229277   4.294   4.396  12.639 -0.5736  0.0485  0.0036
 2621TIP3    H129278   4.349   4.412  12.562 -1.0608 -2.3903 -0.9217
 2621TIP3    H229279   4.227   4.465  12.634  1.1789  1.8742  0.0806
 2622TIP3   OH229280   4.270   5.516  14.088  0.2230  0.6446 -0.4179
 2622TIP3    H129281   4.346   5.574  14.094  1.3049 -0.6583 -0.8834
 2622TIP3    H229282   4.239   5.526  13.998  0.1686  0.7991 -0.3807
 2623TIP3   OH229283   5.895   2.233  12.516  0.1814 -0.2563  0.7482
 2623TIP3    H129284   5.975   2.284  12.528  1.0307 -1.2569 -0.3587
 2623TIP3    H229285   5.852   2.275  12.441  0.7170 -0.9164  0.0467
 2624TIP3   OH229286   2.332   0.815   5.415 -0.5433 -0.3140  0.5495
 2624TIP3    H129287   2.426   0.805   5.424 -0.5034 -0.3314  0.1426
 2624TIP3    H229288   2.294   0.740   5.461 -0.3009 -1.4279 -0.9977
 2625TIP3   OH229289   0.752   4.280   2.336 -1.0277  0.1917  0.7920
 2625TIP3    H129290   0.811   4.348   2.368  0.1089 -0.4876  0.1950
 2625TIP3    H229291   0.673   4.291   2.389 -0.3644  1.0951  1.6491
 2626TIP3   OH229292   3.273   5.061   2.277 -0.1647  0.6979 -0.4508
 2626TIP3    H129293   3.364   5.089   2.282  0.4521 -1.1929 -0.2315
 2626TIP3    H229294   3.273   4.992   2.211 -1.5868  1.1170 -0.9246
 2627TIP3   OH229295   4.652   5.715   0.888  0.2236  0.3357 -0.2629
 2627TIP3    H129296   4.617   5.730   0.976  2.0901 -0.4721  0.6628
 2627TIP3    H229297   4.636   5.622   0.872  2.1499 -0.1389  0.3216
 2628TIP3   OH229298   4.192   2.986  11.235 -0.0150 -0.2411 -0.4868
 2628TIP3    H129299   4.224   3.057  11.179 -0.4222 -0.4210 -0.9630
 2628TIP3    H229300   4.175   2.914  11.174 -1.8833  0.0485 -0.3666
 2629TIP3   OH229301   6.205   1.044  16.972  0.4402 -0.0991 -0.4346
 2629TIP3    H129302   6.159   1.088  17.044 -0.1441 -1.7459  0.2658
 2629TIP3    H229303   6.172   0.954  16.975  1.0761 -0.4210 -2.2230
 2630TIP3   OH229304   5.520   6.168   0.248  0.3744  0.1393  0.2362
 2630TIP3    H129305   5.540   6.097   0.309  0.6061  0.2530  0.2940
 2630TIP3    H229306   5.434   6.200   0.276  1.2899  1.4361  1.6888
 2631TIP3   OH229307   1.076   0.538   2.830  0.3420  0.5862  0.3316
 2631TIP3    H129308   1.114   0.595   2.897  0.6534  0.8347 -0.0504
 2631TIP3    H229309   1.081   0.589   2.749 -3.1487  1.7342  0.6354
 2632TIP3   OH229310   0.134   4.395   3.297 -0.4448  0.2353  0.3994
 2632TIP3    H129311   0.185   4.315   3.312  0.8690  1.1249  0.8441
 2632TIP3    H229312   0.068   4.369   3.233 -0.3985 -1.3415  0.9424
 2633TIP3   OH229313   1.801   1.345   1.385  0.3527  0.1956 -0.1395
 2633TIP3    H129314   1.784   1.260   1.424 -0.0855  1.2435  2.0910
 2633TIP3    H229315   1.897   1.352   1.385  0.3766 -0.1116  0.0540
 2634TIP3   OH229316   4.511   5.645   0.508  0.0216 -0.3274 -0.4944
 2634TIP3    H129317   4.578   5.579   0.524 -1.4684 -1.7638  0.1355
 2634TIP3    H229318   4.455   5.607   0.440 -1.2621 -0.0578  0.3599
 2635TIP3   OH229319   2.786   1.740  15.277 -0.2741 -0.1667  0.3476
 2635TIP3    H129320   2.777   1.834  15.294  0.7177 -0.0986  0.6082
 2635TIP3    H229321   2.863   1.715  15.328  1.1520 -0.5440 -1.8774
 2636TIP3   OH229322   3.408   6.602  14.049  0.2573 -0.1778  0.4185
 2636TIP3    H129323   3.496   6.591  14.012  0.3418  0.8387  0.2923
 2636TIP3    H229324   3.367   6.516  14.038  1.5303 -0.9286  1.3048
 2637TIP3   OH229325   6.091   5.531  15.725  0.4363  0.3584 -0.2056
 2637TIP3    H129326   6.017   5.471  15.724  0.3102  0.5121 -0.1976
 2637TIP3    H229327   6.093   5.566  15.814  0.2505  0.6804 -0.3242
 2638TIP3   OH229328   0.785   1.795   3.273  0.5772  0.0792  0.5790
 2638TIP3    H129329   0.750   1.814   3.360  1.1628  0.9567  0.6388
 2638TIP3    H229330   0.871   1.837   3.272  0.3141  0.6224 -0.6471
 2639TIP3   OH229331   4.029   4.694  16.019  0.2052 -0.0180  0.0060
 2639TIP3    H129332   4.056   4.695  16.110  0.5294 -2.5329  0.0155
 2639TIP3    H229333   4.046   4.604  15.990 -2.7033 -0.1456 -1.6748
 2640TIP3   OH229334   2.803   3.276  16.652 -0.0998  0.1756 -0.0535
 2640TIP3    H129335   2.867   3.339  16.684  0.7628 -0.4853 -0.4260
 2640TIP3    H229336   2.771   3.232  16.732  0.4953 -0.0272  0.0791
 2641TIP3   OH229337   6.535   2.302   2.826 -0.6895 -0.5287 -0.0346
 2641TIP3    H129338   6.629   2.303   2.846 -0.4601  2.0995 -0.7971
 2641TIP3    H229339   6.496   2.254   2.899  1.1682 -0.9675  0.7379
 2642TIP3   OH229340   3.124   6.364   5.651  0.4808 -0.0709  0.1990
 2642TIP3    H129341   3.090   6.377   5.563 -0.8223  1.9312  0.9334
 2642TIP3    H229342   3.141   6.452   5.684  1.5999 -0.8041  1.7246
 2643TIP3   OH229343   2.450   2.930  15.480  0.1083  0.0075 -0.0139
 2643TIP3    H129344   2.397   2.985  15.423 -2.4428 -2.2610 -0.0352
 2643TIP3    H229345   2.439   2.968  15.567 -1.0307 -0.0253 -0.1339
 2644TIP3   OH229346   1.127   2.898   0.269  0.2827  0.5511  0.2480
 2644TIP3    H129347   1.082   2.851   0.198  1.1886 -0.1136  0.0908
 2644TIP3    H229348   1.162   2.828   0.325  0.4126  1.0651  0.8128
 2645TIP3   OH229349   5.452   0.126  13.187  0.1284 -0.2765 -0.0320
 2645TIP3    H129350   5.422   0.117  13.097 -1.0509  1.9135  0.0819
 2645TIP3    H229351   5.374   0.111  13.240  1.0893 -3.0674  0.8075
 2646TIP3   OH229352   3.336   6.304   3.167 -0.0962  0.3304  0.2565
 2646TIP3    H129353   3.314   6.397   3.159 -0.9730  0.2948  1.8934
 2646TIP3    H229354   3.361   6.294   3.259  1.8363 -0.6912 -0.3308
 2647TIP3   OH229355   6.722   6.667   1.515 -0.2146 -0.4088  0.0140
 2647TIP3    H129356   6.813   6.691   1.501  0.8966 -3.6092  0.9166
 2647TIP3    H229357   6.711   6.667   1.610 -2.0056  2.3519 -0.0660
 2648TIP3   OH229358   1.655   0.487   6.399 -0.6234  0.1108 -0.1069
 2648TIP3    H129359   1.680   0.400   6.431  1.3969 -0.7751 -3.6105
 2648TIP3    H229360   1.732   0.542   6.416 -0.4422  0.2178 -1.2174
 2649TIP3   OH229361   1.952   6.067   4.795 -0.3572  0.5183 -0.0927
 2649TIP3    H129362   2.002   6.139   4.834 -2.9005  2.4311 -0.1091
 2649TIP3    H229363   1.882   6.050   4.858 -0.3000 -1.4203 -0.5015
 2650TIP3   OH229364   6.035   0.070  11.721 -0.1845  0.6120  0.0409
 2650TIP3    H129365   6.065   0.107  11.804 -1.8123  3.3295 -0.4449
 2650TIP3    H229366   5.940   0.060  11.732 -0.0167 -2.3417 -0.3761
 2651TIP3   OH229367   3.722   0.600  15.126 -0.4253 -0.5548 -0.8776
 2651TIP3    H129368   3.647   0.559  15.083 -0.5452 -0.6644 -0.5659
 2651TIP3    H229369   3.769   0.528  15.167  1.1659 -0.8339 -2.9926
 2652TIP3   OH229370   4.990   2.694   4.146  0.1427  0.0339 -0.2044
 2652TIP3    H129371   5.018   2.603   4.133  0.3522 -0.0303  0.6709
 2652TIP3    H229372   4.934   2.692   4.223  1.2217  0.8390  0.6404
 2653TIP3   OH229373   5.107   4.221   4.793 -0.4330  0.5214  0.5100
 2653TIP3    H129374   5.100   4.125   4.799 -1.1645  0.2960 -2.4235
 2653TIP3    H229375   5.051   4.253   4.864 -2.7338 -1.2935 -0.3393
 2654TIP3   OH229376   3.718   4.147   5.022  0.0576 -0.6093 -0.1359
 2654TIP3    H129377   3.717   4.086   4.948 -1.4783 -1.1175  0.2567
 2654TIP3    H229378   3.635   4.196   5.013  0.8832  0.8784  0.0151
 2655TIP3   OH229379   1.177   1.440   5.958  0.5265  0.3691 -0.3482
 2655TIP3    H129380   1.198   1.518   6.010 -1.0709 -0.2799  1.3665
 2655TIP3    H229381   1.215   1.368   6.007  0.2859 -0.1346 -0.8925
 2656TIP3   OH229382   1.164   3.373   4.821 -0.7189  0.2447  0.7824
 2656TIP3    H129383   1.088   3.364   4.878 -0.0576 -1.0486  1.5154
 2656TIP3    H229384   1.144   3.318   4.745 -0.6939  0.2463  0.7747
 2657TIP3   OH229385   5.129   1.536  15.475 -0.2838  0.0565  0.0186
 2657TIP3    H129386   5.039   1.551  15.446 -0.3647 -2.2642 -1.1224
 2657TIP3    H229387   5.180   1.529  15.394  0.8707  0.8484  0.6437
 2658TIP3   OH229388   1.179   0.767  14.435  0.5290  0.3939 -0.3668
 2658TIP3    H129389   1.128   0.781  14.515  1.4194 -0.5377  0.3821
 2658TIP3    H229390   1.213   0.678  14.443  1.2482  0.5560 -1.4339
 2659TIP3   OH229391   3.139   0.070   0.671  0.7611 -0.3306 -0.2317
 2659TIP3    H129392   3.156   0.071   0.765  1.2204 -0.8803 -0.2996
 2659TIP3    H229393   3.201   0.134   0.635  0.2231  0.2686 -0.1127
 2660TIP3   OH229394   0.901   3.607  11.459  0.1360  0.4018  0.8348
 2660TIP3    H129395   0.842   3.661  11.406 -0.1792  0.2020  0.9721
 2660TIP3    H229396   0.851   3.589  11.539  0.9910  1.5412  1.6512
 2661TIP3   OH229397   1.771   2.716   5.547  0.2695 -0.0689  0.0401
 2661TIP3    H129398   1.720   2.647   5.590 -0.5512 -0.8898 -2.1141
 2661TIP3    H229399   1.832   2.670   5.490 -0.4161  0.9036 -1.5800
 2662TIP3   OH229400   0.045   0.559  13.270  0.0817 -0.1832  0.2118
 2662TIP3    H129401   0.039   0.494  13.340  1.1430  1.8210  2.2912
 2662TIP3    H229402   0.122   0.533  13.220 -0.2175 -1.1907  0.2526
 2663TIP3   OH229403   3.898   1.345  14.706 -0.1111 -0.4400 -0.1919
 2663TIP3    H129404   3.937   1.387  14.783  0.5508 -0.5749 -0.4483
 2663TIP3    H229405   3.908   1.251  14.723 -1.7658 -0.5207  0.4716
 2664TIP3   OH229406   2.407   6.179  17.505  0.7702  0.1799  0.1433
 2664TIP3    H129407   2.442   6.091  17.516  1.6744  0.3487 -1.1607
 2664TIP3    H229408   2.351   6.192  17.582  1.0369 -1.3142  0.6325
 2665TIP3   OH229409   0.631   6.481  17.087 -0.5800  0.4407 -0.1866
 2665TIP3    H129410   0.547   6.458  17.048 -0.2196 -0.5238 -0.4500
 2665TIP3    H229411   0.685   6.509  17.013 -0.3500  0.0377 -0.1740
 2666TIP3   OH229412   4.572   4.751  15.522  0.0089 -0.5019 -0.4298
 2666TIP3    H129413   4.506   4.803  15.567  2.1484  1.2342  0.9375
 2666TIP3    H229414   4.523   4.681  15.480 -2.4915 -0.4546  2.0832
 2667TIP3   OH229415   3.129   0.090  15.829 -0.2331  0.0069 -0.0651
 2667TIP3    H129416   3.089   0.170  15.863 -1.8655 -0.9660  0.4458
 2667TIP3    H229417   3.171   0.116  15.748  0.5061  1.6572  0.8130
 2668TIP3   OH229418   2.179   5.301  13.644  0.4273 -0.4972  0.8231
 2668TIP3    H129419   2.250   5.332  13.588 -0.0914 -1.2999 -0.3140
 2668TIP3    H229420   2.160   5.374  13.703  0.9075  0.4111 -0.1326
 2669TIP3   OH229421   3.600   2.514   2.645 -0.9006  0.2429 -0.0251
 2669TIP3    H129422   3.548   2.588   2.613  0.3794  0.9830 -0.4666
 2669TIP3    H229423   3.587   2.446   2.579  1.8099  1.7976 -2.4106
 2670TIP3   OH229424   5.633   1.457   5.269  0.4762  0.5187 -0.1313
 2670TIP3    H129425   5.709   1.512   5.287  0.0146  1.0850  0.0953
 2670TIP3    H229426   5.644   1.431   5.177  0.6386  1.0785 -0.2731
 2671TIP3   OH229427   0.225   2.742  12.351  0.1639 -0.8838  0.5564
 2671TIP3    H129428   0.194   2.832  12.340  0.4581 -0.6783  1.3531
 2671TIP3    H229429   0.259   2.739  12.440  2.3473 -1.1286 -0.2150
 2672TIP3   OH229430   2.874   5.793  15.213 -0.1277  0.1810  0.3282
 2672TIP3    H129431   2.856   5.703  15.239 -1.4274  0.2709 -0.1630
 2672TIP3    H229432   2.945   5.786  15.150 -0.3570 -0.5259  0.1357
 2673TIP3   OH229433   3.523   5.532  16.831  0.1152  0.1736 -0.0152
 2673TIP3    H129434   3.482   5.611  16.866  0.7104  0.4086  0.1625
 2673TIP3    H229435   3.510   5.538  16.736  1.0781  1.0260 -0.1095
 2674TIP3   OH229436   4.670   4.793   0.453  0.3713  0.2214 -0.2027
 2674TIP3    H129437   4.579   4.820   0.441 -0.4956 -2.2341  0.1481
 2674TIP3    H229438   4.693   4.751   0.369  1.3826  1.2776 -0.4755
 2675TIP3   OH229439   6.346   5.793   0.671  0.0815  0.2609  0.7602
 2675TIP3    H129440   6.398   5.806   0.592  0.1297  1.7404  0.9986
 2675TIP3    H229441   6.290   5.872   0.676 -1.6406 -0.9075  0.9157
 2676TIP3   OH229442   0.983   0.584   1.282  0.4137 -0.1376  0.0825
 2676TIP3    H129443   0.916   0.604   1.217  1.3223  1.2212 -0.4877
 2676TIP3    H229444   1.043   0.524   1.237  1.6898  1.7050 -0.8433
 2677TIP3   OH229445   2.708   5.725   1.220 -0.4344 -0.0873 -0.6953
 2677TIP3    H129446   2.787   5.680   1.189 -0.3181  0.4735 -1.2422
 2677TIP3    H229447   2.637   5.664   1.202  0.0518 -1.4261  1.5748
 2678TIP3   OH229448   1.082   2.539   1.004 -0.0635 -1.0074  0.3754
 2678TIP3    H129449   1.024   2.590   1.060  0.6369  1.9254 -1.3195
 2678TIP3    H229450   1.169   2.557   1.037  0.5107  1.9794 -2.2218
 2679TIP3   OH229451   2.145   2.696  15.075  0.0607  0.2639 -0.0864
 2679TIP3    H129452   2.197   2.649  15.010 -1.0007  1.3314 -1.7880
 2679TIP3    H229453   2.195   2.689  15.156  2.4667  0.6020 -1.4570
 2680TIP3   OH229454   1.643   4.425   2.565  0.1940 -0.3445  0.0357
 2680TIP3    H129455   1.677   4.495   2.621 -0.0173  0.4577 -0.8270
 2680TIP3    H229456   1.721   4.380   2.532  0.3862  0.5616 -0.7667
 2681TIP3   OH229457   1.020   4.792  16.917  0.1104  0.5731  0.2943
 2681TIP3    H129458   1.019   4.763  16.826  0.5503 -1.3190  0.8255
 2681TIP3    H229459   1.112   4.784  16.944 -0.4406 -2.2572  1.7903
 2682TIP3   OH229460   3.759   4.953  15.452  0.4036 -0.0270 -1.0070
 2682TIP3    H129461   3.848   4.961  15.417  1.0514  1.8866  0.8680
 2682TIP3    H229462   3.751   4.860  15.475  1.6501 -0.3673 -1.8552
 2683TIP3   OH229463   2.035   0.940   0.243  0.2400 -0.3062 -0.0534
 2683TIP3    H129464   1.983   0.863   0.219 -1.6345  0.4814  1.2627
 2683TIP3    H229465   1.987   0.979   0.316  3.2576 -0.0753  1.9526
 2684TIP3   OH229466   1.540   5.980   0.006  0.2927  0.3507  0.2377
 2684TIP3    H129467   1.566   6.041  -0.064  0.4848  1.6136  1.3677
 2684TIP3    H229468   1.621   5.935   0.030  0.5266  0.9412  0.5920
 2685TIP3   OH229469   2.558   4.184   5.032 -0.1102 -0.5320 -0.3596
 2685TIP3    H129470   2.536   4.193   4.939  1.4177 -0.1989 -0.7116
 2685TIP3    H229471   2.617   4.257   5.050  1.3930 -1.8441  0.2857
 2686TIP3   OH229472   1.631   0.739  16.435 -0.2580  0.2797  0.5653
 2686TIP3    H129473   1.671   0.758  16.350  0.4594 -0.1952  0.7792
 2686TIP3    H229474   1.635   0.643  16.442  1.3522  0.3991  1.8825
 2687TIP3   OH229475   5.497   4.229  14.680 -0.1660 -0.1316 -0.5613
 2687TIP3    H129476   5.550   4.180  14.742 -0.5707  0.4045  0.2218
 2687TIP3    H229477   5.560   4.272  14.623  0.2877  1.0299  0.7622
 2688TIP3   OH229478   0.667   3.775  12.382  0.0534 -0.2184  0.0817
 2688TIP3    H129479   0.636   3.713  12.447 -1.1232 -0.3145 -0.5474
 2688TIP3    H229480   0.695   3.720  12.308  1.4036 -0.1126  0.4779
 2689TIP3   OH229481   0.087   2.376   2.401  0.0201  0.4559 -0.6031
 2689TIP3    H129482   0.151   2.386   2.330  0.6859  2.0922  0.1734
 2689TIP3    H229483   0.037   2.457   2.399 -1.3004 -0.3320 -0.4685
 2690TIP3   OH229484   4.600   3.231   3.659  0.1963  0.1729  0.4725
 2690TIP3    H129485   4.683   3.206   3.619  0.2594  1.3247 -0.1626
 2690TIP3    H229486   4.601   3.327   3.658 -1.7716  0.2350 -0.9339
 2691TIP3   OH229487   0.062   2.218   3.676  0.0396  0.2075  0.0204
 2691TIP3    H129488   0.100   2.242   3.592 -0.6829 -3.0168 -1.3840
 2691TIP3    H229489  -0.029   2.195   3.656  0.3328 -2.4408  1.2060
 2692TIP3   OH229490   1.691   0.182   3.299  0.2245 -0.1674 -0.2207
 2692TIP3    H129491   1.693   0.097   3.344  0.3006  0.7756  1.6805
 2692TIP3    H229492   1.782   0.202   3.282  0.3300  0.1755  0.6785
 2693TIP3   OH229493   2.065   6.176  17.305  0.3646  0.2482 -0.4518
 2693TIP3    H129494   2.094   6.116  17.373  2.2618  0.3957 -1.0739
 2693TIP3    H229495   2.027   6.250  17.353  1.1888  0.1188  0.4260
 2694TIP3   OH229496   2.547   5.364  11.029 -0.0187 -0.5099  0.2490
 2694TIP3    H129497   2.532   5.277  10.993  0.0121 -0.0056 -1.0253
 2694TIP3    H229498   2.569   5.418  10.953 -0.8401  0.7917  0.8961
 2695TIP3   OH229499   2.257   5.140  12.483  0.0290 -0.1717  0.0298
 2695TIP3    H129500   2.320   5.154  12.554  0.8609  0.7480 -0.8671
 2695TIP3    H229501   2.198   5.073  12.517  2.3052 -2.1438  0.4023
 2696TIP3   OH229502   0.059   0.452  16.699  0.1949  0.9656 -0.4735
 2696TIP3    H129503   0.035   0.413  16.782  0.7103  0.7304 -0.4291
 2696TIP3    H229504  -0.020   0.449  16.646 -0.4437  2.0888  0.3668
 2697TIP3   OH229505   0.095   5.517   1.727  0.2487  0.0928 -0.4126
 2697TIP3    H129506   0.140   5.434   1.712 -0.0577  0.0914 -1.3328
 2697TIP3    H229507   0.043   5.501   1.806  0.7159 -0.3679 -0.1874
 2698TIP3   OH229508   4.477   5.103  17.074  0.2987  0.0128 -0.0827
 2698TIP3    H129509   4.524   5.120  16.992 -1.2270  0.3504 -0.9368
 2698TIP3    H229510   4.519   5.160  17.138  2.4033 -1.2244 -0.2411
 2699TIP3   OH229511   4.952   6.402   0.092  0.4331 -0.0278  0.1120
 2699TIP3    H129512   5.022   6.382   0.030  0.3828  0.2245 -0.0301
 2699TIP3    H229513   4.897   6.324   0.092  1.1931 -0.5755  0.8898
 2700TIP3   OH229514   5.624   6.241  11.700 -0.8564 -0.0857  0.0566
 2700TIP3    H129515   5.535   6.252  11.666 -0.7159 -0.0693 -0.3053
 2700TIP3    H229516   5.615   6.252  11.795 -1.1225  0.6430 -0.0485
 2701TIP3   OH229517   3.723   3.301   0.628 -0.0733  0.1528  0.0156
 2701TIP3    H129518   3.751   3.223   0.580 -1.6165 -0.4397  0.0181
 2701TIP3    H229519   3.786   3.369   0.603  0.9985 -0.9470 -0.3823
 2702TIP3   OH229520   4.542   4.014  12.853 -0.3612  0.1934  0.3103
 2702TIP3    H129521   4.614   3.960  12.820  1.1513  1.2959  1.6318
 2702TIP3    H229522   4.585   4.091  12.889 -2.3384  1.5440 -0.0631
 2703TIP3   OH229523   1.971   5.232  13.289 -0.1101  0.3203 -0.1230
 2703TIP3    H129524   1.984   5.227  13.194  0.4591  2.6385 -0.2275
 2703TIP3    H229525   2.033   5.168  13.325 -0.6735 -0.9472 -1.2835
 2704TIP3   OH229526   2.037   4.364   6.610  0.6893 -0.1405  0.3700
 2704TIP3    H129527   1.959   4.384   6.558  1.2622  0.6619 -0.1955
 2704TIP3    H229528   2.049   4.440   6.666  0.1865 -0.9203  1.5717
 2705TIP3   OH229529   4.601   3.323   5.788  0.1622 -0.1731 -0.1015
 2705TIP3    H129530   4.665   3.391   5.805 -0.8278  0.6060  0.6416
 2705TIP3    H229531   4.579   3.287   5.874 -3.3851  2.4065  0.3020
 2706TIP3   OH229532   1.383   0.214  12.195  0.6110 -0.1539 -0.1090
 2706TIP3    H129533   1.421   0.269  12.127 -0.1323  0.8276  0.2438
 2706TIP3    H229534   1.367   0.274  12.268 -1.0840 -0.6195 -0.0505
 2707TIP3   OH229535   6.261   0.403   0.116 -0.7750 -0.3648  0.2799
 2707TIP3    H129536   6.307   0.487   0.115 -1.0882 -0.1864 -0.7711
 2707TIP3    H229537   6.296   0.357   0.193  1.4754 -0.4204 -0.6886
 2708TIP3   OH229538   3.001   2.151   0.143  0.0468 -0.1379  0.3757
 2708TIP3    H129539   2.942   2.092   0.191  0.5180 -0.2013  0.8838
 2708TIP3    H229540   3.019   2.105   0.061 -0.8584  0.0217  0.0685
 2709TIP3   OH229541   4.045   1.953  16.869  0.0631 -0.1383 -0.1038
 2709TIP3    H129542   4.105   2.020  16.900 -0.7170  0.7518 -0.4671
 2709TIP3    H229543   4.101   1.883  16.836  0.9680 -1.0565  2.9816
 2710TIP3   OH229544   1.018   1.519  16.963 -0.1435  0.3388 -0.3048
 2710TIP3    H129545   0.999   1.428  16.939 -0.4628  0.6197 -1.1290
 2710TIP3    H229546   0.994   1.570  16.886  1.1714  1.0045 -0.2913
 2711TIP3   OH229547   4.932   0.002  15.801 -0.3773  0.0212  0.1052
 2711TIP3    H129548   4.863  -0.052  15.763  0.2954  0.1868 -1.4249
 2711TIP3    H229549   4.918   0.089  15.764  1.7088 -0.3447 -1.8028
 2712TIP3   OH229550   6.464   0.186  16.150 -0.0085  0.2144  0.4392
 2712TIP3    H129551   6.377   0.145  16.146  0.1693 -0.3752  1.9900
 2712TIP3    H229552   6.511   0.148  16.075 -0.9653  0.2968 -0.2355
 2713TIP3   OH229553   0.598   6.221   5.370  0.1358 -0.1550 -0.1304
 2713TIP3    H129554   0.654   6.150   5.403  1.0610  0.4245 -0.4114
 2713TIP3    H229555   0.573   6.193   5.282  0.3434 -0.2228 -0.1694
 2714TIP3   OH229556   0.690   4.965  16.214 -1.1846  0.4510 -0.3190
 2714TIP3    H129557   0.675   4.924  16.129 -1.4527 -1.0800  0.4331
 2714TIP3    H229558   0.771   5.014  16.203 -0.0200 -1.5012 -0.8746
 2715TIP3   OH229559   6.680   2.651  14.585 -0.0898 -0.3468 -0.1731
 2715TIP3    H129560   6.743   2.651  14.513  0.0058 -1.6126 -0.1096
 2715TIP3    H229561   6.603   2.608  14.550  0.1715 -1.5260  0.6343
 2716TIP3   OH229562   6.193   3.147   0.431  0.2458  0.0186  0.4575
 2716TIP3    H129563   6.202   3.200   0.510  1.4904  0.8424 -0.1974
 2716TIP3    H229564   6.193   3.057   0.462  1.1377  0.3181  1.3773
 2717TIP3   OH229565   4.596   4.373  14.556 -0.0514  0.4915  0.4281
 2717TIP3    H129566   4.623   4.411  14.473  0.8890 -1.0083  0.0071
 2717TIP3    H229567   4.507   4.342  14.540 -0.1628  0.9102  0.2300
 2718TIP3   OH229568   3.861   6.268  14.390  0.7359 -0.5502 -0.4484
 2718TIP3    H129569   3.851   6.199  14.325  2.3208 -1.1089 -0.1353
 2718TIP3    H229570   3.955   6.283  14.395  0.6204 -0.1777  1.3611
 2719TIP3   OH229571   5.578   0.586  14.674 -0.2338  0.2387 -0.0334
 2719TIP3    H129572   5.599   0.532  14.750  0.3332  1.2092  0.5260
 2719TIP3    H229573   5.642   0.561  14.608 -0.3579 -0.1994  0.0104
 2720TIP3   OH229574   1.503   2.796   4.939 -0.4052 -0.2342  0.4195
 2720TIP3    H129575   1.456   2.755   5.012  1.1396 -1.2280  0.9195
 2720TIP3    H229576   1.552   2.868   4.980  0.6791 -0.9624  0.4651
 2721TIP3   OH229577   5.202   1.537  11.750  0.1055  0.3804 -0.1726
 2721TIP3    H129578   5.148   1.594  11.695 -0.7595 -0.9031 -0.7159
 2721TIP3    H229579   5.141   1.470  11.781  0.6450  0.8878  2.1177
 2722TIP3   OH229580   1.519   0.897  14.299 -0.3560  0.7211 -0.1830
 2722TIP3    H129581   1.489   0.986  14.279  1.1353  1.3466  0.2046
 2722TIP3    H229582   1.545   0.901  14.391 -0.7605 -0.2630 -0.0227
 2723TIP3   OH229583   5.999   3.984  13.334 -0.2459 -0.0343  0.5816
 2723TIP3    H129584   6.079   4.027  13.304 -1.3507  1.4556 -0.3523
 2723TIP3    H229585   6.010   3.892  13.308  0.7998  0.3206 -0.2718
 2724TIP3   OH229586   6.309   2.354   3.135  0.4781 -0.1517  0.8786
 2724TIP3    H129587   6.227   2.309   3.118  0.2553  0.5977 -0.1197
 2724TIP3    H229588   6.375   2.301   3.090  0.2096  0.5020 -0.3395
 2725TIP3   OH229589   0.870   5.823   2.302 -0.3201 -0.0268 -0.1698
 2725TIP3    H129590   0.887   5.885   2.231  1.2936  0.6724  0.7860
 2725TIP3    H229591   0.939   5.840   2.366 -0.4139 -2.1572  0.5739
 2726TIP3   OH229592   6.381   2.443   0.577  0.2395  0.1120 -0.0228
 2726TIP3    H129593   6.473   2.431   0.601  1.1381  1.0698 -2.6118
 2726TIP3    H229594   6.369   2.538   0.578 -0.2303  0.0774 -1.2500
 2727TIP3   OH229595   4.110   3.166  15.358 -0.2788 -0.3837  0.6576
 2727TIP3    H129596   4.021   3.195  15.378 -0.2807  0.3586 -0.3861
 2727TIP3    H229597   4.106   3.070  15.363 -1.3073 -0.3885 -0.0575
 2728TIP3   OH229598   4.731   1.751   6.640  0.3927  0.0093  0.2352
 2728TIP3    H129599   4.745   1.686   6.709  3.9163 -2.6146 -2.6004
 2728TIP3    H229600   4.652   1.720   6.595 -0.2230  0.0418  1.2536
 2729TIP3   OH229601   5.627   6.210  11.284 -0.8220  0.0685 -0.1191
 2729TIP3    H129602   5.647   6.126  11.324  1.2713  0.6099  0.0996
 2729TIP3    H229603   5.654   6.275  11.349  0.2337  0.9248 -1.3650
 2730TIP3   OH229604   5.741   2.554   3.061 -0.9496 -0.1133 -0.5911
 2730TIP3    H129605   5.677   2.486   3.082 -1.7975  0.2128 -1.9879
 2730TIP3    H229606   5.795   2.515   2.992 -0.1493 -0.0831  0.0043
 2731TIP3   OH229607   2.038   6.458  14.975  0.0604  0.5931 -0.3216
 2731TIP3    H129608   1.968   6.420  14.920  0.0474  0.0350  0.0728
 2731TIP3    H229609   2.118   6.440  14.926 -0.0177  0.7531 -0.5124
 2732TIP3   OH229610   6.147   3.117   0.163 -0.1821  0.0419  0.3403
 2732TIP3    H129611   6.096   3.036   0.160 -1.5727  0.8914  0.0000
 2732TIP3    H229612   6.171   3.126   0.255  0.0228 -0.7619  0.3776
 2733TIP3   OH229613   6.110   2.446  11.277  0.0505 -0.4560 -0.1032
 2733TIP3    H129614   6.074   2.463  11.190  2.0387  1.4785 -0.6584
 2733TIP3    H229615   6.043   2.477  11.338 -0.7063 -0.3388 -0.9712
 2734TIP3   OH229616   0.811   4.555   3.922 -0.0799 -0.3610 -0.1846
 2734TIP3    H129617   0.751   4.591   3.987  1.8150  0.7830  1.0204
 2734TIP3    H229618   0.882   4.516   3.973  1.2406  0.1494 -1.5312
 2735TIP3   OH229619   2.706   1.525   2.587 -0.0464  0.2219 -0.0924
 2735TIP3    H129620   2.793   1.537   2.625 -0.2999  1.2915  0.1731
 2735TIP3    H229621   2.671   1.613   2.577 -1.7487 -0.2370  1.3134
 2736TIP3   OH229622   3.647   4.097   3.759  0.3567 -0.0131  0.1277
 2736TIP3    H129623   3.682   4.144   3.835 -2.6602 -1.1433  2.4203
 2736TIP3    H229624   3.570   4.147   3.733  0.4208 -0.5568 -1.1905
 2737TIP3   OH229625   1.525   3.861   2.675  0.0911 -0.0192 -0.4431
 2737TIP3    H129626   1.566   3.875   2.760 -0.3537 -1.5624  0.0578
 2737TIP3    H229627   1.442   3.908   2.680  0.3959  0.5166 -0.3173
 2738TIP3   OH229628   4.243   4.225   4.727  0.2134  0.0627 -0.0482
 2738TIP3    H129629   4.288   4.222   4.811 -0.2453  0.2634  0.2107
 2738TIP3    H229630   4.212   4.315   4.719  0.4087  0.0914 -0.5160
 2739TIP3   OH229631   2.004   2.465  15.418  0.4012 -0.1230  0.4860
 2739TIP3    H129632   1.963   2.403  15.358 -0.5174  0.4052  0.5459
 2739TIP3    H229633   2.080   2.418  15.453  1.0120 -0.3920 -1.1561
 2740TIP3   OH229634   4.622   6.280   3.141 -0.3850  0.0990  0.3451
 2740TIP3    H129635   4.586   6.192   3.140  1.5368 -0.9258  3.7941
 2740TIP3    H229636   4.704   6.273   3.091  1.3034 -1.0070  3.0731
 2741TIP3   OH229637   3.781   4.028  16.726  0.4696 -0.2974  0.4869
 2741TIP3    H129638   3.727   3.951  16.747  0.0169  0.0894  0.7720
 2741TIP3    H229639   3.734   4.070  16.654  0.7215 -0.2926  0.3270
 2742TIP3   OH229640   2.202   2.559   5.112  0.4399  0.1704  0.5701
 2742TIP3    H129641   2.119   2.536   5.071  0.4583  0.2836  0.4698
 2742TIP3    H229642   2.190   2.649   5.142  0.4593  0.1197  0.7269
 2743TIP3   OH229643   2.170   4.193   3.353 -0.5714 -0.6457  0.6068
 2743TIP3    H129644   2.166   4.247   3.431  0.2768  2.1202 -1.1199
 2743TIP3    H229645   2.096   4.222   3.299  0.6466 -0.2146 -0.9098
 2744TIP3   OH229646   1.160   0.587  17.460 -0.3517  0.4143 -0.1818
 2744TIP3    H129647   1.068   0.597  17.435 -0.3758  0.7437  0.0239
 2744TIP3    H229648   1.195   0.676  17.459 -0.3060  0.4158  0.7371
 2745TIP3   OH229649   0.475   6.021   4.933  0.3293  0.4040  0.2702
 2745TIP3    H129650   0.405   5.979   4.882  1.5072  0.1897 -1.2410
 2745TIP3    H229651   0.494   5.959   5.003 -1.5108  0.8220  1.2056
 2746TIP3   OH229652   3.568   1.713   4.562 -0.0311 -0.3271  0.2569
 2746TIP3    H129653   3.601   1.800   4.583 -1.0249  0.0194  0.4618
 2746TIP3    H229654   3.490   1.729   4.509 -1.3790 -0.9981  1.9124
 2747TIP3   OH229655   3.125   5.463  14.671 -0.1262 -0.4726  0.1734
 2747TIP3    H129656   3.038   5.446  14.635  0.4235  0.4531 -1.7197
 2747TIP3    H229657   3.110   5.515  14.749 -1.2556 -0.0974 -0.2855
 2748TIP3   OH229658   0.022   5.348   0.134  0.5668 -0.6764 -0.3151
 2748TIP3    H129659   0.076   5.417   0.171 -1.1096  0.3283  0.4080
 2748TIP3    H229660   0.058   5.332   0.047  0.2133  2.1137 -1.0576
 2749TIP3   OH229661   0.593   4.910  16.685  0.4255  0.7386 -0.3180
 2749TIP3    H129662   0.647   4.902  16.764  1.0382  0.1255 -0.7885
 2749TIP3    H229663   0.650   4.883  16.614 -0.3409  0.5955 -0.8920
 2750TIP3   OH229664   5.541   3.347   4.395 -0.1377  0.6921 -0.5076
 2750TIP3    H129665   5.541   3.384   4.307 -0.3872 -0.6571 -1.1032
 2750TIP3    H229666   5.471   3.392   4.441  0.7634  2.2554 -0.6059
 2751TIP3   OH229667   2.826   4.809   4.199 -0.0202 -0.0624  0.2101
 2751TIP3    H129668   2.870   4.861   4.132 -1.2583 -0.4706 -0.9790
 2751TIP3    H229669   2.847   4.718   4.177 -0.5045 -0.2014  0.3043
 2752TIP3   OH229670   3.727   4.324   5.283 -0.3649  0.4063 -0.4537
 2752TIP3    H129671   3.684   4.257   5.229 -1.4248 -0.0166  0.8717
 2752TIP3    H229672   3.665   4.341   5.354  1.1088  0.7106  0.8130
 2753TIP3   OH229673   1.915   0.310   2.573  0.5206  0.2130  0.1749
 2753TIP3    H129674   1.999   0.264   2.568  0.3791 -0.2834  1.6382
 2753TIP3    H229675   1.852   0.241   2.598 -1.0625 -0.1929 -4.1689
 2754TIP3   OH229676   0.263   1.540   2.255  0.1278  0.4770  0.1623
 2754TIP3    H129677   0.285   1.622   2.301 -0.6607  1.4811 -1.1693
 2754TIP3    H229678   0.345   1.516   2.211 -0.2278  1.9592 -1.4487
 2755TIP3   OH229679   1.321   1.913   1.148  0.2157 -0.5521  0.0763
 2755TIP3    H129680   1.302   1.840   1.208 -1.7696 -0.8267 -0.8436
 2755TIP3    H229681   1.238   1.933   1.106  0.8495  1.8522 -0.1808
 2756TIP3   OH229682   3.680   6.069   0.821  0.5075 -0.2136 -0.1780
 2756TIP3    H129683   3.609   6.014   0.854  0.7392  0.6046  1.8224
 2756TIP3    H229684   3.734   6.010   0.769 -0.0855 -1.5077  0.6166
 2757TIP3   OH229685   5.642   1.622   0.719  0.9249 -0.2015  0.1286
 2757TIP3    H129686   5.580   1.623   0.792 -0.8797 -0.0887 -1.3600
 2757TIP3    H229687   5.651   1.530   0.696 -0.1748 -0.0952 -0.8304
 2758TIP3   OH229688   0.797   6.196  14.756  0.2461  0.2469 -0.6609
 2758TIP3    H129689   0.871   6.157  14.803  0.7138  3.0204  1.1143
 2758TIP3    H229690   0.836   6.240  14.681 -0.1173 -1.2714 -1.8075
 2759TIP3   OH229691   5.875   6.340  14.838 -0.0824 -0.4640  0.1964
 2759TIP3    H129692   5.818   6.414  14.820 -0.3990 -0.5884  0.6619
 2759TIP3    H229693   5.816   6.270  14.866  0.3957 -0.1470  2.1644
 2760TIP3   OH229694   3.679   4.894   2.921 -0.6020 -0.3001  0.8456
 2760TIP3    H129695   3.748   4.950   2.883 -1.2866 -0.5134 -0.7942
 2760TIP3    H229696   3.715   4.867   3.005  0.7331  0.7288  0.6564
 2761TIP3   OH229697   2.720   1.011  11.341  0.1951  0.0397 -0.2531
 2761TIP3    H129698   2.770   1.041  11.264  0.3178  4.5123  1.2809
 2761TIP3    H229699   2.633   0.993  11.307  0.5765  0.6956 -1.6874
 2762TIP3   OH229700   3.432   1.995  14.005  0.1111 -0.0715 -0.1490
 2762TIP3    H129701   3.405   1.954  14.087  0.5776 -1.2052 -0.5467
 2762TIP3    H229702   3.370   2.067  13.992  0.5495  0.6916  1.6382
 2763TIP3   OH229703   4.030   5.193   0.877 -0.2472 -0.4395  0.1443
 2763TIP3    H129704   4.050   5.281   0.846  0.0622  0.4650  2.6714
 2763TIP3    H229705   3.942   5.200   0.915  0.0960 -0.9765  1.0798
 2764TIP3   OH229706   1.591   6.481   4.367 -0.0473  0.4097  0.0564
 2764TIP3    H129707   1.600   6.439   4.282 -1.3969  1.1305 -0.4693
 2764TIP3    H229708   1.611   6.411   4.430  0.2705 -0.3152 -0.8324
 2765TIP3   OH229709   5.915   1.905  11.268 -0.1576 -0.1959 -0.5918
 2765TIP3    H129710   5.894   1.947  11.184  1.9469  0.7527 -0.7029
 2765TIP3    H229711   5.866   1.823  11.266 -0.6397  0.0825 -2.4773
 2766TIP3   OH229712   4.647   3.317   3.001  0.0936  0.4559  0.1981
 2766TIP3    H129713   4.674   3.242   3.054  1.1860  1.9581  1.9106
 2766TIP3    H229714   4.726   3.370   2.994 -0.5580  1.2824 -1.2954
 2767TIP3   OH229715   4.316   1.949   5.577 -0.0818  0.0512 -0.3128
 2767TIP3    H129716   4.282   1.906   5.656  1.2235  0.7952  0.7100
 2767TIP3    H229717   4.316   1.880   5.511 -2.0397 -0.3633  0.0622
 2768TIP3   OH229718   4.822   4.822  15.872  0.2157  0.3292  0.3337
 2768TIP3    H129719   4.727   4.808  15.883  0.1360  0.6337  0.0544
 2768TIP3    H229720   4.857   4.734  15.860 -0.3058  0.3158 -1.5553
 2769TIP3   OH229721   1.855   6.484  11.961 -0.1625 -0.3340 -0.1573
 2769TIP3    H129722   1.792   6.450  11.897  0.6000  1.1025 -1.7162
 2769TIP3    H229723   1.941   6.466  11.923  0.3382 -0.1188  0.8346
 2770TIP3   OH229724   1.834   3.466  12.455  0.0007  0.0485 -0.0475
 2770TIP3    H129725   1.875   3.429  12.377  0.8463 -0.0996  0.4519
 2770TIP3    H229726   1.740   3.457  12.439  0.0676  1.9394 -1.9801
 2771TIP3   OH229727   1.923   2.435  14.019  0.3522  0.1636 -0.1263
 2771TIP3    H129728   1.883   2.348  14.022  1.0063 -0.1102  1.4693
 2771TIP3    H229729   2.003   2.427  14.072  0.7459  1.5747 -0.4615
 2772TIP3   OH229730   4.870   0.185  13.792 -0.1575  0.0280  0.1638
 2772TIP3    H129731   4.928   0.127  13.843 -0.6935 -1.6692 -1.0552
 2772TIP3    H229732   4.908   0.186  13.704  0.0657  1.9288  0.2454
 2773TIP3   OH229733   3.372   3.861   0.799 -1.2989  0.1217 -0.4327
 2773TIP3    H129734   3.407   3.899   0.879 -0.1730 -0.7790 -0.4786
 2773TIP3    H229735   3.339   3.775   0.825 -0.5629 -0.3467 -0.9802
 2774TIP3   OH229736   0.656   1.705  11.655  0.6963 -0.0883  0.0241
 2774TIP3    H129737   0.588   1.638  11.646  1.8714 -1.2198 -0.8436
 2774TIP3    H229738   0.654   1.729  11.748 -0.4041 -0.6092  0.1508
 2775TIP3   OH229739   1.044   5.436   6.119  0.4382 -0.3797  0.6017
 2775TIP3    H129740   1.076   5.377   6.051  2.1220  0.9357  0.1827
 2775TIP3    H229741   0.949   5.435   6.108  0.5816 -1.1912 -0.9346
 2776TIP3   OH229742   6.380   1.441  15.838  0.1432  0.2862  0.2164
 2776TIP3    H129743   6.290   1.424  15.866  0.1193  1.8043  1.1860
 2776TIP3    H229744   6.429   1.362  15.863 -0.5332  0.2801  1.6034
 2777TIP3   OH229745   4.790   2.265   1.912  0.3215 -0.3409  0.1467
 2777TIP3    H129746   4.739   2.345   1.919  1.5767  0.5880 -0.9014
 2777TIP3    H229747   4.789   2.244   1.819  1.2645 -0.6868  0.2046
 2778TIP3   OH229748   0.442   6.613   4.395  0.5211  0.0039 -0.2698
 2778TIP3    H129749   0.362   6.645   4.438 -1.1166 -1.4810 -2.0246
 2778TIP3    H229750   0.462   6.531   4.439 -0.6654 -1.0879 -1.6722
 2779TIP3   OH229751   2.608   5.877  13.059  0.1355  0.2237 -0.2171
 2779TIP3    H129752   2.549   5.924  13.118 -1.0586 -1.0670 -0.3169
 2779TIP3    H229753   2.625   5.939  12.988 -1.0026  0.6843 -0.1114
 2780TIP3   OH229754   6.203   6.152   5.306 -0.0767 -0.0942  0.3767
 2780TIP3    H129755   6.216   6.087   5.238 -0.7095  0.4064 -0.2345
 2780TIP3    H229756   6.162   6.226   5.261  0.5327  0.6895  1.0695
 2781TIP3   OH229757   1.601   6.589   5.988  1.0495  0.4227  0.1209
 2781TIP3    H129758   1.653   6.509   5.977  2.5778  1.1526  1.5964
 2781TIP3    H229759   1.632   6.648   5.919 -0.6314 -0.4382 -1.4816
 2782TIP3   OH229760   0.256   3.679  14.295 -0.1384 -0.0343 -0.7885
 2782TIP3    H129761   0.313   3.610  14.262  1.1153  0.5074  0.1237
 2782TIP3    H229762   0.311   3.728  14.356 -1.9199 -0.1490  1.0177
 2783TIP3   OH229763   4.061   1.492  16.636  0.2537 -0.3683 -0.4141
 2783TIP3    H129764   4.068   1.506  16.730 -3.9390 -0.5755  0.1459
 2783TIP3    H229765   4.021   1.572  16.603 -0.5075 -1.1825 -1.5650
 2784TIP3   OH229766   2.161   3.120   0.482 -0.4387  0.3470 -0.1132
 2784TIP3    H129767   2.220   3.059   0.439 -0.4361  0.7312 -0.6557
 2784TIP3    H229768   2.156   3.089   0.573  0.6037  0.3219 -0.0549
 2785TIP3   OH229769   1.659   5.707   2.982  0.1141 -0.3649 -0.1557
 2785TIP3    H129770   1.747   5.741   2.968 -0.2157 -0.0207 -1.5456
 2785TIP3    H229771   1.649   5.704   3.078  1.1680  0.7907  0.0118
 2786TIP3   OH229772   1.022   3.841  14.672  0.2043 -0.2166  0.1208
 2786TIP3    H129773   1.099   3.897  14.669  0.2530 -0.2700  0.3218
 2786TIP3    H229774   0.967   3.879  14.741  1.0471 -1.4309  1.5314
 2787TIP3   OH229775   0.846   2.205  11.990  0.2774 -0.0371 -0.2566
 2787TIP3    H129776   0.822   2.131  12.045  2.1002 -1.2383 -0.9829
 2787TIP3    H229777   0.805   2.187  11.906 -1.8012  1.3745  0.3656
 2788TIP3   OH229778   5.677   1.406  12.802  0.4697  0.0370 -0.1342
 2788TIP3    H129779   5.707   1.437  12.888  1.4101 -1.9692  0.3305
 2788TIP3    H229780   5.725   1.461  12.739  2.7734 -0.9457  0.6352
 2789TIP3   OH229781   1.305   0.989  12.396 -0.1964  0.2160  0.0487
 2789TIP3    H129782   1.342   1.057  12.339  2.3207 -0.4469  0.7728
 2789TIP3    H229783   1.243   0.942  12.340  1.3787  0.2692 -1.8371
 2790TIP3   OH229784   5.936   1.199  13.474  0.5413 -0.3381 -0.1557
 2790TIP3    H129785   5.970   1.129  13.419 -0.5269 -0.5607 -0.5673
 2790TIP3    H229786   5.938   1.277  13.419  0.4216 -0.3430 -0.1671
 2791TIP3   OH229787   1.356   4.279   3.039 -0.2066 -0.2468 -0.5795
 2791TIP3    H129788   1.310   4.303   2.958 -0.2237  0.4443 -0.3680
 2791TIP3    H229789   1.290   4.289   3.108  0.5411  1.8874 -0.1151
 2792TIP3   OH229790   2.580   2.116   4.485 -0.2591  0.1104  0.4600
 2792TIP3    H129791   2.500   2.063   4.484 -0.5972  0.6147  0.1102
 2792TIP3    H229792   2.627   2.091   4.405 -1.1503  1.4086 -0.5074
 2793TIP3   OH229793   3.822   6.192  15.778  0.1321  0.3043 -0.2999
 2793TIP3    H129794   3.736   6.202  15.736  0.6537  1.8999 -1.0848
 2793TIP3    H229795   3.880   6.248  15.726  0.9896  1.7305  2.0370
 2794TIP3   OH229796   6.588   2.673  11.541  0.4583 -0.3081 -0.1974
 2794TIP3    H129797   6.670   2.679  11.492  0.0643 -0.1198 -0.8564
 2794TIP3    H229798   6.582   2.757  11.587  0.5094 -0.2218 -0.3468
 2795TIP3   OH229799   0.530   1.403   5.604  0.4604  0.2799  0.4025
 2795TIP3    H129800   0.474   1.467   5.648 -0.1720  0.5177 -0.7160
 2795TIP3    H229801   0.560   1.345   5.674 -1.4612 -0.0656  1.0009
 2796TIP3   OH229802   0.003   2.423  12.460  0.2229 -0.1841  0.3844
 2796TIP3    H129803   0.054   2.442  12.382 -0.1839 -1.9307 -0.3631
 2796TIP3    H229804  -0.061   2.494  12.465  0.7268  0.3463 -0.4262
 2797TIP3   OH229805   4.100   2.799   1.236  0.2354  0.0259 -0.3168
 2797TIP3    H129806   4.086   2.879   1.185 -0.3921  0.0074 -0.1911
 2797TIP3    H229807   4.192   2.801   1.260 -0.1883  1.8438  1.5131
 2798TIP3   OH229808   6.499   1.606   4.688  0.2294 -0.7934  0.0151
 2798TIP3    H129809   6.491   1.696   4.656 -0.3775 -1.4377 -1.7592
 2798TIP3    H229810   6.576   1.608   4.745 -0.0899  0.9507  0.4534
 2799TIP3   OH229811   4.326   5.678   2.938  0.4100 -0.0615 -0.2751
 2799TIP3    H129812   4.232   5.670   2.920  0.4898  0.7554 -1.1172
 2799TIP3    H229813   4.332   5.686   3.033 -0.1819 -2.4947  0.0337
 2800TIP3   OH229814   0.523   2.824   3.021 -0.7432 -0.4905  0.1844
 2800TIP3    H129815   0.592   2.789   3.078  1.9016  1.1572 -1.8208
 2800TIP3    H229816   0.548   2.795   2.933 -2.6655  0.1422 -0.6096
 2801TIP3   OH229817   0.196   0.337   0.957  0.4699 -0.8697  0.3314
 2801TIP3    H129818   0.160   0.299   1.037 -0.5670 -1.9046 -0.5923
 2801TIP3    H229819   0.200   0.264   0.895  1.7733 -0.2120 -0.4073
 2802TIP3   OH229820   2.917   5.725   3.114  0.3164  0.6068  0.1895
 2802TIP3    H129821   2.888   5.808   3.152  0.7937  0.3034  1.2531
 2802TIP3    H229822   2.979   5.689   3.178  0.8034 -0.1425 -0.6764
 2803TIP3   OH229823   1.561   6.200   5.767 -0.2867  0.0435 -0.3787
 2803TIP3    H129824   1.511   6.201   5.848 -0.1317  1.7368 -0.2613
 2803TIP3    H229825   1.635   6.142   5.784 -0.2026  0.4575  0.7364
 2804TIP3   OH229826   3.024   5.371   0.194  0.0656 -0.7305 -0.2512
 2804TIP3    H129827   2.965   5.388   0.121  1.6057 -0.9114 -1.6066
 2804TIP3    H229828   3.109   5.354   0.152  0.6323 -2.5110  1.4965
 2805TIP3   OH229829   0.193   0.926   4.740 -0.0818  0.1547  0.3665
 2805TIP3    H129830   0.171   0.835   4.718  0.8116 -0.0000  0.0618
 2805TIP3    H229831   0.110   0.965   4.768 -0.4962 -0.7268  0.4045
 2806TIP3   OH229832   4.969   0.518  12.781 -0.1885 -0.4447 -0.1643
 2806TIP3    H129833   4.938   0.588  12.838 -0.2588  1.0717 -1.9796
 2806TIP3    H229834   4.890   0.487  12.736  0.1501 -0.1408 -0.9931
 2807TIP3   OH229835   4.724   4.604  11.599  0.3528 -0.0826 -0.1152
 2807TIP3    H129836   4.700   4.683  11.550  1.6778 -0.0797 -0.7953
 2807TIP3    H229837   4.686   4.532  11.549 -0.8601  0.0964  0.5066
 2808TIP3   OH229838   2.793   2.900   6.125 -0.3185  0.2505  0.5179
 2808TIP3    H129839   2.746   2.924   6.205  1.2073  0.2074  1.4706
 2808TIP3    H229840   2.734   2.925   6.054 -2.1016 -0.5678  1.6556
 2809TIP3   OH229841   4.881   6.370  16.272 -0.0173 -0.4868  0.6358
 2809TIP3    H129842   4.790   6.371  16.301 -0.2415 -0.6245 -0.0501
 2809TIP3    H229843   4.932   6.370  16.353 -0.5737  1.9059  1.0473
 2810TIP3   OH229844   5.321   5.818  15.360 -0.0751  0.3551 -0.1651
 2810TIP3    H129845   5.233   5.812  15.397 -0.1886 -2.0889 -0.6924
 2810TIP3    H229846   5.370   5.747  15.400 -0.2206 -2.5473 -4.4374
 2811TIP3   OH229847   3.521   1.048   6.068  0.3614 -0.1046 -0.0611
 2811TIP3    H129848   3.450   0.998   6.107  0.3675 -0.1737 -0.1387
 2811TIP3    H229849   3.578   1.069   6.142 -1.5302  3.0704  0.6816
 2812TIP3   OH229850   5.934   6.623   2.282 -0.0497 -0.1519  0.0785
 2812TIP3    H129851   5.931   6.537   2.325 -0.3065 -1.2873 -2.0676
 2812TIP3    H229852   5.908   6.685   2.350  1.3965 -1.5908  2.0787
 2813TIP3   OH229853   3.064   3.790   0.619  0.2167  0.0022 -0.6776
 2813TIP3    H129854   3.012   3.746   0.687  3.5023 -2.1728  0.6603
 2813TIP3    H229855   3.069   3.726   0.548  1.0895  0.1185 -0.7313
 2814TIP3   OH229856   1.547   2.287  13.520  0.0879  0.3360 -0.1952
 2814TIP3    H129857   1.596   2.209  13.493 -0.6731 -0.5811  0.9482
 2814TIP3    H229858   1.456   2.268  13.497 -0.2310  0.4957  0.8458
 2815TIP3   OH229859   5.933   6.606   5.874  0.0587 -0.3448  0.4296
 2815TIP3    H129860   5.984   6.529   5.850 -0.5908 -0.3505 -0.9719
 2815TIP3    H229861   5.963   6.626   5.963  2.6401 -0.2330 -0.3761
 2816TIP3   OH229862   1.821   1.264  11.999 -0.1165 -0.2560 -0.5440
 2816TIP3    H129863   1.836   1.254  11.905 -1.7841 -0.7391 -0.7950
 2816TIP3    H229864   1.863   1.187  12.038 -1.8547 -1.6291 -1.2223
 2817TIP3   OH229865   1.190   4.331   4.937 -0.4274  0.0231 -0.4681
 2817TIP3    H129866   1.159   4.421   4.933 -0.4921  0.0322  0.2048
 2817TIP3    H229867   1.278   4.337   4.973 -0.6044 -0.2203  0.0151
 2818TIP3   OH229868   0.982   3.615  16.641  0.5841 -0.2419 -0.4027
 2818TIP3    H129869   0.916   3.668  16.687 -1.3203 -2.4605 -0.3722
 2818TIP3    H229870   0.965   3.629  16.548  0.6450 -0.1294 -0.3954
 2819TIP3   OH229871   3.899   4.682  11.685  0.1944 -0.2981  0.2680
 2819TIP3    H129872   3.893   4.695  11.780  0.8659 -1.8004  0.5413
 2819TIP3    H229873   3.956   4.752  11.655 -1.5428  1.3829  0.6476
 2820TIP3   OH229874   2.030   4.281   1.744  0.2933  0.1839  0.3652
 2820TIP3    H129875   2.096   4.229   1.790  0.5626  0.6646  0.5256
 2820TIP3    H229876   2.033   4.249   1.654 -0.3844 -0.9088  0.7059
 2821TIP3   OH229877   3.331   0.650   0.072 -0.2790  0.2987  0.1027
 2821TIP3    H129878   3.354   0.592   0.000 -2.1105 -0.0767 -0.2046
 2821TIP3    H229879   3.246   0.620   0.103 -0.9063  2.2717  0.4912
 2822TIP3   OH229880   5.049   1.162   0.402  0.2303 -0.5347 -0.5928
 2822TIP3    H129881   5.048   1.076   0.444 -0.9697  0.5920  1.9031
 2822TIP3    H229882   4.956   1.186   0.395  0.5737  1.2233  0.3108
 2823TIP3   OH229883   0.985   5.261   2.262 -0.3136  0.1878 -0.1317
 2823TIP3    H129884   1.027   5.338   2.300 -0.2254  0.1436 -0.1409
 2823TIP3    H229885   0.925   5.231   2.330  1.6010 -1.3630  0.9864
 2824TIP3   OH229886   2.355   5.253   6.049  0.0135 -0.0442  0.2792
 2824TIP3    H129887   2.362   5.206   5.966 -1.5541  0.0370  0.0750
 2824TIP3    H229888   2.420   5.211   6.106 -0.9100 -2.0670 -0.0787
 2825TIP3   OH229889   4.188   6.491   4.601  0.1705  0.4407  0.2137
 2825TIP3    H129890   4.223   6.469   4.687  0.9298 -0.2719 -0.2676
 2825TIP3    H229891   4.138   6.572   4.616 -1.2198 -0.6178  1.6874
 2826TIP3   OH229892   4.300   5.116   3.252 -0.2476 -0.0948 -0.1253
 2826TIP3    H129893   4.332   5.053   3.188  0.8305  0.6742 -0.3671
 2826TIP3    H229894   4.325   5.080   3.337  0.3856  0.0235 -0.2621
 2827TIP3   OH229895   4.453   0.491   5.792 -0.2179 -0.0326 -0.1201
 2827TIP3    H129896   4.443   0.409   5.743 -0.0615  0.7836 -1.5687
 2827TIP3    H229897   4.371   0.537   5.778 -0.6626 -0.3011  1.4402
 2828TIP3   OH229898   1.617   4.230  15.365  0.2181  0.6028  0.6679
 2828TIP3    H129899   1.681   4.255  15.432  1.6723 -1.0855 -0.0180
 2828TIP3    H229900   1.646   4.275  15.286  0.6315 -0.2235  0.3369
 2829TIP3   OH229901   2.146   5.190  12.778 -0.2851  0.1316 -0.5279
 2829TIP3    H129902   2.133   5.119  12.716  1.0849  1.9681 -3.0777
 2829TIP3    H229903   2.112   5.268  12.735  0.6813  1.4993  1.0245
 2830TIP3   OH229904   4.839   5.119   2.064 -0.5644 -0.5483  0.1943
 2830TIP3    H129905   4.783   5.063   2.010 -0.2761 -1.6077  0.9681
 2830TIP3    H229906   4.922   5.123   2.017  0.0145 -2.2799  1.0120
 2831TIP3   OH229907   4.002   1.167   4.280 -0.8503 -0.1688  0.0840
 2831TIP3    H129908   4.033   1.223   4.351 -2.8992  1.2031 -0.0309
 2831TIP3    H229909   4.012   1.220   4.201 -0.2912 -0.9981 -0.4104
 2832TIP3   OH229910   1.933   5.852  11.816  0.4940 -0.0505 -0.1527
 2832TIP3    H129911   2.025   5.835  11.794  0.9930  1.0754  0.9224
 2832TIP3    H229912   1.920   5.944  11.795 -0.2710 -0.0918  0.0998
 2833TIP3   OH229913   6.151   1.498  16.031  0.1010 -0.2296  0.6243
 2833TIP3    H129914   6.205   1.577  16.041  0.7859 -0.4083 -1.2129
 2833TIP3    H229915   6.070   1.518  16.077  0.2816  1.5535  0.2437
 2834TIP3   OH229916   5.555   4.776  17.005 -0.1399  0.6350 -0.3280
 2834TIP3    H129917   5.599   4.761  17.089  0.3305  1.4860 -0.4126
 2834TIP3    H229918   5.462   4.782  17.027 -0.0030  1.0312  0.1568
 2835TIP3   OH229919   4.225   0.445   2.171 -0.4974  0.0415  0.2658
 2835TIP3    H129920   4.164   0.437   2.245 -0.4047  1.2278  0.4820
 2835TIP3    H229921   4.173   0.420   2.095 -1.0022  0.1695  0.5611
 2836TIP3   OH229922   4.127   6.648  14.392  0.4134  0.0738  0.4691
 2836TIP3    H129923   4.088   6.667  14.478 -0.8544  1.3277 -0.3412
 2836TIP3    H229924   4.138   6.734  14.351  1.2808 -0.4910 -0.5238
 2837TIP3   OH229925   5.877   4.052   5.889  0.3546  0.1381 -0.3208
 2837TIP3    H129926   5.943   4.121   5.879  1.3804 -0.8910 -0.9286
 2837TIP3    H229927   5.803   4.095   5.932  1.1552  1.4909 -0.2497
 2838TIP3   OH229928   0.222   5.589  11.565  0.0244 -0.7068 -0.1472
 2838TIP3    H129929   0.187   5.517  11.512 -0.4823 -0.3759 -0.2589
 2838TIP3    H229930   0.150   5.613  11.623 -0.4428  0.9699 -1.3821
 2839TIP3   OH229931   0.368   6.157   0.433  0.0788 -0.5327  0.0948
 2839TIP3    H129932   0.300   6.184   0.494 -1.2641  1.1471 -2.0016
 2839TIP3    H229933   0.321   6.131   0.354  1.8126  0.5499 -1.3935
 2840TIP3   OH229934   2.866   3.962  11.783 -0.8258  0.0466  0.2745
 2840TIP3    H129935   2.932   3.996  11.723 -0.6175 -0.0478  0.4466
 2840TIP3    H229936   2.783   3.994  11.749 -0.5896  1.2548  0.7800
 2841TIP3   OH229937   6.487   2.798   1.812  0.3239 -0.0052  0.4019
 2841TIP3    H129938   6.468   2.880   1.858 -0.0376 -1.1019  2.2785
 2841TIP3    H229939   6.544   2.825   1.739  0.4796  1.8589  1.1477
 2842TIP3   OH229940   4.285   5.084  15.701 -0.3063  0.3229 -0.2008
 2842TIP3    H129941   4.291   5.037  15.784  3.6440  0.5108 -0.2006
 2842TIP3    H229942   4.296   5.176  15.724  0.1727  0.4381 -0.8651
 2843TIP3   OH229943   5.880   1.713  11.502 -0.1334  0.9125 -0.4583
 2843TIP3    H129944   5.974   1.702  11.488 -0.6327 -3.5050 -1.7043
 2843TIP3    H229945   5.844   1.716  11.413 -1.3414 -0.3671 -0.0361
 2844TIP3   OH229946   0.183   6.419   4.401  0.2272  0.2760  0.5629
 2844TIP3    H129947   0.265   6.371   4.414  0.1286  0.2282  1.0343
 2844TIP3    H229948   0.184   6.443   4.309  0.7359  0.2078  0.5466
 2845TIP3   OH229949   6.634   4.180  11.941 -0.0017  0.1288 -0.1892
 2845TIP3    H129950   6.699   4.127  11.894  1.8497 -0.2152  2.5040
 2845TIP3    H229951   6.674   4.267  11.948 -0.8060  0.5153 -0.3305
 2846TIP3   OH229952   5.830   4.368  11.541  0.0899  0.1323 -0.1205
 2846TIP3    H129953   5.903   4.323  11.583 -0.8804 -0.1837  1.2636
 2846TIP3    H229954   5.789   4.419  11.610 -0.8332  0.5489 -0.9434
 2847TIP3   OH229955   0.516   0.456   4.665 -0.2724 -0.2152  0.0234
 2847TIP3    H129956   0.459   0.489   4.595 -0.7068 -0.7909  0.0909
 2847TIP3    H229957   0.563   0.383   4.625  0.5860  0.3853 -0.0901
 2848TIP3   OH229958   0.367   3.422   2.984 -0.1589 -0.2616 -0.7704
 2848TIP3    H129959   0.432   3.462   2.927  1.9583 -0.5013  1.2859
 2848TIP3    H229960   0.385   3.328   2.981 -0.7318 -0.3905 -0.5343
 2849TIP3   OH229961   5.495   1.603   4.511  0.8239 -0.2549  0.2066
 2849TIP3    H129962   5.542   1.571   4.588 -1.4393 -0.5488  1.5734
 2849TIP3    H229963   5.532   1.689   4.493  2.2954 -0.7401  0.7656
 2850TIP3   OH229964   0.021   2.926   4.319  0.4192 -0.0724  0.1602
 2850TIP3    H129965  -0.066   2.891   4.340 -1.0279  1.0169 -3.3381
 2850TIP3    H229966   0.081   2.856   4.346 -1.9752 -3.3461 -2.1287
 2851TIP3   OH229967   1.339   6.395   0.188 -0.3015  0.0355 -0.1680
 2851TIP3    H129968   1.368   6.322   0.243  1.2041  0.3911 -0.4381
 2851TIP3    H229969   1.421   6.437   0.160 -0.9731 -0.1617 -2.7070
 2852TIP3   OH229970   5.570   6.336   3.401  0.3485  0.0169 -0.2106
 2852TIP3    H129971   5.639   6.403   3.405 -0.7474  1.2369 -1.0235
 2852TIP3    H229972   5.500   6.377   3.350 -1.0276 -1.1469  0.6830
 2853TIP3   OH229973   1.579   2.235  15.740  0.0035  0.2315 -0.0314
 2853TIP3    H129974   1.623   2.239  15.655  0.3594 -1.0284  0.0691
 2853TIP3    H229975   1.645   2.200  15.800 -0.0556  1.7060  0.9192
 2854TIP3   OH229976   6.390   5.643  12.177  0.2236  0.0505 -0.1727
 2854TIP3    H129977   6.336   5.713  12.214 -0.5208  0.2015 -1.5074
 2854TIP3    H229978   6.362   5.564  12.223  2.1718  0.7630  2.5104
 2855TIP3   OH229979   1.653   5.971  16.555 -0.1573 -0.4827 -0.3184
 2855TIP3    H129980   1.710   6.045  16.537 -0.9420  1.1542  3.0466
 2855TIP3    H229981   1.713   5.898  16.573  0.8406  0.5089  0.5101
 2856TIP3   OH229982   3.824   0.266  14.985  1.0890 -0.2106  0.3138
 2856TIP3    H129983   3.908   0.256  14.940  1.7724 -0.1886  1.5501
 2856TIP3    H229984   3.842   0.325  15.058  0.1132 -0.6039  0.8950
 2857TIP3   OH229985   3.633   4.048  15.612 -0.3805 -0.4692 -0.0300
 2857TIP3    H129986   3.584   3.969  15.633  0.8664 -1.3469 -0.2740
 2857TIP3    H229987   3.705   4.017  15.557  0.3576  0.7779  0.1942
 2858TIP3   OH229988   6.174   1.557   5.165  0.4855 -0.6180 -0.3292
 2858TIP3    H129989   6.121   1.482   5.193 -0.3919 -0.5332 -1.6985
 2858TIP3    H229990   6.214   1.530   5.083 -0.6894  0.7694 -1.3963
 2859TIP3   OH229991   4.412   4.246  16.663 -0.1726 -0.0311  1.1288
 2859TIP3    H129992   4.406   4.166  16.717 -0.4917 -0.1852  0.8699
 2859TIP3    H229993   4.506   4.261  16.653 -0.0270 -1.7819 -0.8642
 2860TIP3   OH229994   3.588   1.300  16.801  0.7381  0.3750  1.1918
 2860TIP3    H129995   3.631   1.231  16.751 -1.8958 -1.5986  1.3809
 2860TIP3    H229996   3.615   1.284  16.892 -0.9552 -1.4694  1.4489
 2861TIP3   OH229997   5.941   1.743  16.532  0.5142 -0.6095 -0.0511
 2861TIP3    H129998   5.980   1.661  16.562  1.8241 -0.1817 -0.5217
 2861TIP3    H229999   6.001   1.811  16.562  1.2776 -0.0768 -2.4883
 2862TIP3   OH230000   4.903   0.667   3.853 -0.0929 -0.0593 -0.0939
 2862TIP3    H130001   4.808   0.668   3.867 -0.0946 -2.1010  0.2740
 2862TIP3    H230002   4.938   0.719   3.925 -0.9370  1.0774 -0.4693
 2863TIP3   OH230003   2.683   5.347  14.353  0.3676  0.2449  0.9082
 2863TIP3    H130004   2.660   5.386  14.269  0.7321 -1.1508  0.1212
 2863TIP3    H230005   2.673   5.418  14.416  0.1039  1.3329 -0.3084
 2864TIP3   OH230006   2.174   1.629  16.950 -0.2632  0.0958 -0.0275
 2864TIP3    H130007   2.096   1.679  16.975 -0.3197 -0.7116  1.5299
 2864TIP3    H230008   2.199   1.582  17.029  0.4294 -1.5066 -1.1292
 2865TIP3   OH230009   0.642   5.946   2.398  0.2595 -0.5317  0.6446
 2865TIP3    H130010   0.704   5.874   2.401 -0.8009 -1.4257  2.4150
 2865TIP3    H230011   0.677   6.012   2.458  0.4491 -0.2063  0.1865
 2866TIP3   OH230012   6.415   4.983  12.750 -0.1528  0.7965 -0.1656
 2866TIP3    H130013   6.349   5.032  12.800  2.3332  1.5364  2.6472
 2866TIP3    H230014   6.498   5.022  12.774  1.5157 -1.1137 -2.3541
 2867TIP3   OH230015   4.144   4.185   0.325  0.1341 -0.2368  0.1849
 2867TIP3    H130016   4.174   4.213   0.239  0.1946 -0.9265 -0.0222
 2867TIP3    H230017   4.177   4.252   0.385  0.5539 -0.0406 -0.2597
 2868TIP3   OH230018   2.318   3.463   4.570  0.1527 -0.4961 -0.1045
 2868TIP3    H130019   2.245   3.432   4.624 -2.2880  0.0378 -2.7802
 2868TIP3    H230020   2.302   3.422   4.484  2.3852  0.5628 -1.1054
 2869TIP3   OH230021   3.539   5.598   4.673 -0.2504 -0.2798  0.6624
 2869TIP3    H130022   3.625   5.561   4.688  0.3706  0.6764 -0.3622
 2869TIP3    H230023   3.497   5.600   4.759  1.0388 -0.0478  1.2968
 2870TIP3   OH230024   4.864   0.604  15.635 -0.4550 -0.1899  0.2597
 2870TIP3    H130025   4.869   0.699  15.622 -0.0827 -0.4272 -1.5408
 2870TIP3    H230026   4.911   0.567  15.560 -0.9097 -1.8156  0.7467
 2871TIP3   OH230027   4.851   5.382  15.188 -0.0764  0.3719  0.2875
 2871TIP3    H130028   4.849   5.475  15.164  3.9857  0.6490  0.3391
 2871TIP3    H230029   4.846   5.383  15.284  1.3100  0.6944  0.3744
 2872TIP3   OH230030   1.877   4.003  14.381  0.1393 -0.0484 -0.2832
 2872TIP3    H130031   1.878   3.940  14.452  0.1876 -0.1425 -0.3670
 2872TIP3    H230032   1.967   4.036  14.377  0.0398  0.2650 -0.0285
 2873TIP3   OH230033   1.853   5.126  13.984  0.0464 -0.4829  0.0334
 2873TIP3    H130034   1.841   5.035  13.956  0.2116 -0.9315  1.3530
 2873TIP3    H230035   1.833   5.125  14.078  2.3221  0.3456  0.6033
 2874TIP3   OH230036   5.942   0.624  12.851 -0.7312 -0.6366  0.3433
 2874TIP3    H130037   6.012   0.645  12.912  0.2287 -1.2496 -0.5151
 2874TIP3    H230038   5.927   0.706  12.803 -0.3546 -0.5953  0.2937
 2875TIP3   OH230039   2.217   5.860   0.682 -0.5701  1.0000 -0.0719
 2875TIP3    H130040   2.169   5.779   0.666  1.0181  0.1343 -0.7404
 2875TIP3    H230041   2.163   5.928   0.642 -1.6150  0.1927 -0.0959
 2876TIP3   OH230042   0.440   2.571   6.416 -0.2556 -0.4438 -0.0982
 2876TIP3    H130043   0.522   2.621   6.414  0.3316 -1.3711 -1.3569
 2876TIP3    H230044   0.448   2.510   6.342 -2.2088 -0.3812 -0.4107
 2877TIP3   OH230045   5.437   2.036  11.263  0.1272  0.3104 -0.1054
 2877TIP3    H130046   5.360   2.045  11.207 -0.4939 -0.1754  0.6379
 2877TIP3    H230047   5.447   1.941  11.273  0.1118  0.3925  0.7420
 2878TIP3   OH230048   3.620   0.053   5.926  0.5272  0.7477  0.0458
 2878TIP3    H130049   3.695   0.097   5.885  1.1023  0.2657  0.5554
 2878TIP3    H230050   3.598   0.108   6.001  1.1060  0.3004  0.5554
 2879TIP3   OH230051   0.674   4.244   7.094  0.8408 -0.8646  0.2618
 2879TIP3    H130052   0.678   4.298   7.174 -0.4219 -0.0576 -0.1935
 2879TIP3    H230053   0.656   4.307   7.024 -1.1306 -1.8892 -0.2228
 2880TIP3   OH230054   4.104   5.640  15.697 -0.0156  0.3925 -0.3984
 2880TIP3    H130055   4.103   5.597  15.612 -1.4208 -0.0299 -0.1875
 2880TIP3    H230056   4.078   5.571  15.759  0.3546  0.8592  0.2972
 2881TIP3   OH230057   0.140   2.996  12.292  0.1608  0.2721 -0.2563
 2881TIP3    H130058   0.118   3.075  12.342  0.0483  0.4240 -0.5455
 2881TIP3    H230059   0.117   3.017  12.202  0.7635  0.1492 -0.4433
 2882TIP3   OH230060   5.747   3.903   1.147  0.4433  0.8101  0.0974
 2882TIP3    H130061   5.776   3.917   1.057 -0.2437 -3.2416 -0.9539
 2882TIP3    H230062   5.659   3.866   1.138  1.0799 -1.4749  2.2405
 2883TIP3   OH230063   1.348   6.615   4.345 -0.5646  0.0313  0.1530
 2883TIP3    H130064   1.434   6.579   4.365  0.1322  1.8888  0.7784
 2883TIP3    H230065   1.352   6.636   4.252 -1.6051 -2.9363 -0.6803
 2884TIP3   OH230066   0.730   5.912   2.673 -0.1078  0.3438 -0.3037
 2884TIP3    H130067   0.751   5.821   2.695  1.1492  0.4070 -1.1078
 2884TIP3    H230068   0.638   5.921   2.695 -0.1137 -0.9532  0.3454
 2885TIP3   OH230069   2.003   0.151  11.730  0.4319 -0.1623 -0.1385
 2885TIP3    H130070   2.026   0.059  11.716 -1.0586 -0.3789 -1.4790
 2885TIP3    H230071   2.021   0.192  11.645  0.7024  0.7077  0.3348
 2886TIP3   OH230072   2.610   5.910  17.123  0.4364  0.1875 -0.0428
 2886TIP3    H130073   2.675   5.860  17.074  1.1544 -1.4167  2.4027
 2886TIP3    H230074   2.644   6.000  17.123  1.1809 -0.0738 -1.1411
 2887TIP3   OH230075   5.622   1.171  15.261  0.1912  0.4940 -0.0006
 2887TIP3    H130076   5.604   1.160  15.355  0.5747 -2.0954 -0.1437
 2887TIP3    H230077   5.535   1.170  15.220  0.0680 -2.9509  0.0478
 2888TIP3   OH230078   5.309   3.381   4.503  0.3563 -0.1636 -0.1612
 2888TIP3    H130079   5.253   3.356   4.429 -0.7858  0.7200  0.3599
 2888TIP3    H230080   5.314   3.302   4.557 -0.7409 -0.1580 -0.0234
 2889TIP3   OH230081   5.938   4.300  16.399  0.0696  0.2600 -0.3949
 2889TIP3    H130082   5.880   4.351  16.455 -0.1156 -0.4339  0.0622
 2889TIP3    H230083   6.026   4.318  16.432  0.0080  0.3043 -0.2536
 2890TIP3   OH230084   3.927   0.421  14.106  0.2579  0.7437  0.2855
 2890TIP3    H130085   3.834   0.443  14.111 -0.0576 -0.1490 -1.1571
 2890TIP3    H230086   3.972   0.500  14.136 -0.9352  1.5074  0.1246
 2891TIP3   OH230087   4.765   5.810   1.496 -0.1039  0.3671 -0.4988
 2891TIP3    H130088   4.698   5.742   1.493  0.4770 -0.1976 -1.3138
 2891TIP3    H230089   4.726   5.881   1.547 -1.0386 -0.2377 -0.3520
 2892TIP3   OH230090   6.204   1.516  14.602 -0.0990  0.0234 -0.4116
 2892TIP3    H130091   6.222   1.588  14.663 -0.0305  1.5603 -2.1443
 2892TIP3    H230092   6.108   1.510  14.601 -0.1351  0.5177 -0.6807
 2893TIP3   OH230093   4.951   5.848  15.609 -0.8526 -0.5654  0.2200
 2893TIP3    H130094   5.023   5.835  15.671  0.2745  1.1690 -0.6527
 2893TIP3    H230095   4.880   5.794  15.644 -0.2670  0.2681  3.0007
 2894TIP3   OH230096   6.642   5.634   0.552  0.2878  0.3130 -0.1318
 2894TIP3    H130097   6.686   5.715   0.528  0.1068  0.4625  0.0414
 2894TIP3    H230098   6.562   5.633   0.499  0.6414 -0.1044 -0.6702
 2895TIP3   OH230099   4.360   6.006  11.878 -0.0492 -0.5235 -0.2427
 2895TIP3    H130100   4.388   5.969  11.794 -1.3816 -0.3271 -0.7914
 2895TIP3    H230101   4.425   5.974  11.940  0.8945 -0.7781 -1.3183
 2896TIP3   OH230102   2.031   1.973  15.750 -0.1480  0.3361 -0.0427
 2896TIP3    H130103   2.005   1.936  15.666  1.9517  0.6346 -0.8920
 2896TIP3    H230104   2.111   1.926  15.773 -0.6709  0.2868  1.7934
 2897TIP3   OH230105   0.609   4.985   5.181 -0.0522 -0.6041 -0.1941
 2897TIP3    H130106   0.639   5.075   5.173 -1.9135  0.1421  0.5325
 2897TIP3    H230107   0.522   4.992   5.222  0.4177 -2.8201  1.4137
 2898TIP3   OH230108   3.853   1.369   2.735 -0.4709  0.0053 -0.6648
 2898TIP3    H130109   3.895   1.303   2.790  0.5060  1.8634  0.9380
 2898TIP3    H230110   3.924   1.428   2.709 -1.3014  0.4217 -2.1002
 2899TIP3   OH230111   1.854   1.411  17.147  0.7827 -0.5851 -0.4813
 2899TIP3    H130112   1.818   1.407  17.236  1.6018 -2.4785 -0.1963
 2899TIP3    H230113   1.909   1.490  17.148  2.3224 -1.5686  1.3659
 2900TIP3   OH230114   6.102   3.750   1.240  0.0033  0.6545  0.3143
 2900TIP3    H130115   6.161   3.819   1.269  2.2785 -0.0760 -2.1864
 2900TIP3    H230116   6.090   3.694   1.316  2.0830  1.1739  1.0751
 2901TIP3   OH230117   5.211   2.362  16.840  0.1451 -0.4106 -0.4677
 2901TIP3    H130118   5.241   2.416  16.913  1.1595 -1.1820 -0.2906
 2901TIP3    H230119   5.173   2.424  16.778  1.3014  0.5230 -0.2800
 2902TIP3   OH230120   1.969   0.952  11.374 -0.5704 -0.1150  0.1676
 2902TIP3    H130121   1.961   0.861  11.343 -1.0015 -0.3049  0.8192
 2902TIP3    H230122   2.051   0.954  11.423  0.5567  0.3971 -1.6552
 2903TIP3   OH230123   0.319   3.831   4.215  0.3067  0.0364 -0.4377
 2903TIP3    H130124   0.389   3.854   4.276 -1.1298 -0.5746  1.5637
 2903TIP3    H230125   0.257   3.780   4.268 -1.8479  0.8730 -1.9995
 2904TIP3   OH230126   2.221   0.419  11.243 -0.0232  0.1139 -0.4327
 2904TIP3    H130127   2.291   0.385  11.188 -0.7579 -0.2728 -1.1531
 2904TIP3    H230128   2.143   0.415  11.187 -0.8031 -0.3733  0.6611
 2905TIP3   OH230129   5.297   2.599  14.199  0.3655 -0.2019  0.1189
 2905TIP3    H130130   5.265   2.647  14.276 -0.8197  0.0085 -0.4931
 2905TIP3    H230131   5.298   2.664  14.129 -2.3910 -1.2461 -1.0368
 2906TIP3   OH230132   4.730   5.365  14.635  1.0388 -0.4371  0.4320
 2906TIP3    H130133   4.773   5.303  14.694  1.4979  0.5604  1.1618
 2906TIP3    H230134   4.756   5.336  14.548  0.5521 -1.7803  0.7067
 2907TIP3   OH230135   6.073   1.243  11.706 -0.0127  0.8427 -0.3565
 2907TIP3    H130136   6.113   1.242  11.793 -0.2483  0.8926 -0.2461
 2907TIP3    H230137   5.986   1.279  11.720 -2.2391 -3.9824  0.3396
 2908TIP3   OH230138   2.796   3.353  14.391 -0.1686 -0.2712 -0.3409
 2908TIP3    H130139   2.816   3.320  14.479  1.4934 -0.5505 -0.7822
 2908TIP3    H230140   2.722   3.299  14.362 -0.1762 -0.7714  0.5557
 2909TIP3   OH230141   3.431   2.417  14.812  0.1984  0.7175 -0.2131
 2909TIP3    H130142   3.362   2.365  14.853  0.7878  0.1395  0.0762
 2909TIP3    H230143   3.502   2.354  14.796  1.5892  1.6904  1.6593
 2910TIP3   OH230144   0.671   2.292  15.513 -0.3845  0.1595 -0.4729
 2910TIP3    H130145   0.616   2.311  15.590  0.8493  1.8635  0.0462
 2910TIP3    H230146   0.758   2.276  15.550  0.1679  0.7512 -1.4858
 2911TIP3   OH230147   0.674   1.573   0.476 -0.2700  0.2113  0.6511
 2911TIP3    H130148   0.607   1.593   0.411  1.3850  0.3606 -1.0745
 2911TIP3    H230149   0.707   1.486   0.451  0.4287  0.2862  1.2555
 2912TIP3   OH230150   3.170   2.235   0.772  0.2546 -0.8337  0.0764
 2912TIP3    H130151   3.090   2.184   0.757 -0.1096  0.1341 -1.6149
 2912TIP3    H230152   3.233   2.172   0.807 -0.4881 -2.2183 -0.9680
 2913TIP3   OH230153   6.029   2.298  15.091  0.2639  0.5064 -0.2715
 2913TIP3    H130154   6.015   2.255  15.006 -0.9315  2.0431 -0.9028
 2913TIP3    H230155   6.114   2.341  15.081 -0.1606  1.2255 -0.9708
 2914TIP3   OH230156   4.475   3.491  14.594  0.0025 -0.4564  0.0349
 2914TIP3    H130157   4.457   3.570  14.542 -0.7996 -1.4231 -1.2164
 2914TIP3    H230158   4.391   3.470  14.634 -0.0809 -1.3162 -0.5723
 2915TIP3   OH230159   4.437   4.841   0.126  0.1015 -0.5450 -0.5769
 2915TIP3    H130160   4.528   4.816   0.141  0.2088  0.2972  0.3042
 2915TIP3    H230161   4.442   4.918   0.070 -0.0020  0.0705  0.2334
 2916TIP3   OH230162   0.881   0.211   1.614 -0.0225  0.4082 -0.2749
 2916TIP3    H130163   0.893   0.192   1.707  3.2735 -0.2302 -0.6978
 2916TIP3    H230164   0.787   0.205   1.600 -0.6391  0.5958  3.0016
 2917TIP3   OH230165   0.281   4.514  15.333  0.8371 -0.9772  0.1396
 2917TIP3    H130166   0.229   4.459  15.393 -0.9138 -0.2564 -0.6358
 2917TIP3    H230167   0.246   4.495  15.246  3.3222 -1.9789 -0.7298
 2918TIP3   OH230168   2.288   1.653  15.591 -0.3666  0.6969  0.5934
 2918TIP3    H130169   2.347   1.659  15.666  1.0129  1.4185 -0.5130
 2918TIP3    H230170   2.328   1.708  15.524 -1.4889 -0.0473 -0.7441
 2919TIP3   OH230171   0.405   3.691   1.713 -0.1057 -0.4337  0.0454
 2919TIP3    H130172   0.430   3.773   1.756 -3.3445 -1.6972  5.2002
 2919TIP3    H230173   0.479   3.633   1.730 -0.9759 -0.6829  3.8676
 2920TIP3   OH230174   1.275   2.971  13.827  0.6326 -0.2492 -0.0868
 2920TIP3    H130175   1.233   3.034  13.768  1.6755  0.1021 -0.4642
 2920TIP3    H230176   1.365   2.964  13.796  0.9863 -0.6682  0.9675
 2921TIP3   OH230177   5.086   4.021   1.723  0.0631  0.0282  0.1972
 2921TIP3    H130178   5.155   3.969   1.681  0.9221  1.7420 -0.6333
 2921TIP3    H230179   5.019   4.030   1.655  0.3840  0.8217 -0.0308
 2922TIP3   OH230180   6.189   6.023   0.652  0.1783  0.6690  0.0952
 2922TIP3    H130181   6.135   6.086   0.700 -1.2575 -0.5244  0.1221
 2922TIP3    H230182   6.128   5.980   0.593  0.9743 -1.1623  0.5559
 2923TIP3   OH230183   5.114   0.078  11.909 -0.4780 -0.1183  0.0869
 2923TIP3    H130184   5.147   0.089  11.999 -0.9913  0.0654  0.2528
 2923TIP3    H230185   5.053   0.004  11.916 -0.4751 -0.1389 -0.1242
 2924TIP3   OH230186   0.299   6.359  14.688  0.3139  0.2135 -0.1707
 2924TIP3    H130187   0.300   6.452  14.712 -1.4209  0.1984  0.0404
 2924TIP3    H230188   0.251   6.316  14.758  0.4355 -0.7308 -0.6503
 2925TIP3   OH230189   0.643   5.003  13.712 -0.3923  0.4960 -0.2595
 2925TIP3    H130190   0.629   5.040  13.800 -1.9868 -0.2972 -0.1556
 2925TIP3    H230191   0.738   5.002  13.702 -0.1241 -0.4330  1.9150
 2926TIP3   OH230192   2.547   0.819   6.267  0.4245  0.4959 -0.9626
 2926TIP3    H130193   2.555   0.906   6.305 -2.0162  0.6494 -0.6445
 2926TIP3    H230194   2.635   0.781   6.274  1.3141  2.5768 -0.2891
 2927TIP3   OH230195   1.307   3.567   1.399 -0.2104 -0.6233 -0.1743
 2927TIP3    H130196   1.327   3.530   1.312 -1.6745 -1.4639 -0.1864
 2927TIP3    H230197   1.220   3.604   1.389 -0.7341 -1.4485  1.1497
 2928TIP3   OH230198   2.519   3.090   5.655 -0.0966  0.1173  0.5899
 2928TIP3    H130199   2.566   3.082   5.572 -0.9184  1.2541 -0.0260
 2928TIP3    H230200   2.501   3.184   5.663 -3.1769 -0.3103  0.2131
 2929TIP3   OH230201   4.272   5.318   0.417  0.0459  0.2357  0.1633
 2929TIP3    H130202   4.349   5.266   0.438 -1.6956 -1.4985  3.0142
 2929TIP3    H230203   4.228   5.330   0.501 -1.7287  2.9928 -1.0171
 2930TIP3   OH230204   3.784   1.633  11.616  0.0494  0.1396 -0.4187
 2930TIP3    H130205   3.797   1.545  11.583  0.4376  0.1349 -0.2495
 2930TIP3    H230206   3.851   1.686  11.573 -2.1249  1.0149 -3.0330
 2931TIP3   OH230207   2.234   0.184   0.204  0.1155  0.7445 -0.4427
 2931TIP3    H130208   2.175   0.120   0.245  2.0156 -0.4633  0.5818
 2931TIP3    H230209   2.204   0.190   0.113 -2.3865  1.2405  0.3401
 2932TIP3   OH230210   3.839   6.281   4.698 -0.2673 -0.2927 -0.4939
 2932TIP3    H130211   3.802   6.251   4.615  0.5661  1.0912 -1.4201
 2932TIP3    H230212   3.820   6.375   4.700 -2.3873 -0.6641  2.0608
 2933TIP3   OH230213   4.310   3.196  10.942 -0.0348  0.3777 -0.3640
 2933TIP3    H130214   4.342   3.226  11.027 -0.9267 -0.4297  0.2766
 2933TIP3    H230215   4.220   3.228  10.937 -0.5111 -0.8672 -0.3041
 2934TIP3   OH230216   6.524   1.520  14.570 -0.2386  0.4031  0.9426
 2934TIP3    H130217   6.450   1.543  14.625 -0.3276 -0.8767  1.3991
 2934TIP3    H230218   6.583   1.471  14.627  1.2034  1.7991  0.7087
 2935TIP3   OH230219   0.297   4.362   6.662  0.2163  0.1168  0.4055
 2935TIP3    H130220   0.232   4.292   6.655 -0.0846  0.5585 -2.2874
 2935TIP3    H230221   0.248   4.443   6.644  1.0424  0.7249  0.8192
 2936TIP3   OH230222   6.598   1.497  15.548  0.1039 -0.6861 -0.4966
 2936TIP3    H130223   6.584   1.530  15.459 -1.0175  0.2633  0.0046
 2936TIP3    H230224   6.511   1.496  15.587  0.6400 -0.6936  0.7338
 2937TIP3   OH230225   3.755   6.653   1.563  0.3586 -0.2574 -0.2330
 2937TIP3    H130226   3.716   6.703   1.635  0.7753  1.3177 -1.0814
 2937TIP3    H230227   3.733   6.562   1.584 -1.6467  0.3538  0.6026
 2938TIP3   OH230228   6.372   6.131  14.397  0.1042 -0.1764 -0.1210
 2938TIP3    H130229   6.414   6.185  14.464  1.8439  2.1511 -2.8162
 2938TIP3    H230230   6.280   6.158  14.398  0.3468  0.6525  0.5804
 2939TIP3   OH230231   5.759   6.693  13.663  0.5905 -0.6214  0.7149
 2939TIP3    H130232   5.667   6.716  13.673  0.5025 -1.2663  1.4837
 2939TIP3    H230233   5.789   6.744  13.588 -0.0469  0.6090  1.2788
 2940TIP3   OH230234   2.635   6.474  13.546  0.1078 -0.1423 -0.3129
 2940TIP3    H130235   2.545   6.442  13.541 -0.5407  1.0448  2.0848
 2940TIP3    H230236   2.688   6.396  13.559 -0.9277 -0.6689  0.9969
 2941TIP3   OH230237   3.266   2.478  17.458  0.3940  1.0916 -0.4938
 2941TIP3    H130238   3.254   2.446  17.548  0.1098 -1.9523 -1.4950
 2941TIP3    H230239   3.201   2.547  17.448 -0.1062  0.9467  1.4068
 2942TIP3   OH230240   6.016   2.241  14.792 -0.8531  0.0324 -0.2018
 2942TIP3    H130241   5.940   2.300  14.796 -1.2814 -0.5569  2.2004
 2942TIP3    H230242   6.084   2.292  14.748 -1.0944  2.5226  2.0289
 2943TIP3   OH230243   0.351   4.157  14.626  0.6470  0.0151 -0.3226
 2943TIP3    H130244   0.379   4.076  14.585 -0.4030 -1.2981  1.3914
 2943TIP3    H230245   0.351   4.138  14.720 -2.3971  1.0138  0.0154
 2944TIP3   OH230246   5.558   1.463   2.257 -0.5282  0.2562 -0.0122
 2944TIP3    H130247   5.473   1.495   2.226 -2.2210 -1.7743  2.1087
 2944TIP3    H230248   5.556   1.369   2.237  1.0688  0.0882  0.4935
 2945TIP3   OH230249   5.504   0.688   4.609  0.2026  0.0633 -0.4456
 2945TIP3    H130250   5.581   0.702   4.664  0.0958 -0.7835 -0.0642
 2945TIP3    H230251   5.510   0.756   4.542  1.0684  0.2521 -0.1931
 2946TIP3   OH230252   2.230   0.834   1.868  0.3962 -0.2898  0.1675
 2946TIP3    H130253   2.260   0.756   1.822 -1.0126 -0.2807 -0.8525
 2946TIP3    H230254   2.210   0.803   1.957  1.4101 -0.7153  0.2576
 2947TIP3   OH230255   1.574   3.181   2.279  0.3244  0.3354 -0.6745
 2947TIP3    H130256   1.632   3.253   2.304 -1.0565  0.7803  1.6040
 2947TIP3    H230257   1.633   3.110   2.253  1.8455  1.1966  0.2625
 2948TIP3   OH230258   0.746   4.269   5.299 -0.0288  0.0153 -0.0758
 2948TIP3    H130259   0.793   4.232   5.373  0.3590 -2.3285 -1.4026
 2948TIP3    H230260   0.654   4.252   5.317  0.0302 -0.1240  0.0855
 2949TIP3   OH230261   0.204   5.489   2.954  0.5576 -0.0184 -0.1253
 2949TIP3    H130262   0.230   5.580   2.938  0.4447  0.0921  0.3038
 2949TIP3    H230263   0.247   5.439   2.885 -0.7578  0.5650 -1.4165
 2950TIP3   OH230264   5.224   6.187  15.439 -0.5032  0.1004 -0.3519
 2950TIP3    H130265   5.247   6.242  15.364 -0.4988 -0.0720 -0.4778
 2950TIP3    H230266   5.307   6.147  15.466 -0.2194  1.3644  0.7243
 2951TIP3   OH230267   2.233   4.534   4.770  0.1920 -0.5524  0.5227
 2951TIP3    H130268   2.241   4.439   4.781  1.4715 -0.4219  0.9304
 2951TIP3    H230269   2.296   4.571   4.832 -1.1953  0.6276  1.2884
 2952TIP3   OH230270   6.670   1.195   2.195  0.3320 -0.6554  0.2349
 2952TIP3    H130271   6.745   1.247   2.224  0.0519 -0.7224  1.1363
 2952TIP3    H230272   6.616   1.256   2.145  0.7093 -0.4536  0.0782
 2953TIP3   OH230273   2.421   5.759  11.009  0.6868 -0.2375 -0.6340
 2953TIP3    H130274   2.447   5.717  11.091  1.4153  0.0191 -0.7205
 2953TIP3    H230275   2.418   5.852  11.029  0.3130 -0.2242 -0.7553
 2954TIP3   OH230276   6.099   4.663   2.638 -0.1601 -0.0299  0.6490
 2954TIP3    H130277   6.134   4.742   2.596 -0.9619 -0.0670 -0.1073
 2954TIP3    H230278   6.015   4.690   2.675 -0.7171 -0.6582 -0.1202
 2955TIP3   OH230279   4.411   2.177  12.070 -0.0392  0.0043 -0.8621
 2955TIP3    H130280   4.382   2.096  12.028  2.2462 -1.3641 -0.0090
 2955TIP3    H230281   4.499   2.191  12.034 -0.5985  2.4595 -1.4145
 2956TIP3   OH230282   3.506   0.831  15.216  0.2267  0.2430 -0.0668
 2956TIP3    H130283   3.586   0.796  15.254 -0.4724 -0.5164  0.7364
 2956TIP3    H230284   3.508   0.924  15.236  0.5582  0.0996  0.5802
 2957TIP3   OH230285   0.134   5.432  16.056  0.4808  0.1077 -0.4045
 2957TIP3    H130286   0.165   5.475  16.136  1.4067  0.2623 -0.8436
 2957TIP3    H230287   0.167   5.342  16.062 -1.2484 -0.5394  0.3962
 2958TIP3   OH230288   1.177   3.719  10.987 -0.5535 -0.2389 -0.0794
 2958TIP3    H130289   1.271   3.701  10.998 -0.5832 -1.3730 -1.2829
 2958TIP3    H230290   1.139   3.700  11.072  0.5279  2.1109  1.0018
 2959TIP3   OH230291   6.711   2.791  13.431  0.3714 -0.1986 -0.0919
 2959TIP3    H130292   6.646   2.729  13.464  1.4106 -0.2900  1.9266
 2959TIP3    H230293   6.793   2.743  13.430  1.0715  0.9235  0.8629
 2960TIP3   OH230294   5.839   3.885   4.241 -0.3302 -0.5206  0.1283
 2960TIP3    H130295   5.879   3.840   4.166 -3.0256 -3.0950  0.0708
 2960TIP3    H230296   5.750   3.903   4.213 -1.0745 -0.5399  2.3119
 2961TIP3   OH230297   5.919   3.686  12.819 -0.2517 -0.0779  0.4811
 2961TIP3    H130298   5.869   3.666  12.898  0.6314 -2.7582  0.4583
 2961TIP3    H230299   5.987   3.746  12.848 -1.8337  1.5231  1.0405
 2962TIP3   OH230300   4.771   0.366   5.685  0.2046 -0.3851  0.0727
 2962TIP3    H130301   4.803   0.380   5.596 -0.2279  1.0737  0.1238
 2962TIP3    H230302   4.686   0.322   5.674 -0.5166  1.0465 -0.3262
 2963TIP3   OH230303   0.268   0.046  13.469 -0.6240  0.2555  0.5234
 2963TIP3    H130304   0.225   0.066  13.552 -1.0178  0.9414  0.1611
 2963TIP3    H230305   0.299   0.131  13.437 -0.2163 -0.0443  0.1082
 2964TIP3   OH230306   1.883   5.325  15.317  0.3775 -0.2769 -0.3444
 2964TIP3    H130307   1.799   5.293  15.284 -0.3365  0.9680  0.2091
 2964TIP3    H230308   1.890   5.415  15.285  0.5756  0.2996  1.2051
 2965TIP3   OH230309   6.247   1.528   1.444 -0.6756  0.3499 -0.5795
 2965TIP3    H130310   6.286   1.503   1.360 -0.4979  1.5564 -0.8715
 2965TIP3    H230311   6.185   1.457   1.463  0.5624 -0.8535 -0.8219
 2966TIP3   OH230312   4.786   0.328  16.130 -0.8351  0.6356  0.1680
 2966TIP3    H130313   4.846   0.354  16.060 -1.2784  0.6954 -0.2001
 2966TIP3    H230314   4.841   0.319  16.207 -0.5291  1.7992  0.1014
 2967TIP3   OH230315   1.858   1.642   5.107 -0.1830  0.3438 -0.0206
 2967TIP3    H130316   1.907   1.681   5.035  0.6725 -0.6270  0.0119
 2967TIP3    H230317   1.923   1.591   5.156 -1.6241 -3.7623 -1.8941
 2968TIP3   OH230318   1.351   0.862   0.514 -0.3127  0.3288  0.2014
 2968TIP3    H130319   1.263   0.859   0.550  0.0203  1.3384  1.1611
 2968TIP3    H230320   1.409   0.859   0.591  0.4066  3.7837 -0.0589
 2969TIP3   OH230321   6.656   1.749  15.709  0.0253 -0.2297 -0.4554
 2969TIP3    H130322   6.561   1.759  15.707 -0.0186 -0.3068  0.6305
 2969TIP3    H230323   6.674   1.675  15.652 -0.6762 -0.8867  0.1601
 2970TIP3   OH230324   3.650   3.878  14.821 -0.6278  0.1102 -0.5001
 2970TIP3    H130325   3.607   3.963  14.835 -0.1700 -0.0308  2.0680
 2970TIP3    H230326   3.632   3.828  14.900  1.9213 -0.9809 -0.5216
 2971TIP3   OH230327   2.574   0.813  16.412  0.7148  0.1731 -0.4590
 2971TIP3    H130328   2.600   0.751  16.480 -0.0439  0.5249  0.1702
 2971TIP3    H230329   2.521   0.762  16.352  1.0745 -0.0562 -0.5829
 2972TIP3   OH230330   0.397   3.629  11.355  0.0537 -0.5918 -0.2265
 2972TIP3    H130331   0.472   3.617  11.296  0.9741  1.1743  0.4887
 2972TIP3    H230332   0.361   3.714  11.331 -0.6972 -0.6801  0.5349
 2973TIP3   OH230333   2.645   3.556  12.112  0.0715  0.6049  0.5621
 2973TIP3    H130334   2.652   3.601  12.196  0.1666  0.2872  0.7261
 2973TIP3    H230335   2.730   3.512  12.101  0.1544  0.8596  0.1764
 2974TIP3   OH230336   0.976   3.892  14.368  0.2251 -0.5405 -0.5513
 2974TIP3    H130337   1.029   3.824  14.408  1.1235 -0.3435 -1.3729
 2974TIP3    H230338   0.929   3.933  14.441  0.9566 -0.9175  0.1399
 2975TIP3   OH230339   4.965   0.971  17.129 -0.0296 -0.2829  0.3694
 2975TIP3    H130340   4.950   1.062  17.106  0.0513 -0.6260 -1.1467
 2975TIP3    H230341   5.057   0.955  17.109 -0.1785 -0.8291  0.0626
 2976TIP3   OH230342   2.439   0.378   4.980 -0.8426 -0.3529 -0.4039
 2976TIP3    H130343   2.397   0.415   4.902 -1.1673  1.3120  0.5276
 2976TIP3    H230344   2.531   0.368   4.955 -0.9676  0.0244 -1.0410
 2977TIP3   OH230345   3.528   5.093  13.585  0.4097  0.6452 -0.4310
 2977TIP3    H130346   3.574   5.012  13.608 -0.2277  0.1212 -0.9557
 2977TIP3    H230347   3.455   5.098  13.648  0.9992  1.3255  0.2175
 2978TIP3   OH230348   5.006   3.107   0.997 -0.1598  0.1073 -0.2799
 2978TIP3    H130349   5.010   3.184   1.054  1.9512 -0.0332 -0.1641
 2978TIP3    H230350   4.945   3.048   1.042  1.0277  0.2236  1.6103
 2979TIP3   OH230351   5.973   0.901  16.694  0.0663  0.0887 -0.1689
 2979TIP3    H130352   5.911   0.836  16.660  1.2869 -0.1340 -2.1726
 2979TIP3    H230353   6.059   0.864  16.674  0.8108  1.9772 -0.7021
 2980TIP3   OH230354   1.804   3.262   5.671 -0.3538 -0.1920 -0.7499
 2980TIP3    H130355   1.837   3.228   5.754  2.2107  1.0971 -1.1356
 2980TIP3    H230356   1.755   3.341   5.695  0.2509  0.0917 -0.4342
 2981TIP3   OH230357   3.580   5.425  11.570 -0.3447 -0.2952  0.2970
 2981TIP3    H130358   3.549   5.452  11.483 -3.4616 -1.1758  1.0372
 2981TIP3    H230359   3.605   5.507  11.613 -0.0643  0.2915 -0.9306
 2982TIP3   OH230360   4.274   5.855  13.785  0.1881  0.1649  0.1662
 2982TIP3    H130361   4.217   5.853  13.862 -0.2178 -0.8084 -0.1469
 2982TIP3    H230362   4.343   5.793  13.805 -0.5160 -0.9380 -0.6856
 2983TIP3   OH230363   4.084   1.507   2.723  0.9479  0.0549  0.0156
 2983TIP3    H130364   4.125   1.421   2.710 -1.5528 -1.3630  0.7454
 2983TIP3    H230365   4.078   1.515   2.818 -0.9859 -0.1130 -0.0639
 2984TIP3   OH230366   2.894   4.843   1.627 -0.2013  0.4290  0.1441
 2984TIP3    H130367   2.964   4.792   1.670 -0.3731 -0.7504 -0.9123
 2984TIP3    H230368   2.813   4.804   1.660 -0.3399 -1.1150 -1.8883
 2985TIP3   OH230369   0.643   2.518   2.561 -0.0906  0.2576 -0.0739
 2985TIP3    H130370   0.591   2.553   2.489  0.1576  0.6514 -0.0685
 2985TIP3    H230371   0.719   2.477   2.519  0.8568  1.8319 -0.0004
 2986TIP3   OH230372   2.803   4.913   2.220 -0.2202  0.2431 -0.2986
 2986TIP3    H130373   2.892   4.887   2.244  0.1108  0.5500 -1.1520
 2986TIP3    H230374   2.761   4.832   2.192 -0.0109  0.2042 -0.4990
 2987TIP3   OH230375   6.039   1.450   0.140 -0.2198 -0.0093  0.1856
 2987TIP3    H130376   6.096   1.412   0.074 -0.9650 -1.1065  0.1553
 2987TIP3    H230377   5.955   1.463   0.096 -0.0579  1.5340  0.2477
 2988TIP3   OH230378   0.185   1.336  11.356 -0.1101 -0.4087  0.1561
 2988TIP3    H130379   0.165   1.287  11.276  0.5176 -2.5064  1.2174
 2988TIP3    H230380   0.135   1.417  11.348 -0.0666 -0.5628 -2.3440
 2989TIP3   OH230381   3.874   0.151  11.572  0.0315  0.1173  0.1809
 2989TIP3    H130382   3.886   0.199  11.491 -0.6323  0.0222  0.0267
 2989TIP3    H230383   3.962   0.119  11.594  0.1246 -0.2988 -0.7715
 2990TIP3   OH230384   4.180   5.093   2.865  0.6261 -0.4315 -0.2634
 2990TIP3    H130385   4.227   5.063   2.787  0.1021 -0.1156 -0.7141
 2990TIP3    H230386   4.205   5.031   2.934  1.5248 -0.3968 -0.5384
 2991TIP3   OH230387   4.175   0.815   3.616  0.0373  0.0011 -0.0895
 2991TIP3    H130388   4.121   0.771   3.550 -0.3427 -0.4051  0.4820
 2991TIP3    H230389   4.114   0.874   3.662 -0.3133 -1.5845  1.5923
 2992TIP3   OH230390   0.044   2.933   3.389 -0.6987 -0.0405  0.7733
 2992TIP3    H130391   0.042   3.026   3.413 -0.4344  0.2563 -0.2982
 2992TIP3    H230392   0.109   2.928   3.319 -2.7590 -0.5195 -1.2223
 2993TIP3   OH230393   2.825   6.096  13.780  0.2780  0.3032 -0.7129
 2993TIP3    H130394   2.795   6.105  13.870  2.3252 -2.0587  0.3300
 2993TIP3    H230395   2.745   6.075  13.730 -0.6125 -0.5191  0.9592
 2994TIP3   OH230396   1.551   3.012   3.061 -0.0482 -0.1446 -0.0492
 2994TIP3    H130397   1.541   3.096   3.017  0.0797 -0.7610 -1.3224
 2994TIP3    H230398   1.645   3.006   3.081 -0.2096  0.4215  0.9337
 2995TIP3   OH230399   4.165   6.124   5.261  0.2936 -0.2075  0.3552
 2995TIP3    H130400   4.083   6.131   5.213  0.1301  1.6724  0.8374
 2995TIP3    H230401   4.141   6.141   5.352  1.0611 -0.7063  0.6581
 2996TIP3   OH230402   0.810   0.956  14.600 -0.5441 -0.5939  0.5378
 2996TIP3    H130403   0.771   1.010  14.669 -0.6493 -1.3678  1.0992
 2996TIP3    H230404   0.904   0.975  14.606 -0.6779  0.3181  0.0193
 2997TIP3   OH230405   1.640   5.822   3.388 -0.0791  0.1025 -0.0989
 2997TIP3    H130406   1.697   5.764   3.339 -0.6472  0.6553 -1.4771
 2997TIP3    H230407   1.671   5.817   3.478  1.3098 -0.5802 -0.5961
 2998TIP3   OH230408   6.553   2.961  17.311 -0.7231 -0.1000 -0.2104
 2998TIP3    H130409   6.507   3.042  17.335  0.1319  0.1927  0.4680
 2998TIP3    H230410   6.612   2.987  17.240 -1.0884 -0.3264 -0.5998
 2999TIP3   OH230411   1.761   5.808  13.959  0.5612 -0.0818  0.0318
 2999TIP3    H130412   1.786   5.784  13.870 -0.7227  0.1047 -0.3918
 2999TIP3    H230413   1.810   5.889  13.977  3.0471 -1.5782  0.5899
 3000TIP3   OH230414   5.055   4.662  14.084 -0.4602 -0.2450  0.0133
 3000TIP3    H130415   5.142   4.628  14.063 -0.2853 -1.0020  1.7328
 3000TIP3    H230416   5.032   4.617  14.165 -2.9047 -0.8084 -0.9226
 3001TIP3   OH230417   6.377   5.508   4.087 -0.3182 -0.3090  0.3307
 3001TIP3    H130418   6.324   5.429   4.084  0.7606 -1.0401 -0.2587
 3001TIP3    H230419   6.434   5.496   4.163  1.3460 -1.1381 -0.9824
 3002TIP3   OH230420   4.540   0.356  16.623  0.5418 -0.0361  0.4309
 3002TIP3    H130421   4.541   0.404  16.705  0.8469  0.9732 -0.1513
 3002TIP3    H230422   4.628   0.365  16.588  0.5925 -0.9785  0.2770
 3003TIP3   OH230423   3.798   5.638   0.840  0.1100  0.5934 -0.0250
 3003TIP3    H130424   3.707   5.609   0.836  0.5544 -1.0113  0.7389
 3003TIP3    H230425   3.794   5.732   0.823 -1.5035  0.2807 -1.6587
 3004TIP3   OH230426   2.057   5.952  17.509  0.0953 -0.4789 -0.3782
 3004TIP3    H130427   1.962   5.957  17.522  0.1254  2.4638 -0.6235
 3004TIP3    H230428   2.093   5.953  17.598 -0.1008  0.7359 -0.2902
 3005TIP3   OH230429   0.333   2.600  17.475  0.7218  0.6719 -0.5588
 3005TIP3    H130430   0.403   2.564  17.530  1.7719  1.2682 -1.4591
 3005TIP3    H230431   0.350   2.564  17.388 -1.3229 -0.8068 -0.4182
 3006TIP3   OH230432   5.108   3.872   1.985 -0.4491 -0.4173 -0.1565
 3006TIP3    H130433   5.069   3.896   2.069  0.5082 -0.2450  0.2511
 3006TIP3    H230434   5.074   3.937   1.923  2.7715  2.7766  1.0748
 3007TIP3   OH230435   5.669   1.079  11.714 -0.6746 -0.2902 -0.3293
 3007TIP3    H130436   5.683   1.073  11.808  0.3352 -0.4803 -0.4839
 3007TIP3    H230437   5.590   1.027  11.698  1.1722 -3.4120 -0.0621
 3008TIP3   OH230438   1.833   3.391  17.318 -0.2895  0.3109  0.2427
 3008TIP3    H130439   1.890   3.467  17.307  1.8443 -1.5700 -3.2199
 3008TIP3    H230440   1.890   3.324  17.357 -0.7725 -0.8762 -1.0325
 3009TIP3   OH230441   2.594   0.391   2.392 -0.5760 -0.5155 -0.2131
 3009TIP3    H130442   2.583   0.350   2.478 -0.7496 -0.2900 -0.1248
 3009TIP3    H230443   2.530   0.349   2.336 -0.8410 -0.2810 -0.0905
 3010TIP3   OH230444   3.209   1.877   6.425 -0.1242  0.4888  0.0579
 3010TIP3    H130445   3.240   1.942   6.362 -0.4653 -0.4426 -1.1033
 3010TIP3    H230446   3.227   1.916   6.511  1.9805  1.0404 -0.5823
 3011TIP3   OH230447   2.994   3.045  14.924  0.4330  0.5457 -0.0555
 3011TIP3    H130448   3.043   2.988  14.865 -2.5848 -0.7818 -1.4965
 3011TIP3    H230449   3.058   3.074  14.988  3.0574 -1.0009 -1.7845
 3012TIP3   OH230450   2.316   2.836  11.789  0.0269  0.1575 -0.9053
 3012TIP3    H130451   2.264   2.915  11.807 -0.0780  0.0571 -0.7586
 3012TIP3    H230452   2.365   2.822  11.870  0.3969  0.3368 -1.0983
 3013TIP3   OH230453   5.308   2.107   6.596  0.0965  0.5997  0.2413
 3013TIP3    H130454   5.289   2.014   6.612  0.1893  0.2505 -1.3991
 3013TIP3    H230455   5.224   2.151   6.611 -0.0050  0.2185  0.8252
 3014TIP3   OH230456   0.481   5.780   3.009  0.3042  0.1898 -0.1363
 3014TIP3    H130457   0.531   5.858   2.987 -1.6136  2.2699  2.2767
 3014TIP3    H230458   0.394   5.813   3.031 -0.4728 -2.5726  1.3655
 3015TIP3   OH230459   5.427   4.418   5.956 -0.2802  0.1900 -0.0781
 3015TIP3    H130460   5.362   4.462   6.010 -1.2572 -0.4415 -0.6991
 3015TIP3    H230461   5.412   4.325   5.972  0.8755  0.0420  0.2120
 3016TIP3   OH230462   6.241   0.854   0.705  0.4179 -0.1642  0.2706
 3016TIP3    H130463   6.250   0.946   0.731 -2.3210  0.3717 -0.3973
 3016TIP3    H230464   6.260   0.805   0.785  1.1430  1.0122  0.8479
 3017TIP3   OH230465   1.607   2.874   5.191 -0.4397  0.2034  0.5874
 3017TIP3    H130466   1.520   2.904   5.216  0.4163  1.5456  2.1992
 3017TIP3    H230467   1.656   2.873   5.274  0.6933 -1.9683 -0.0300
 3018TIP3   OH230468   3.676   4.470   2.618 -0.9117 -0.4904  0.2254
 3018TIP3    H130469   3.748   4.524   2.651  0.0071 -1.5465  0.0025
 3018TIP3    H230470   3.598   4.522   2.635  0.0422  1.6407 -1.4591
 3019TIP3   OH230471   5.264   1.825  14.062 -0.4068  1.1428 -0.4883
 3019TIP3    H130472   5.255   1.877  13.982 -0.5611 -0.4786 -1.5549
 3019TIP3    H230473   5.230   1.739  14.040  1.2349  0.1093  0.7652
 3020TIP3   OH230474   1.680   4.536   5.708 -0.1859 -0.6994 -0.4485
 3020TIP3    H130475   1.587   4.514   5.711 -0.1765 -0.6126  1.3082
 3020TIP3    H230476   1.682   4.630   5.692 -0.4266 -0.5827  0.1765
 3021TIP3   OH230477   6.724   3.404  14.201 -0.0981  0.0529  0.7255
 3021TIP3    H130478   6.634   3.421  14.227  0.3117  1.9608  1.0578
 3021TIP3    H230479   6.770   3.386  14.284 -0.0761 -0.4080  0.6131
 3022TIP3   OH230480   4.152   0.626  10.903 -0.2242 -0.0825  0.4225
 3022TIP3    H130481   4.128   0.578  10.982 -2.3725 -0.3804 -0.3370
 3022TIP3    H230482   4.087   0.600  10.838  0.6861  1.1512 -1.0786
 3023TIP3   OH230483   0.397   4.545  12.079 -0.2818  1.0447 -0.3823
 3023TIP3    H130484   0.377   4.496  11.999 -0.7151  0.9712 -0.2298
 3023TIP3    H230485   0.493   4.539  12.087 -0.3501 -0.1301 -0.1523
 3024TIP3   OH230486   1.674   3.060   0.399 -0.2452 -0.0335 -0.0791
 3024TIP3    H130487   1.687   3.073   0.493 -2.4237  1.3241  0.1056
 3024TIP3    H230488   1.752   3.099   0.359  0.5034 -0.2234  1.1401
 3025TIP3   OH230489   6.707   1.302   0.226 -0.1938  0.0114  0.1350
 3025TIP3    H130490   6.761   1.236   0.270 -0.5311  0.3113  1.0144
 3025TIP3    H230491   6.632   1.253   0.193  0.5975 -0.4116 -1.1129
 3026TIP3   OH230492   5.895   1.859  13.147 -0.4863  0.2773  0.3194
 3026TIP3    H130493   5.944   1.778  13.159 -1.5062 -0.2676  0.9433
 3026TIP3    H230494   5.958   1.921  13.110  0.0980 -1.0500 -0.9967
 3027TIP3   OH230495   6.121   2.998   6.220 -0.2046  0.9959 -0.2911
 3027TIP3    H130496   6.032   3.010   6.251  0.0260  1.0899  0.3513
 3027TIP3    H230497   6.176   3.031   6.291  0.3630 -0.2143 -0.1444
 3028TIP3   OH230498   1.956   5.470  14.665 -0.0140 -0.2239  0.2299
 3028TIP3    H130499   1.882   5.525  14.642  0.7651  0.1499 -1.5633
 3028TIP3    H230500   1.991   5.440  14.581  1.8486 -0.4034  1.0191
 3029TIP3   OH230501   0.710   0.400  15.775 -0.1086 -0.3114 -0.0219
 3029TIP3    H130502   0.633   0.421  15.722  0.6520  1.7198 -0.4011
 3029TIP3    H230503   0.763   0.480  15.773  2.1519 -1.7229 -0.0155
 3030TIP3   OH230504   4.780   0.051  12.145 -0.1702  0.1576  0.2326
 3030TIP3    H130505   4.790   0.103  12.065 -0.2684 -0.1496  0.0168
 3030TIP3    H230506   4.686   0.042  12.156 -0.1570  0.2633  0.4264
 3031TIP3   OH230507   2.334   0.507   6.807 -0.1771 -0.0806  0.1794
 3031TIP3    H130508   2.395   0.570   6.768  0.0556  0.4500  1.3489
 3031TIP3    H230509   2.372   0.422   6.786  1.1530  0.2392  1.1126
 3032TIP3   OH230510   3.051   0.260  13.437 -0.0454 -0.4624  0.1435
 3032TIP3    H130511   3.003   0.181  13.414 -0.9833  0.3728 -0.8326
 3032TIP3    H230512   2.992   0.332  13.416  1.6781  0.6194 -1.3065
 3033TIP3   OH230513   4.081   4.728  13.246  0.3511 -0.5477 -0.5939
 3033TIP3    H130514   4.175   4.711  13.235  0.5202  0.8596 -1.6354
 3033TIP3    H230515   4.052   4.663  13.310  1.9765 -1.1829 -0.4548
 3034TIP3   OH230516   0.122   6.370   6.436  1.1441  0.2404 -0.1395
 3034TIP3    H130517   0.050   6.316   6.405  1.7311 -0.6708  0.0467
 3034TIP3    H230518   0.159   6.322   6.510  2.1430  0.5169 -0.4371
 3035TIP3   OH230519   5.847   4.698   0.331  0.4475  0.0872 -0.2819
 3035TIP3    H130520   5.885   4.623   0.378  0.5676 -0.0131 -0.5383
 3035TIP3    H230521   5.794   4.742   0.397  0.8371  0.1075  0.0261
 3036TIP3   OH230522   1.953   3.043  14.904  0.6122 -0.3082 -0.3631
 3036TIP3    H130523   1.946   2.952  14.875  0.8003 -0.6239  0.5600
 3036TIP3    H230524   1.988   3.037  14.993 -2.1962  0.5087  0.8850
 3037TIP3   OH230525   5.063   1.748   0.265 -0.4762  0.4569 -0.6542
 3037TIP3    H130526   4.986   1.697   0.291  0.3435 -0.4236  0.1650
 3037TIP3    H230527   5.096   1.785   0.347  0.6100 -0.1217 -0.8068
 3038TIP3   OH230528   5.113   2.325  11.612  0.6163 -0.0735 -0.4220
 3038TIP3    H130529   5.144   2.412  11.587  2.1268 -0.3812  0.2963
 3038TIP3    H230530   5.117   2.274  11.531  0.7507  0.2352 -0.6112
 3039TIP3   OH230531   3.000   2.191   3.776 -0.4516  0.1556 -0.4049
 3039TIP3    H130532   2.936   2.162   3.841  0.4991 -0.2958  0.3678
 3039TIP3    H230533   2.985   2.285   3.767 -0.2026  0.3523  0.9586
 3040TIP3   OH230534   5.990   1.619   4.635 -0.3502 -0.1347  0.1050
 3040TIP3    H130535   6.029   1.630   4.722 -0.4625 -0.7574  0.2410
 3040TIP3    H230536   5.899   1.646   4.645 -0.7471 -1.5526  0.5481
 3041TIP3   OH230537   3.735   4.751  15.958  0.2270  0.1460 -0.2709
 3041TIP3    H130538   3.681   4.675  15.935  1.5545 -0.9966  0.2790
 3041TIP3    H230539   3.820   4.732  15.920  0.7690  1.0584  0.4555
 3042TIP3   OH230540   6.541   5.806  15.793 -0.0030  0.2763  0.5632
 3042TIP3    H130541   6.526   5.885  15.845 -0.7511  1.7686 -1.7365
 3042TIP3    H230542   6.457   5.789  15.751  0.5968 -0.7351 -0.2801
 3043TIP3   OH230543   1.009   3.431   2.049  0.4821  0.4362 -0.4117
 3043TIP3    H130544   1.090   3.380   2.049  0.5427  0.5302 -0.3258
 3043TIP3    H230545   1.013   3.481   2.130 -0.0890 -0.2170  0.0250
 3044TIP3   OH230546   5.898   2.148   5.910 -0.0553  0.1738  0.4016
 3044TIP3    H130547   5.974   2.101   5.942  0.7336 -0.5516 -2.2700
 3044TIP3    H230548   5.824   2.089   5.927  0.6374 -1.1668 -0.9919
 3045TIP3   OH230549   0.740   6.270   1.723  0.1525 -0.0522  0.1171
 3045TIP3    H130550   0.797   6.328   1.774 -0.6241 -0.9820  2.1566
 3045TIP3    H230551   0.669   6.326   1.694  0.2637  0.3796  0.6422
 3046TIP3   OH230552   0.954   1.431  12.901  0.5378 -0.1115  0.1697
 3046TIP3    H130553   0.929   1.461  12.988 -0.7717 -0.3180 -0.1140
 3046TIP3    H230554   0.871   1.409  12.858  1.0463  1.1659 -1.5672
 3047TIP3   OH230555   3.610   5.123   0.449 -0.3169 -0.1856 -0.0416
 3047TIP3    H130556   3.701   5.123   0.419 -0.0490  2.1077  0.6343
 3047TIP3    H230557   3.614   5.088   0.538  0.0450  0.6722  0.2904
 3048TIP3   OH230558   1.113   0.214   2.406 -0.0383 -0.0343  0.6068
 3048TIP3    H130559   1.202   0.235   2.432  0.3132  0.2559 -0.7643
 3048TIP3    H230560   1.097   0.127   2.443  0.4462  0.3115  1.6825
 3049TIP3   OH230561   0.104   0.289   2.657  0.0166 -0.1090 -0.7247
 3049TIP3    H130562   0.097   0.261   2.748  0.1829  0.2305 -0.6066
 3049TIP3    H230563   0.191   0.260   2.630  0.0725  0.0324 -0.6941
 3050TIP3   OH230564   3.596   5.829   5.397 -0.0028  0.2151 -0.3051
 3050TIP3    H130565   3.642   5.785   5.469 -1.3230  1.4826  1.3857
 3050TIP3    H230566   3.602   5.922   5.418  1.7291  0.8594 -3.1985
 3051TIP3   OH230567   3.134   3.918  15.433  0.4252  0.0336 -0.1364
 3051TIP3    H130568   3.133   4.014  15.437  0.1202  0.0361 -0.2447
 3051TIP3    H230569   3.086   3.890  15.510  0.6886 -0.0360  0.0020
 3052TIP3   OH230570   6.471   0.512  13.689  0.0180 -0.1063  0.0403
 3052TIP3    H130571   6.466   0.528  13.595  0.7851 -0.5708 -0.0835
 3052TIP3    H230572   6.433   0.425  13.701  0.1969 -0.1753  0.1169
 3053TIP3   OH230573   6.566   4.529  11.231  0.0825 -0.0149  0.1691
 3053TIP3    H130574   6.552   4.622  11.244 -1.4018 -0.3666  1.3781
 3053TIP3    H230575   6.619   4.502  11.307 -0.0522 -0.2610  0.1779
 3054TIP3   OH230576   1.955   0.217   3.249  0.4003  0.2203  0.7051
 3054TIP3    H130577   2.012   0.141   3.248  0.5982  0.3686  0.5477
 3054TIP3    H230578   2.015   0.292   3.240  0.2951  0.4456  1.7651
 3055TIP3   OH230579   2.506   4.697  17.362 -0.1627  0.3667  0.0894
 3055TIP3    H130580   2.434   4.647  17.401  0.3170  1.7106  2.9990
 3055TIP3    H230581   2.574   4.631  17.345 -1.3608 -0.6520 -1.0567
 3056TIP3   OH230582   5.263   0.747   5.519 -0.0084  0.0087  0.1711
 3056TIP3    H130583   5.208   0.807   5.469  0.3259  1.5070  1.5216
 3056TIP3    H230584   5.218   0.739   5.603 -0.0118 -1.6125  0.0440
 3057TIP3   OH230585   0.088   5.986  15.730  0.7354  0.4504 -0.2842
 3057TIP3    H130586   0.163   6.022  15.777 -0.7557  0.4672  2.2726
 3057TIP3    H230587   0.034   6.061  15.708  0.0299  0.2332  0.6274
 3058TIP3   OH230588   3.024   1.679   1.863 -0.7774  0.1483  0.3895
 3058TIP3    H130589   3.079   1.617   1.911 -0.8634 -0.1355  0.1243
 3058TIP3    H230590   3.069   1.690   1.779 -0.6576  0.5972  0.5101
 3059TIP3   OH230591   6.104   3.932  16.353  0.2348 -0.1543  0.7378
 3059TIP3    H130592   6.031   3.906  16.296  1.3164 -1.3259 -0.1767
 3059TIP3    H230593   6.166   3.860  16.346  0.2446 -0.5339  3.7963
 3060TIP3   OH230594   4.596   1.189   3.814  0.3514 -0.7447 -0.5371
 3060TIP3    H130595   4.568   1.268   3.767  1.2232 -0.5920 -0.8110
 3060TIP3    H230596   4.539   1.121   3.780 -1.2217 -0.0439  0.5556
 3061TIP3   OH230597   1.281   3.269   2.055  0.0543  0.1936 -0.6779
 3061TIP3    H130598   1.342   3.327   2.009  0.2641  0.4870 -0.0534
 3061TIP3    H230599   1.338   3.205   2.099  0.1646  2.0061  2.0517
 3062TIP3   OH230600   4.704   6.699  12.634 -0.5332 -0.3216 -0.3385
 3062TIP3    H130601   4.784   6.714  12.583 -0.7858  0.0148 -0.6396
 3062TIP3    H230602   4.734   6.697  12.725 -0.1473 -0.4415 -0.4654
 3063TIP3   OH230603   0.373   5.410   4.752 -0.3144 -0.4533 -0.3753
 3063TIP3    H130604   0.439   5.413   4.682 -1.6599 -0.6035 -1.7116
 3063TIP3    H230605   0.371   5.319   4.780  1.0111 -0.1797  0.6585
 3064TIP3   OH230606   4.961   1.188  12.381  0.0043  0.4220  0.5023
 3064TIP3    H130607   4.939   1.270  12.425 -0.1731 -0.0236  1.2655
 3064TIP3    H230608   4.893   1.178  12.314 -0.5460  0.4156  1.0517
 3065TIP3   OH230609   2.130   3.947  12.251  0.4418  0.9863 -0.1831
 3065TIP3    H130610   2.202   3.913  12.199  0.5233  0.0698  0.5138
 3065TIP3    H230611   2.061   3.881  12.243 -0.4900  2.0103 -1.1330
 3066TIP3   OH230612   5.801   0.181   6.081  0.4486  0.1504 -0.3180
 3066TIP3    H130613   5.750   0.104   6.106  0.4153  0.1467 -0.3959
 3066TIP3    H230614   5.879   0.178   6.136 -0.9741  1.7475  1.9484
 3067TIP3   OH230615   4.480   3.948  16.736 -0.4470  0.2741  0.0363
 3067TIP3    H130616   4.472   3.943  16.641 -0.0117 -1.1618  0.0512
 3067TIP3    H230617   4.572   3.926  16.754 -0.1981  1.7781  0.7226
 3068TIP3   OH230618   0.985   5.320  15.686 -0.0634 -0.0427  0.1783
 3068TIP3    H130619   1.065   5.358  15.651 -0.2898  0.6327  0.3784
 3068TIP3    H230620   0.914   5.361  15.636 -0.2655 -0.9891 -0.3238
 3069TIP3   OH230621   0.437   0.328  14.404  0.3963 -0.2446 -0.0195
 3069TIP3    H130622   0.491   0.258  14.369  0.0162  0.5660 -2.4014
 3069TIP3    H230623   0.500   0.396  14.429  0.6380 -0.5157  0.1131
 3070TIP3   OH230624   0.083   0.212  12.824 -0.2413  0.6615 -0.3701
 3070TIP3    H130625   0.057   0.262  12.901 -0.3680 -0.0164  0.0308
 3070TIP3    H230626   0.178   0.219  12.821 -0.0577 -0.9105  0.9594
 3071TIP3   OH230627   1.723   4.803  13.269  0.2782  0.2987  0.4332
 3071TIP3    H130628   1.818   4.795  13.267  0.7149  3.7583  0.6984
 3071TIP3    H230629   1.701   4.846  13.187 -0.9643  0.3109  0.7518
 3072TIP3   OH230630   5.186   0.105  15.861 -0.1353 -0.2329  0.1854
 3072TIP3    H130631   5.258   0.069  15.810 -0.3617 -0.7985  0.2592
 3072TIP3    H230632   5.109   0.055  15.833 -0.6548  0.9137 -0.4843
 3073TIP3   OH230633   3.423   0.013   1.131  0.4681 -0.1236  0.2700
 3073TIP3    H130634   3.355  -0.051   1.150 -0.5685 -0.6270 -3.9776
 3073TIP3    H230635   3.494  -0.007   1.192 -1.3735 -2.6325  1.7709
 3074TIP3   OH230636   2.028   0.762   1.508  0.2962  0.5147 -0.0877
 3074TIP3    H130637   1.962   0.794   1.446  1.5933  2.2803 -0.6583
 3074TIP3    H230638   2.078   0.841   1.532  1.8427 -0.6600  0.7378
 3075TIP3   OH230639   1.840   1.239   5.849 -0.4088 -0.0593 -0.8699
 3075TIP3    H130640   1.817   1.174   5.914  0.7583 -0.9875 -1.3437
 3075TIP3    H230641   1.820   1.323   5.890 -3.1202 -0.6799 -0.6966
 3076TIP3   OH230642   4.097   1.978   2.239  0.2487  0.3377 -0.0827
 3076TIP3    H130643   4.005   1.985   2.212 -0.4965 -0.6981  1.9522
 3076TIP3    H230644   4.137   2.060   2.209 -1.1495  0.4951 -1.6405
 3077TIP3   OH230645   2.887   1.076  15.034 -0.0464 -0.3290  0.0417
 3077TIP3    H130646   2.885   1.053  15.127 -0.0868 -0.2210  0.0670
 3077TIP3    H230647   2.880   0.991  14.989 -1.6531 -0.2634  0.1295
 3078TIP3   OH230648   0.426   0.139  17.484 -0.1320  0.5743 -0.2330
 3078TIP3    H130649   0.478   0.160  17.407  0.7815  0.9274  0.4711
 3078TIP3    H230650   0.485   0.091  17.541 -0.4797  1.2025  0.6877
 3079TIP3   OH230651   2.731   3.956   3.241 -0.1481 -0.6275  0.2640
 3079TIP3    H130652   2.826   3.962   3.232  0.0084 -2.3952  0.2579
 3079TIP3    H230653   2.696   3.995   3.161  0.6754 -1.8197 -0.7201
 3080TIP3   OH230654   6.170   5.669   4.393  0.1545  0.1702 -0.3807
 3080TIP3    H130655   6.200   5.589   4.438  0.5641  0.2432 -0.5190
 3080TIP3    H230656   6.151   5.731   4.464  2.0710  0.7395 -0.3210
 3081TIP3   OH230657   3.994   1.738   1.322 -0.3950 -0.2553  0.1146
 3081TIP3    H130658   3.992   1.784   1.406 -0.4097 -0.1479  0.0554
 3081TIP3    H230659   3.989   1.645   1.345 -1.6561 -0.1846  0.1711
 3082TIP3   OH230660   3.696   6.465  17.260  0.3912 -0.1453  0.1211
 3082TIP3    H130661   3.718   6.456  17.167 -0.2065  1.1306 -0.1618
 3082TIP3    H230662   3.751   6.400  17.303 -0.5341 -1.9411 -1.2652
 3083TIP3   OH230663   6.654   4.670   3.524  0.5081  0.2913  0.3961
 3083TIP3    H130664   6.679   4.592   3.574  0.6175 -0.6256 -1.0126
 3083TIP3    H230665   6.577   4.642   3.475  0.8241  0.9157 -0.4775
 3084TIP3   OH230666   5.075   1.394  12.039  0.1138  0.4279  0.3099
 3084TIP3    H130667   5.149   1.428  12.089  0.6514 -1.3528  0.8169
 3084TIP3    H230668   5.111   1.319  11.990 -0.8822  0.8402 -1.1174
 3085TIP3   OH230669   3.432   4.180  12.849  0.1816 -0.2627 -0.2964
 3085TIP3    H130670   3.479   4.162  12.768 -1.1680  0.1367 -1.2165
 3085TIP3    H230671   3.389   4.264  12.833 -1.9301 -1.2254 -0.0640
 3086TIP3   OH230672   3.414   1.006  14.434  0.0210 -0.2081 -0.6421
 3086TIP3    H130673   3.498   1.040  14.464  0.1235 -0.4690 -0.6238
 3086TIP3    H230674   3.438   0.942  14.366 -0.1656 -0.2314 -0.6850
 3087TIP3   OH230675   2.360   5.529  14.120  0.7208  0.0405  0.2275
 3087TIP3    H130676   2.332   5.618  14.098  1.2666  0.5258  1.3961
 3087TIP3    H230677   2.428   5.508  14.056 -0.2731 -0.0365 -0.8297
 3088TIP3   OH230678   3.327   4.085   5.417  0.3394 -0.1079  0.3386
 3088TIP3    H130679   3.378   4.166   5.407  0.5100 -0.2729 -0.1345
 3088TIP3    H230680   3.315   4.053   5.328  0.4754 -0.7347  0.5416
 3089TIP3   OH230681   0.535   4.454   1.457  0.5461  0.5228  0.1497
 3089TIP3    H130682   0.599   4.466   1.527 -0.8004  1.2892  1.2773
 3089TIP3    H230683   0.450   4.469   1.498 -0.4142 -0.7318 -1.2521
 3090TIP3   OH230684   4.561   0.189   2.309  0.1769 -0.0509  0.5216
 3090TIP3    H130685   4.619   0.249   2.355 -2.2716  2.2139  0.9021
 3090TIP3    H230686   4.504   0.153   2.377 -1.9478  1.5315 -0.2894
 3091TIP3   OH230687   1.553   1.176  11.948  0.1961  0.3527  0.2302
 3091TIP3    H130688   1.630   1.231  11.960  0.1153  0.7399 -0.9529
 3091TIP3    H230689   1.508   1.212  11.872 -1.7661  0.8153  1.5287
 3092TIP3   OH230690   5.102   6.247  12.275 -0.2009 -0.5558 -0.0146
 3092TIP3    H130691   5.034   6.221  12.338 -0.6046  1.2119  0.3404
 3092TIP3    H230692   5.134   6.331  12.308  2.1826 -1.3391 -0.1857
 3093TIP3   OH230693   6.319   1.902   1.161 -0.3495  0.3682 -0.1611
 3093TIP3    H130694   6.317   1.925   1.254  0.6455  1.9660 -0.4937
 3093TIP3    H230695   6.232   1.925   1.129 -0.8996 -0.7698  0.4933
 3094TIP3   OH230696   0.704   0.289  12.501  0.0315 -0.3580 -0.3181
 3094TIP3    H130697   0.784   0.241  12.523  0.7591  0.9849  0.0720
 3094TIP3    H230698   0.696   0.280  12.406  0.2632 -1.0589 -0.2798
 3095TIP3   OH230699   6.365   6.613   5.903 -0.1528 -0.3484  0.0625
 3095TIP3    H130700   6.310   6.561   5.845  1.2229 -1.2729 -0.4421
 3095TIP3    H230701   6.330   6.595   5.991 -0.9258 -0.5699 -0.2797
 3096TIP3   OH230702   3.715   1.484  14.549  0.4923  0.2163 -0.7303
 3096TIP3    H130703   3.793   1.429  14.550 -0.8018 -1.7162  0.9316
 3096TIP3    H230704   3.706   1.509  14.457  3.3462  1.0333 -0.8932
 3097TIP3   OH230705   2.396   1.848  14.259 -0.1334  0.2288 -0.1433
 3097TIP3    H130706   2.324   1.866  14.319 -0.4852 -0.0819 -0.4641
 3097TIP3    H230707   2.460   1.800  14.312  0.1090  1.0180  0.2963
 3098TIP3   OH230708   1.344   0.482  15.490 -0.0514 -0.1500  0.3509
 3098TIP3    H130709   1.301   0.524  15.415  1.9298 -0.7593 -1.1829
 3098TIP3    H230710   1.361   0.393  15.462  0.0875 -0.6120  1.8152
 3099TIP3   OH230711   1.474   6.127   0.595  0.0796  0.2713 -0.0732
 3099TIP3    H130712   1.480   6.061   0.664 -0.3653  1.0333  0.7067
 3099TIP3    H230713   1.556   6.117   0.546  1.1940  0.8552  1.6133
 3100TIP3   OH230714   4.444   5.615   0.010 -0.3372 -0.0306 -0.2004
 3100TIP3    H130715   4.462   5.708   0.001 -1.4677  0.1251 -0.9306
 3100TIP3    H230716   4.519   5.572  -0.031  2.1319  0.4107  3.3684
 3101TIP3   OH230717   4.557   2.022   3.156  0.4402 -0.0392 -0.0619
 3101TIP3    H130718   4.617   1.982   3.219 -0.6642 -1.8373 -0.0742
 3101TIP3    H230719   4.578   1.980   3.073 -1.3042 -1.3130  0.0783
 3102TIP3   OH230720   2.321   2.598   3.836  0.5107 -0.2631  0.5187
 3102TIP3    H130721   2.290   2.508   3.833 -0.7817  0.1741 -0.9152
 3102TIP3    H230722   2.411   2.595   3.802 -0.0205 -0.8563 -0.9115
 3103TIP3   OH230723   6.156   0.848   2.127  0.4657  0.5899 -0.7013
 3103TIP3    H130724   6.071   0.851   2.170 -0.0967  0.0269 -1.7419
 3103TIP3    H230725   6.213   0.805   2.191 -0.2856  0.0156 -0.4010
 3104TIP3   OH230726   4.800   0.034  11.542 -0.0770 -0.1146 -0.2843
 3104TIP3    H130727   4.775   0.024  11.634 -0.1067 -1.9206 -0.4445
 3104TIP3    H230728   4.813   0.128  11.530  1.5607  0.0469  2.0098
 3105TIP3   OH230729   1.431   1.646  11.475  0.5706  0.1204  0.1428
 3105TIP3    H130730   1.498   1.714  11.480  0.4633  0.1628  1.2907
 3105TIP3    H230731   1.383   1.665  11.394  0.9395  1.0253  0.1266
 3106TIP3   OH230732   5.730   5.306  16.664 -0.0136  0.8755 -0.3370
 3106TIP3    H130733   5.710   5.287  16.572 -1.1873 -0.8405  0.2244
 3106TIP3    H230734   5.776   5.229  16.696 -0.9513  0.7969  0.8957
 3107TIP3   OH230735   4.312   5.032   5.054  0.5816 -0.1200  0.2835
 3107TIP3    H130736   4.365   4.956   5.081  2.0916  0.9706  0.5350
 3107TIP3    H230737   4.276   5.067   5.135  0.0859 -0.4118  0.1932
 3108TIP3   OH230738   5.834   1.027   4.530 -0.5471 -0.0832  0.1746
 3108TIP3    H130739   5.838   1.080   4.450 -1.2949  0.5192  0.5252
 3108TIP3    H230740   5.916   0.977   4.529 -0.8782 -0.6904 -1.3703
 3109TIP3   OH230741   4.131   0.181  14.318 -0.7623  0.5379  0.1040
 3109TIP3    H130742   4.179   0.263  14.329 -0.8825  0.3633  2.5168
 3109TIP3    H230743   4.065   0.182  14.388 -1.1558 -1.3404 -0.1837
 3110TIP3   OH230744   5.809   1.439   4.425 -0.1293 -0.1153 -0.3494
 3110TIP3    H130745   5.738   1.503   4.430  0.2801  0.2854  0.5792
 3110TIP3    H230746   5.804   1.390   4.508 -0.2590 -1.1027 -0.9251
 3111TIP3   OH230747   5.736   5.946   6.633 -0.0228  0.4012 -0.8459
 3111TIP3    H130748   5.816   5.975   6.678 -0.3089  1.0419 -0.7354
 3111TIP3    H230749   5.707   5.870   6.682 -0.2164  0.9732 -0.0561
 3112TIP3   OH230750   2.155   0.916   1.265  0.1765  0.1463 -0.2795
 3112TIP3    H130751   2.174   0.981   1.198  0.9854  0.4264  0.2095
 3112TIP3    H230752   2.226   0.852   1.258  1.6237  1.3949  1.8132
 3113TIP3   OH230753   6.538   0.787   3.532 -0.4367  0.2063  0.0789
 3113TIP3    H130754   6.584   0.796   3.448 -1.7551  0.6359 -0.6332
 3113TIP3    H230755   6.590   0.839   3.593 -0.0706  0.8223 -0.7372
 3114TIP3   OH230756   3.381   5.728   5.260 -0.0022  0.2675 -0.4193
 3114TIP3    H130757   3.429   5.650   5.233  0.9804 -0.4011  2.7747
 3114TIP3    H230758   3.443   5.775   5.317 -1.8400  1.4143  0.7203
 3115TIP3   OH230759   0.870   3.201   2.221 -0.6602  0.2029  0.0716
 3115TIP3    H130760   0.926   3.192   2.144 -1.1637 -0.4191 -0.2320
 3115TIP3    H230761   0.783   3.221   2.186 -0.5631  1.5921  0.5545
 3116TIP3   OH230762   1.340   4.084  11.799  0.2690  0.2389 -0.0053
 3116TIP3    H130763   1.329   3.990  11.785  1.7059  0.3538 -2.4839
 3116TIP3    H230764   1.385   4.115  11.720 -2.1761  3.4378 -0.3390
 3117TIP3   OH230765   3.023   5.684  13.331  0.2081  0.4723  0.7329
 3117TIP3    H130766   3.034   5.733  13.249 -0.9960 -0.4678 -0.0391
 3117TIP3    H230767   3.108   5.690  13.374  1.1726  0.2752 -1.0151
 3118TIP3   OH230768   0.625   0.728  17.296  0.6505 -0.5152  0.1139
 3118TIP3    H130769   0.641   0.660  17.230 -1.4595 -2.0849  1.0949
 3118TIP3    H230770   0.549   0.696  17.345 -0.2724  2.4625  0.8281
 3119TIP3   OH230771   4.052   2.402  14.100 -0.5666  0.3375 -0.6978
 3119TIP3    H130772   4.105   2.408  14.179 -1.5991  0.2167  0.0294
 3119TIP3    H230773   4.110   2.431  14.030  1.7134 -3.3065 -0.5556
 3120TIP3   OH230774   0.903   4.404  16.249  0.5242 -0.8027 -0.1757
 3120TIP3    H130775   0.965   4.453  16.195 -0.8511 -0.2022 -1.2945
 3120TIP3    H230776   0.880   4.328  16.195 -0.1757 -0.6880 -0.0441
 3121TIP3   OH230777   2.392   0.184  13.756  0.2754 -0.5522 -0.1561
 3121TIP3    H130778   2.436   0.254  13.804  2.6775 -0.9946 -1.5366
 3121TIP3    H230779   2.403   0.106  13.812  1.0638 -0.6035 -0.3703
 3122TIP3   OH230780   2.627   5.760  14.992  0.2087  0.2296 -0.1660
 3122TIP3    H130781   2.710   5.772  15.037 -0.6542 -0.9747  1.8728
 3122TIP3    H230782   2.562   5.797  15.052 -0.7983  0.7162 -1.5045
 3123TIP3   OH230783   4.196   1.865  17.102  0.0636  0.0354 -0.0090
 3123TIP3    H130784   4.238   1.929  17.160 -0.8530  1.4105 -0.7997
 3123TIP3    H230785   4.250   1.867  17.022  1.2446 -1.7529  0.6910
 3124TIP3   OH230786   2.462   5.831   6.221 -0.0906 -0.1392 -0.1580
 3124TIP3    H130787   2.417   5.875   6.293  1.6548 -0.8231  1.4375
 3124TIP3    H230788   2.519   5.767   6.264  0.4130 -1.1567 -2.2060
 3125TIP3   OH230789   5.210   1.979  13.818  0.1494  0.5254  0.3258
 3125TIP3    H130790   5.147   1.997  13.749 -0.7025 -1.5751  0.5005
 3125TIP3    H230791   5.180   2.032  13.892 -0.4759  0.7536 -0.0872
 3126TIP3   OH230792   5.845   0.600  16.075 -0.3720  0.2887  0.0607
 3126TIP3    H130793   5.802   0.514  16.075 -1.6256  0.8850  0.4136
 3126TIP3    H230794   5.929   0.585  16.118 -0.8800 -0.6227  0.7630
 3127TIP3   OH230795   0.006   4.338  16.946  0.1216 -0.0296  0.1046
 3127TIP3    H130796  -0.011   4.311  16.856 -1.3053 -2.0462  0.9051
 3127TIP3    H230797   0.101   4.344  16.951  0.2187  0.6004 -1.6374
 3128TIP3   OH230798   3.546   1.682   6.644  0.1406  0.6132  0.5127
 3128TIP3    H130799   3.626   1.629   6.639 -0.7299 -0.6574 -0.6907
 3128TIP3    H230800   3.514   1.667   6.733  0.5586  0.1047  0.5852
 3129TIP3   OH230801   3.228   4.607   3.479 -0.0141 -0.1224  0.1309
 3129TIP3    H130802   3.242   4.665   3.403  2.9625 -0.1052  0.5757
 3129TIP3    H230803   3.306   4.619   3.533 -1.3247 -1.3291  2.4579
 3130TIP3   OH230804   4.368   6.157  14.346 -0.0430 -0.7016  0.6931
 3130TIP3    H130805   4.384   6.238  14.297 -0.7922  0.2262  1.9023
 3130TIP3    H230806   4.452   6.112  14.347  0.7018  0.6471  0.9860
 3131TIP3   OH230807   5.989   4.305   4.877 -0.5518 -0.7184 -0.3435
 3131TIP3    H130808   5.915   4.248   4.896 -0.4956 -0.6765  0.0108
 3131TIP3    H230809   6.059   4.246   4.849 -0.4719 -0.8288  0.0866
 3132TIP3   OH230810   6.299   4.641   2.869  1.0766 -0.0073  0.0770
 3132TIP3    H130811   6.243   4.660   2.793 -1.5348 -0.0612  1.8516
 3132TIP3    H230812   6.291   4.546   2.881  0.2227  0.2046  1.2913
 3133TIP3   OH230813   4.700   1.124   2.574 -0.8972  0.4811  0.0979
 3133TIP3    H130814   4.730   1.047   2.525  0.2000  1.7519 -1.3201
 3133TIP3    H230815   4.624   1.155   2.525 -0.6861  0.9077  0.0351
 3134TIP3   OH230816   2.820   5.414   5.125 -0.3652 -0.1514  0.4000
 3134TIP3    H130817   2.729   5.392   5.146 -0.3608  1.3730  2.3323
 3134TIP3    H230818   2.814   5.463   5.042 -0.9063 -2.5325 -1.0717
 3135TIP3   OH230819   4.871   2.144   3.224  0.0937 -0.9045 -0.1100
 3135TIP3    H130820   4.850   2.055   3.256  1.1395 -1.4391 -0.8655
 3135TIP3    H230821   4.827   2.202   3.287 -1.3214 -1.9450 -0.0838
 3136TIP3   OH230822   1.816   5.056   1.681  0.1858  0.3164  0.1514
 3136TIP3    H130823   1.890   4.995   1.677  0.5358  0.7909 -0.7962
 3136TIP3    H230824   1.851   5.139   1.651 -0.9703  0.3098 -1.3259
 3137TIP3   OH230825   1.820   0.347  11.268  0.8502 -0.0026  0.6970
 3137TIP3    H130826   1.757   0.282  11.301  0.8846 -0.3607  0.0653
 3137TIP3    H230827   1.822   0.415  11.336 -0.4882  0.1954  0.5531
 3138TIP3   OH230828   5.367   3.024   2.659  0.2748  0.4028  0.1868
 3138TIP3    H130829   5.428   3.078   2.609  0.5924 -0.6505 -0.5902
 3138TIP3    H230830   5.411   2.940   2.668  0.1921  0.5409  2.2141
 3139TIP3   OH230831   5.965   6.091  16.655  0.1382 -0.2648 -0.7426
 3139TIP3    H130832   5.922   6.054  16.577  0.1227  1.3311 -1.5283
 3139TIP3    H230833   5.911   6.166  16.678  0.4573 -0.3998  0.5060
 3140TIP3   OH230834   2.672   2.984   5.867  0.0823  0.1231 -0.2086
 3140TIP3    H130835   2.617   3.025   5.800  0.2714  2.8873  1.1895
 3140TIP3    H230836   2.714   2.911   5.821 -2.9537 -0.7357 -1.9290
 3141TIP3   OH230837   3.664   2.560  16.306 -0.1029  1.0950  0.0362
 3141TIP3    H130838   3.664   2.499  16.379 -2.7269  1.3839  0.3809
 3141TIP3    H230839   3.707   2.638  16.340  1.2625  0.2624  0.3042
 3142TIP3   OH230840   5.172   5.953  15.050  0.0119  0.0121 -0.8871
 3142TIP3    H130841   5.125   6.001  15.118  1.6792 -1.3817  1.4095
 3142TIP3    H230842   5.265   5.968  15.070  0.5524 -1.6059 -1.9972
 3143TIP3   OH230843   3.146   6.461  15.089  0.4439  0.2049 -0.0484
 3143TIP3    H130844   3.208   6.407  15.040  1.3484 -0.0887  1.3579
 3143TIP3    H230845   3.200   6.528  15.131 -0.2076  0.1203  0.9817
 3144TIP3   OH230846   5.798   4.084  15.905  0.0976  0.2136 -0.3705
 3144TIP3    H130847   5.822   3.993  15.926  0.2190  0.0301 -1.2611
 3144TIP3    H230848   5.771   4.121  15.988 -1.5558 -1.1333 -0.2450
 3145TIP3   OH230849   4.819   5.176   1.085  0.5134 -0.3728  0.1563
 3145TIP3    H130850   4.761   5.172   1.161 -0.1316  2.6721 -0.0553
 3145TIP3    H230851   4.762   5.195   1.011  1.4045 -0.9292 -0.7028
 3146TIP3   OH230852   3.264   1.291   1.494 -0.3606  0.7495  0.0852
 3146TIP3    H130853   3.209   1.345   1.438 -0.9189  0.9365  0.8081
 3146TIP3    H230854   3.274   1.342   1.574 -1.8639 -0.6887  1.2541
 3147TIP3   OH230855   3.743   4.812   1.542  0.0795 -0.2267 -0.2053
 3147TIP3    H130856   3.688   4.746   1.502  1.5643 -2.0320  0.5628
 3147TIP3    H230857   3.772   4.773   1.625  2.9322  0.3349 -0.8101
 3148TIP3   OH230858   0.722   6.157  12.290 -0.0980 -0.5473 -0.2537
 3148TIP3    H130859   0.720   6.163  12.195 -1.0168 -1.3556 -0.3072
 3148TIP3    H230860   0.629   6.150  12.315 -0.1682  2.6659  0.9387
 3149TIP3   OH230861   6.131   4.846   2.027  0.1766  0.1555 -0.2309
 3149TIP3    H130862   6.099   4.845   2.117 -0.3601 -2.3293 -0.3758
 3149TIP3    H230863   6.076   4.783   1.981  0.3882  1.4297 -2.3462
 3150TIP3   OH230864   6.339   4.923  16.663 -0.8687 -0.4693  0.1552
 3150TIP3    H130865   6.341   4.828  16.656 -0.4755 -0.5472  1.1355
 3150TIP3    H230866   6.431   4.949  16.671 -1.0780 -0.2338  2.2636
 3151TIP3   OH230867   3.823   3.966   2.568 -0.7048  0.5535 -0.0009
 3151TIP3    H130868   3.894   3.937   2.627 -0.5627  0.1349 -0.3687
 3151TIP3    H230869   3.777   4.034   2.618 -1.2726 -0.5553  1.0505
 3152TIP3   OH230870   2.188   6.650  12.591 -0.2372  0.5657 -0.0109
 3152TIP3    H130871   2.170   6.646  12.497 -1.0230 -1.3260  0.1663
 3152TIP3    H230872   2.229   6.566  12.611 -1.2581  0.3906  1.5405
 3153TIP3   OH230873   2.313   3.870  15.326 -0.3198  0.4611  0.6689
 3153TIP3    H130874   2.312   3.958  15.363  0.1844  0.4569  0.6990
 3153TIP3    H230875   2.281   3.881  15.237 -5.1282 -0.0153  2.0541
 3154TIP3   OH230876   0.029   4.522   5.361 -0.4798 -0.1636 -0.1976
 3154TIP3    H130877   0.018   4.444   5.416 -0.9136  0.2439  0.3092
 3154TIP3    H230878  -0.057   4.566   5.365 -0.9203 -0.7528 -2.1957
 3155TIP3   OH230879   6.388   4.078  13.705 -0.1320  0.6160  0.7090
 3155TIP3    H130880   6.359   4.004  13.652 -1.5335  1.8941 -0.4114
 3155TIP3    H230881   6.320   4.144  13.693  1.6683  2.5608  0.6670
 3156TIP3   OH230882   0.571   0.669   1.059 -0.4214  0.1371 -0.3806
 3156TIP3    H130883   0.561   0.643   0.968 -0.6289 -0.2054 -0.2590
 3156TIP3    H230884   0.582   0.587   1.107  0.6956  0.3665 -0.2207
 3157TIP3   OH230885   4.251   1.338  13.412  0.3277  0.0621  0.8981
 3157TIP3    H130886   4.337   1.373  13.434  0.6615 -1.4090  2.1366
 3157TIP3    H230887   4.191   1.381  13.473  0.3819  0.1855  0.8640
 3158TIP3   OH230888   2.382   4.023  11.640  0.1824  0.1121  0.4421
 3158TIP3    H130889   2.296   4.018  11.682 -1.7667 -0.1618 -3.2169
 3158TIP3    H230890   2.408   3.932  11.629  0.0730  0.1382 -0.0460
 3159TIP3   OH230891   2.505   1.256  17.326  0.1852  0.3986 -0.1921
 3159TIP3    H130892   2.512   1.317  17.252  3.1025 -0.2147 -0.5325
 3159TIP3    H230893   2.517   1.312  17.403 -0.7536  0.7241 -0.2613
 3160TIP3   OH230894   1.726   2.370   6.185  0.4523 -0.2124  0.5467
 3160TIP3    H130895   1.730   2.275   6.170  0.0215 -0.2655  0.7409
 3160TIP3    H230896   1.812   2.402   6.159  0.4886 -0.6108  0.1635
 3161TIP3   OH230897   0.005   3.570   5.486  0.2417  0.1927  0.4562
 3161TIP3    H130898   0.037   3.498   5.431  1.9480 -0.4226  2.1369
 3161TIP3    H230899  -0.085   3.545   5.509  0.2802 -0.6166 -0.2312
 3162TIP3   OH230900   3.668   4.459  17.051 -0.1382  0.0749 -0.2550
 3162TIP3    H130901   3.741   4.411  17.090 -1.3175 -1.9715 -0.4137
 3162TIP3    H230902   3.610   4.391  17.017 -2.5378  1.5623  0.5989
 3163TIP3   OH230903   1.324   4.369   4.143 -0.2914 -0.2526  0.2350
 3163TIP3    H130904   1.259   4.303   4.119  1.4473 -1.7692 -0.5684
 3163TIP3    H230905   1.297   4.398   4.230 -0.8309 -2.4986  0.8966
 3164TIP3   OH230906   2.372   4.408   5.110 -0.0931 -0.6318 -0.5487
 3164TIP3    H130907   2.293   4.358   5.128 -0.1376  0.0135  1.2214
 3164TIP3    H230908   2.439   4.342   5.095 -0.1985 -1.2726  1.5483
 3165TIP3   OH230909   3.393   4.806  13.675  0.0506  0.9101  0.1226
 3165TIP3    H130910   3.488   4.809  13.678  0.1193 -0.8010  2.3794
 3165TIP3    H230911   3.366   4.895  13.654  2.1316  1.4122 -0.5802
 3166TIP3   OH230912   0.668   4.871  12.760 -0.5897  0.0489  0.0085
 3166TIP3    H130913   0.675   4.937  12.691 -0.3331  0.3721  0.3344
 3166TIP3    H230914   0.583   4.889  12.802  0.0363  1.0097  0.9214
 3167TIP3   OH230915   1.092   3.739   3.899  0.1121 -0.7839 -0.2223
 3167TIP3    H130916   1.140   3.662   3.868 -2.2952 -1.7662 -1.7146
 3167TIP3    H230917   1.041   3.708   3.973 -0.6205 -0.5662 -0.6252
 3168TIP3   OH230918   5.669   0.618   4.847 -0.1445 -0.2155 -0.7512
 3168TIP3    H130919   5.655   0.649   4.937  0.6579  0.0295 -0.7013
 3168TIP3    H230920   5.720   0.538   4.857  0.5005  0.1578 -1.0083
 3169TIP3   OH230921   2.990   5.012  17.477 -0.3846  0.2632  0.1380
 3169TIP3    H130922   2.989   5.087  17.417 -0.6456  1.1340  1.2021
 3169TIP3    H230923   3.035   4.943  17.428 -1.5046  0.6044 -1.4549
 3170TIP3   OH230924   4.267   0.910  13.957  0.0017 -0.0395  0.5970
 3170TIP3    H130925   4.297   0.973  13.892 -0.1018 -0.0107  0.5758
 3170TIP3    H230926   4.215   0.961  14.018 -1.2041 -0.3071 -0.1499
 3171TIP3   OH230927   4.614   6.661   2.707  0.1190 -0.3162 -0.1419
 3171TIP3    H130928   4.624   6.580   2.657  1.4920 -0.3687  0.1757
 3171TIP3    H230929   4.529   6.695   2.681 -0.4642 -1.8270 -0.3291
 3172TIP3   OH230930   0.056   4.397  14.261  0.4179 -0.1332  0.1351
 3172TIP3    H130931   0.090   4.411  14.349  0.1571  0.1422  0.1941
 3172TIP3    H230932   0.032   4.484  14.230  0.1066 -0.2780 -0.0441
 3173TIP3   OH230933   1.305   4.095  13.287 -0.1880 -0.3832 -0.0856
 3173TIP3    H130934   1.363   4.093  13.211 -0.6223 -0.2261 -0.4252
 3173TIP3    H230935   1.221   4.064  13.253 -0.2422 -0.8422  0.4560
 3174TIP3   OH230936   0.152   2.292  16.844  0.6516 -0.3676 -0.5582
 3174TIP3    H130937   0.101   2.212  16.859  1.9341 -1.2764 -0.9019
 3174TIP3    H230938   0.130   2.349  16.919  0.4338 -1.4106  0.1957
 3175TIP3   OH230939   1.305   0.946  13.838 -0.1258  0.6601 -0.1458
 3175TIP3    H130940   1.380   0.889  13.854 -0.0666  0.9699  0.7210
 3175TIP3    H230941   1.293   0.944  13.743 -1.8821 -3.0807 -0.0358
 3176TIP3   OH230942   1.857   4.112   4.074  0.6765  0.0992 -0.1473
 3176TIP3    H130943   1.873   4.182   4.010 -1.7131  1.4413  0.5794
 3176TIP3    H230944   1.878   4.152   4.159  0.2631 -0.3899  0.1916
 3177TIP3   OH230945   3.715   3.511  13.611 -0.2358 -0.5798  0.1781
 3177TIP3    H130946   3.715   3.499  13.516 -0.8402 -1.0891  0.2353
 3177TIP3    H230947   3.793   3.464  13.641 -0.1893 -0.6443 -0.0452
 3178TIP3   OH230948   1.652   5.786  15.506 -0.2669 -0.1806 -0.4236
 3178TIP3    H130949   1.746   5.787  15.489 -0.1994  1.1045 -0.0790
 3178TIP3    H230950   1.644   5.784  15.601 -0.5417  1.2335 -0.3844
 3179TIP3   OH230951   2.192   0.260   2.369 -0.8846  0.5361 -0.4112
 3179TIP3    H130952   2.255   0.331   2.375 -0.2758 -0.1188  2.2018
 3179TIP3    H230953   2.174   0.251   2.275 -0.1597  3.3567 -0.8889
 3180TIP3   OH230954   6.094   3.970  11.879 -0.0915 -0.2576 -0.1346
 3180TIP3    H130955   6.118   4.049  11.928  0.5101  0.0111 -0.8359
 3180TIP3    H230956   6.143   3.900  11.923  1.5414  0.1858 -1.1340
 3181TIP3   OH230957   1.356   3.613   2.779 -0.0351 -0.2147 -0.5379
 3181TIP3    H130958   1.424   3.664   2.823  0.2747 -0.3156 -0.8906
 3181TIP3    H230959   1.290   3.597   2.847 -0.3267  0.9717 -0.5178
 3182TIP3   OH230960   0.646   5.170   5.519  0.0048 -0.0945  0.5663
 3182TIP3    H130961   0.618   5.218   5.598 -1.9954  0.5038 -0.4306
 3182TIP3    H230962   0.576   5.107   5.504  0.9902 -1.0622 -0.0330
 3183TIP3   OH230963   6.382   5.329  16.522  0.2941  0.2504 -0.0507
 3183TIP3    H130964   6.384   5.240  16.486  0.8151 -0.4390  1.5799
 3183TIP3    H230965   6.471   5.361  16.511 -0.0822  0.9172 -1.3748
 3184TIP3   OH230966   4.193   1.849   2.857 -0.0014  0.2033 -0.1788
 3184TIP3    H130967   4.237   1.933   2.862  0.6248 -0.1197 -0.1595
 3184TIP3    H230968   4.224   1.811   2.774 -1.0606  0.4221 -0.6881
 3185TIP3   OH230969   2.894   0.903   3.250  0.1566 -0.2744 -0.1225
 3185TIP3    H130970   2.892   0.921   3.344 -0.7485 -2.7757  0.4026
 3185TIP3    H230971   2.942   0.977   3.213  1.7370  0.1168  2.4493
 3186TIP3   OH230972   4.351   4.196   6.532 -0.0352 -0.2030 -0.1159
 3186TIP3    H130973   4.313   4.280   6.505 -0.4290 -0.4520 -0.3628
 3186TIP3    H230974   4.287   4.131   6.502  0.8096 -0.6702 -0.9641
 3187TIP3   OH230975   0.797   1.825  12.802  0.4667 -0.4207  0.1200
 3187TIP3    H130976   0.703   1.809  12.791  0.8091 -2.0508 -0.7017
 3187TIP3    H230977   0.807   1.919  12.784 -0.9200 -0.3215 -0.3219
 3188TIP3   OH230978   6.684   1.788  14.619  0.5603  0.1929  0.5419
 3188TIP3    H130979   6.644   1.705  14.645 -0.7305  0.5379 -0.2367
 3188TIP3    H230980   6.726   1.770  14.535 -0.7374  0.5635 -0.2270
 3189TIP3   OH230981   2.141   4.123   6.625  0.2866  0.4162 -0.4738
 3189TIP3    H130982   2.072   4.074   6.580  0.4714  1.1705 -1.6389
 3189TIP3    H230983   2.110   4.214   6.624 -0.2309  0.3173  1.9973
 3190TIP3   OH230984   1.524   2.687  11.313  0.0020 -0.0902  0.0235
 3190TIP3    H130985   1.526   2.767  11.259 -0.2529 -0.2890 -0.2886
 3190TIP3    H230986   1.434   2.656  11.306  0.2539 -0.7538 -0.3777
 3191TIP3   OH230987   5.072   2.839  16.808 -0.0542 -0.6323  0.7133
 3191TIP3    H130988   4.994   2.837  16.864  0.6488 -0.4254  1.7381
 3191TIP3    H230989   5.062   2.763  16.750 -1.0654 -0.5415  0.7583
 3192TIP3   OH230990   1.249   6.344  15.633  0.0761  0.0857 -0.2520
 3192TIP3    H130991   1.221   6.282  15.701 -1.8767  0.6348 -0.4975
 3192TIP3    H230992   1.184   6.413  15.635  1.8202  1.8248 -0.4685
 3193TIP3   OH230993   2.670   5.786  15.577 -0.1141  0.0277  0.3953
 3193TIP3    H130994   2.577   5.764  15.573 -0.3142  1.0552 -2.3571
 3193TIP3    H230995   2.704   5.763  15.491  1.8352  1.2102  0.7817
 3194TIP3   OH230996   5.842   1.218   2.162  0.2174  0.3340  0.4335
 3194TIP3    H130997   5.909   1.276   2.200  1.5798 -2.0220  1.8429
 3194TIP3    H230998   5.882   1.184   2.083 -0.6018  1.2643 -0.4152
 3195TIP3   OH230999   5.721   4.404  14.887  0.1349  0.0137  0.1919
 3195TIP3    H131000   5.733   4.368  14.799  0.8368  1.3124 -0.2697
 3195TIP3    H231001   5.626   4.403  14.901  0.1243 -1.8698  0.1613
 3196TIP3   OH231002   5.582   3.863   2.531  0.1150 -0.2730  0.0412
 3196TIP3    H131003   5.557   3.875   2.439  0.2194  1.1611  0.1679
 3196TIP3    H231004   5.590   3.952   2.565  2.6431 -0.6724  0.7504
 3197TIP3   OH231005   5.164   5.538  13.220 -0.0468  0.4201 -0.4521
 3197TIP3    H131006   5.232   5.584  13.267 -2.0960  1.0595  2.1158
 3197TIP3    H231007   5.193   5.447  13.219  0.6565  0.6041  0.9690
 3198TIP3   OH231008   4.187   4.588  15.400  0.4175  0.2209 -0.6449
 3198TIP3    H131009   4.105   4.617  15.438 -0.6082 -1.3628 -1.5432
 3198TIP3    H231010   4.169   4.500  15.367  1.9595  0.5052 -2.4249
 3199TIP3   OH231011   5.306   1.054  13.809 -0.1334 -0.2198  0.0627
 3199TIP3    H131012   5.319   0.961  13.831 -0.2895  0.2150  2.1622
 3199TIP3    H231013   5.231   1.081  13.863 -3.3303 -0.0008 -3.9751
 3200TIP3   OH231014   0.325   6.499   2.551  0.6070 -0.4373 -0.1852
 3200TIP3    H131015   0.393   6.460   2.605 -0.8289 -1.9748  0.6171
 3200TIP3    H231016   0.352   6.479   2.461  0.3485 -2.6747  0.1714
 3201TIP3   OH231017   1.486   0.984  17.131 -0.2039 -0.3965  0.1353
 3201TIP3    H131018   1.420   0.935  17.179 -2.4815  1.6530 -0.7403
 3201TIP3    H231019   1.535   1.031  17.199 -0.5928 -0.8007  0.7000
 3202TIP3   OH231020   3.262   2.435   0.984 -0.4202  0.2600 -0.7395
 3202TIP3    H131021   3.188   2.471   1.034 -1.1125  0.4567 -1.8668
 3202TIP3    H231022   3.223   2.363   0.934  0.8228 -1.8295  1.0985
 3203TIP3   OH231023   3.898   1.055  15.904  0.4558  0.1232 -0.5533
 3203TIP3    H131024   3.805   1.061  15.880 -0.0956  0.7420  1.5593
 3203TIP3    H231025   3.924   0.967  15.877 -0.6549  0.0390 -1.4422
 3204TIP3   OH231026   0.630   2.315   3.948 -0.2899  0.0377  0.4332
 3204TIP3    H131027   0.543   2.281   3.969 -1.2514  0.4178 -2.4834
 3204TIP3    H231028   0.613   2.399   3.905  1.3353 -0.6435 -1.7239
 3205TIP3   OH231029   4.100   6.007   4.967 -0.0978 -0.2713 -0.2538
 3205TIP3    H131030   4.043   5.993   5.042  0.1951 -0.6490 -0.0990
 3205TIP3    H231031   4.186   5.974   4.995  1.0584  3.1562  0.6955
 3206TIP3   OH231032   3.793   3.126  16.358 -0.5440  0.1235  0.1004
 3206TIP3    H131033   3.716   3.137  16.414  0.0596  1.4937  0.7248
 3206TIP3    H231034   3.793   3.034  16.334 -2.9868  0.2902 -0.7996
 3207TIP3   OH231035   5.634   4.797  11.565 -0.5962  0.3282 -0.2169
 3207TIP3    H131036   5.549   4.775  11.528 -0.7685 -0.9180  0.8470
 3207TIP3    H231037   5.616   4.863  11.631 -0.4734  1.4722 -1.2993
 3208TIP3   OH231038   6.554   6.721   5.478  0.0114 -0.1664  0.1925
 3208TIP3    H131039   6.492   6.648   5.474 -1.5804  1.0258  1.5355
 3208TIP3    H231040   6.640   6.681   5.475 -0.8133 -1.9843 -0.4243
 3209TIP3   OH231041   3.814   3.883  11.342 -0.2764  0.5343  0.1513
 3209TIP3    H131042   3.844   3.906  11.429 -0.6974  2.1050 -0.0865
 3209TIP3    H231043   3.727   3.923  11.335 -0.3913  0.1388 -0.8560
 3210TIP3   OH231044   0.415   5.228  14.647 -0.1680  0.1175 -0.1097
 3210TIP3    H131045   0.341   5.265  14.598 -1.4210  0.2837  1.8230
 3210TIP3    H231046   0.398   5.134  14.647  0.0853  0.0699 -0.3660
 3211TIP3   OH231047   6.583   2.569   2.403 -0.4545 -0.2237 -0.0761
 3211TIP3    H131048   6.611   2.657   2.377 -1.3460  0.4407  1.1325
 3211TIP3    H231049   6.503   2.554   2.354 -1.7214  0.7228  1.6148
 3212TIP3   OH231050   3.907   1.188   3.375  0.6378 -0.1848 -0.0968
 3212TIP3    H131051   3.926   1.151   3.461  2.1025  1.9045  0.5579
 3212TIP3    H231052   3.985   1.239   3.354 -0.4493  0.8318 -1.8404
 3213TIP3   OH231053   0.763   6.648  12.728 -0.4249 -0.4347  0.0913
 3213TIP3    H131054   0.799   6.687  12.808  1.8145 -0.9759 -0.5889
 3213TIP3    H231055   0.682   6.606  12.757 -0.2391  0.3032  1.8572
 3214TIP3   OH231056   5.390   5.310  14.292  0.5010  0.3900  0.3061
 3214TIP3    H131057   5.401   5.286  14.200  0.8443  1.2117  0.1271
 3214TIP3    H231058   5.438   5.242  14.340 -0.6328 -0.6956 -0.0445
 3215TIP3   OH231059   3.650   4.059  12.645  0.3384 -0.3800  0.3057
 3215TIP3    H131060   3.738   4.085  12.673  0.1206  0.7723 -0.0129
 3215TIP3    H231061   3.630   3.981  12.696  1.4916 -0.5774  0.4844
 3216TIP3   OH231062   3.440   1.223  13.537  0.4768 -0.2248  0.9355
 3216TIP3    H131063   3.361   1.201  13.487  0.3353  2.6650 -0.3115
 3216TIP3    H231064   3.509   1.171  13.496 -0.4760 -1.6877  1.0855
 3217TIP3   OH231065   6.342   0.730  11.996  0.1906 -0.2604  0.7205
 3217TIP3    H131066   6.435   0.743  11.975  0.1264 -1.1190 -0.1908
 3217TIP3    H231067   6.342   0.657  12.059  0.1252 -0.3133  0.6592
 3218TIP3   OH231068   2.324   6.501  15.009  0.0857 -0.2313  0.0821
 3218TIP3    H131069   2.257   6.569  15.004  0.2071 -0.2160 -2.0401
 3218TIP3    H231070   2.403   6.546  15.038 -0.0179  0.3967 -0.5966
 3219TIP3   OH231071   0.268   4.734  12.236  0.1769 -0.6530  0.3195
 3219TIP3    H131072   0.292   4.683  12.159 -0.0371 -1.3356  0.7044
 3219TIP3    H231073   0.344   4.790  12.252  0.1782 -0.4203 -0.4466
 3220TIP3   OH231074   0.037   0.012   0.982  0.3110 -0.0657  0.2350
 3220TIP3    H131075   0.002  -0.071   0.950 -1.1488  0.8483 -0.6444
 3220TIP3    H231076  -0.038   0.056   1.021  1.0392  0.9058  0.5831
 3221TIP3   OH231077   4.268   6.352   0.789 -0.3796  0.1167 -0.1420
 3221TIP3    H131078   4.266   6.338   0.884  1.0842  1.4107  0.1178
 3221TIP3    H231079   4.176   6.364   0.765 -0.8322 -0.8151  0.9985
 3222TIP3   OH231080   1.473   4.857  11.575  0.3647  0.6138 -0.7906
 3222TIP3    H131081   1.390   4.872  11.529 -0.3375  0.2357  0.3014
 3222TIP3    H231082   1.483   4.933  11.632  0.1445  0.0966 -0.0471
 3223TIP3   OH231083   4.639   6.034  10.996  0.3432 -0.4539  0.1338
 3223TIP3    H131084   4.706   5.996  11.052  0.7253 -0.4133 -0.2868
 3223TIP3    H231085   4.676   6.117  10.967  0.4264 -0.7675 -0.6925
 3224TIP3   OH231086   6.609   1.021   3.975 -0.4839 -0.1914  0.1465
 3224TIP3    H131087   6.656   0.940   3.996 -0.1108 -0.3071 -1.0905
 3224TIP3    H231088   6.555   1.038   4.053  1.5272 -0.1049  1.6176
 3225TIP3   OH231089   3.024   3.783  13.912 -0.5595  0.5447  0.4394
 3225TIP3    H131090   3.012   3.720  13.983 -1.6779  0.8931  0.5741
 3225TIP3    H231091   3.090   3.844  13.945 -2.5535  1.9602  2.1090
 3226TIP3   OH231092   3.503   0.429   2.799  0.2050 -0.5004 -0.2233
 3226TIP3    H131093   3.497   0.523   2.779  2.7042 -0.0062  0.9836
 3226TIP3    H231094   3.419   0.408   2.839  0.1612  1.6510  0.9656
 3227TIP3   OH231095   0.266   6.249  11.288 -0.4695 -0.1384  0.1951
 3227TIP3    H131096   0.294   6.174  11.341 -0.7702 -0.1336  0.3647
 3227TIP3    H231097   0.303   6.232  11.201  2.6306  1.3620  1.0886
 3228TIP3   OH231098   0.438   1.564  14.570 -0.0049  0.1809  0.0330
 3228TIP3    H131099   0.406   1.641  14.522  0.9843  0.2606 -0.5293
 3228TIP3    H231100   0.529   1.585  14.590 -0.1475 -0.2403  1.1717
 3229TIP3   OH231101   1.747   5.271  16.538 -0.8946 -0.8038 -0.0709
 3229TIP3    H131102   1.725   5.260  16.446  1.7309  1.8010 -1.1971
 3229TIP3    H231103   1.684   5.336  16.570  0.6129  1.4132 -1.3124
 3230TIP3   OH231104   0.319   5.671   2.211 -0.4211  0.1127  0.6595
 3230TIP3    H131105   0.411   5.671   2.185 -0.3680  0.2751  0.8426
 3230TIP3    H231106   0.317   5.727   2.289 -0.4558 -0.8841  1.4072
 3231TIP3   OH231107   2.441   6.340   1.437  0.2224 -0.0779  0.2282
 3231TIP3    H131108   2.373   6.405   1.416 -0.4070 -0.1303  1.9556
 3231TIP3    H231109   2.396   6.256   1.427 -0.1672 -0.0978  1.8988
 3232TIP3   OH231110   3.696   5.699  12.037 -0.0245 -0.1434  0.4525
 3232TIP3    H131111   3.753   5.763  11.995  0.6493 -0.5832  0.6962
 3232TIP3    H231112   3.631   5.753  12.083  0.4321  0.3642  0.5144
 3233TIP3   OH231113   1.416   6.256  15.435 -0.4632  0.0990 -0.0861
 3233TIP3    H131114   1.363   6.278  15.512 -0.3004  1.5628 -0.3701
 3233TIP3    H231115   1.440   6.340  15.397  0.3217 -0.5840 -1.1672
 3234TIP3   OH231116   4.517   3.216  16.819  0.0783 -0.0450 -0.0942
 3234TIP3    H131117   4.591   3.255  16.773  0.8507 -0.5379  0.6923
 3234TIP3    H231118   4.440   3.249  16.773  0.7038  1.8683  0.1321
 3235TIP3   OH231119   2.149   1.216  15.513  0.3982 -0.1588  0.0414
 3235TIP3    H131120   2.167   1.214  15.607 -2.5834  3.7570  0.9520
 3235TIP3    H231121   2.084   1.147  15.500  1.4874 -1.3420  0.5484
 3236TIP3   OH231122   1.503   4.439  14.011 -0.0272  0.2856  0.1578
 3236TIP3    H131123   1.487   4.357  14.058 -2.8654  0.1668 -0.8298
 3236TIP3    H231124   1.557   4.413  13.936  0.7840 -0.2892  0.9179
 3237TIP3   OH231125   2.914   1.963   3.547 -0.1878  0.2101 -0.4372
 3237TIP3    H131126   2.839   1.905   3.534  0.2565 -0.4398 -0.1484
 3237TIP3    H231127   2.977   1.936   3.480 -0.1352  0.6372 -0.5632
 3238TIP3   OH231128   4.074   0.708   6.218  0.7340 -0.1456 -0.5786
 3238TIP3    H131129   4.076   0.712   6.313 -0.2771 -0.7928 -0.5139
 3238TIP3    H231130   4.069   0.615   6.197 -1.2810  0.0440 -1.1665
 3239TIP3   OH231131   3.568   2.539  15.941  0.1375  0.2038 -0.4703
 3239TIP3    H131132   3.481   2.572  15.959 -0.2957 -1.2275  0.2003
 3239TIP3    H231133   3.577   2.545  15.845 -0.8838 -0.0932 -0.5883
 3240TIP3   OH231134   1.198   1.407   4.371 -0.4746  0.1762  0.2289
 3240TIP3    H131135   1.150   1.452   4.301  0.1119  0.0638 -0.2484
 3240TIP3    H231136   1.268   1.467   4.395 -0.2064 -0.1142  0.1789
 3241TIP3   OH231137   2.553   2.990   1.927  0.2546 -0.2261  0.3854
 3241TIP3    H131138   2.611   3.036   1.867 -0.3618 -2.0009 -1.7286
 3241TIP3    H231139   2.488   3.056   1.953  1.0529  0.8158 -0.1925
 3242TIP3   OH231140   4.089   1.494   3.006 -0.2980  0.2957 -0.5300
 3242TIP3    H131141   4.029   1.437   3.054  1.6315 -1.3096  0.1249
 3242TIP3    H231142   4.055   1.582   3.019 -2.5385 -0.5405 -0.3050
 3243TIP3   OH231143   1.045   6.185   1.294  0.0460  0.4279  0.1822
 3243TIP3    H131144   1.091   6.261   1.258  0.9047  0.5108  1.4078
 3243TIP3    H231145   1.014   6.138   1.217  1.9327  0.5345 -0.7104
 3244TIP3   OH231146   6.290   2.621   1.940  0.3824  0.1234  0.3194
 3244TIP3    H131147   6.268   2.662   2.023  1.2675  0.4676  0.3958
 3244TIP3    H231148   6.336   2.689   1.891  0.5107 -0.3013 -0.1576
 3245TIP3   OH231149   0.404   2.612   1.870 -0.5355  0.1585  0.3660
 3245TIP3    H131150   0.441   2.527   1.897  0.2241  0.3328 -0.0792
 3245TIP3    H231151   0.366   2.648   1.950 -1.3609 -0.8445  0.4428
 3246TIP3   OH231152   5.324   1.541  14.681  0.4285  0.9174 -0.4406
 3246TIP3    H131153   5.290   1.554  14.769 -0.3661 -1.0358 -0.3873
 3246TIP3    H231154   5.408   1.587  14.679  1.2043 -0.2424  1.8626
 3247TIP3   OH231155   6.474   0.713   3.805  0.5091  0.2131  0.5887
 3247TIP3    H131156   6.538   0.773   3.767  0.7876 -0.2342  0.3452
 3247TIP3    H231157   6.389   0.753   3.784  0.7027  0.8030  0.9134
 3248TIP3   OH231158   3.327   3.401  12.706  0.7474 -0.2420 -0.0139
 3248TIP3    H131159   3.255   3.377  12.649 -0.7581  1.4056  1.0986
 3248TIP3    H231160   3.380   3.462  12.655  0.0014  0.4120 -0.0028
 3249TIP3   OH231161   4.041   6.008   0.630  0.5972  0.3161  0.9982
 3249TIP3    H131162   4.034   6.045   0.718 -0.8603 -1.8672  1.8817
 3249TIP3    H231163   4.135   6.001   0.614  0.8813  0.6751  2.4264
 3250TIP3   OH231164   6.615   6.505   5.735  0.4957 -0.2715  0.1956
 3250TIP3    H131165   6.530   6.482   5.772  0.9163 -0.9634  0.7676
 3250TIP3    H231166   6.606   6.487   5.641 -0.4910  1.2253 -0.0215
 3251TIP3   OH231167   5.523   2.165  12.273 -0.7428 -0.3041  0.2230
 3251TIP3    H131168   5.616   2.152  12.258 -0.7765 -0.9049  0.4862
 3251TIP3    H231169   5.481   2.091  12.228 -1.0726 -0.2127  0.3767
 3252TIP3   OH231170   3.088   1.261   4.615 -0.3573 -0.2005 -0.4069
 3252TIP3    H131171   3.000   1.298   4.620 -0.4079 -0.5355  1.8222
 3252TIP3    H231172   3.132   1.315   4.549 -1.6013  1.3166 -0.0550
 3253TIP3   OH231173   4.791   4.159   0.616 -0.0741 -0.2814  0.5033
 3253TIP3    H131174   4.708   4.206   0.611 -0.7913 -1.2482  2.2651
 3253TIP3    H231175   4.830   4.188   0.698  0.4293 -1.2221  0.6140
 3254TIP3   OH231176   2.557   1.472  12.839  0.2650 -0.4784  0.1216
 3254TIP3    H131177   2.568   1.428  12.923  1.2691  0.0363  0.2827
 3254TIP3    H231178   2.646   1.476  12.803  0.1027  0.8448 -0.1695
 3255TIP3   OH231179   1.748   0.519   2.622 -0.1893  0.2483  0.4209
 3255TIP3    H131180   1.736   0.534   2.716 -0.9286 -0.2541  0.4114
 3255TIP3    H231181   1.817   0.453   2.617  1.1550  1.5847  0.5383
 3256TIP3   OH231182   5.290   4.091  17.385  0.0346 -0.1780 -0.0854
 3256TIP3    H131183   5.207   4.113  17.427 -0.4918 -0.2667 -1.0425
 3256TIP3    H231184   5.312   4.169  17.334 -0.7109 -1.0039 -1.7477
 3257TIP3   OH231185   2.489   6.418   0.871 -0.3988  0.6710  0.0476
 3257TIP3    H131186   2.492   6.323   0.861  1.7948  0.7749 -0.7007
 3257TIP3    H231187   2.458   6.431   0.961 -2.6832 -0.6646 -0.4612
 3258TIP3   OH231188   1.608   4.519  14.910  0.0043  0.0697  0.4124
 3258TIP3    H131189   1.625   4.465  14.832  0.1201 -1.1655  1.2500
 3258TIP3    H231190   1.638   4.606  14.886 -0.8367 -0.0577 -1.2538
 3259TIP3   OH231191   3.172   5.579   3.998 -0.0010  0.1280  1.2338
 3259TIP3    H131192   3.199   5.637   3.927 -0.8700  1.6935  2.1177
 3259TIP3    H231193   3.110   5.519   3.958  0.3917  0.2501  0.4286
 3260TIP3   OH231194   2.639   4.804  15.517 -0.2643 -0.6887  0.0726
 3260TIP3    H131195   2.713   4.744  15.504 -2.0352 -3.0627  0.2742
 3260TIP3    H231196   2.627   4.807  15.612 -0.8717 -0.9295  0.0085
 3261TIP3   OH231197   0.242   0.839   3.611  0.4602 -0.5569  0.3089
 3261TIP3    H131198   0.199   0.842   3.697 -2.4066 -0.7306 -1.0229
 3261TIP3    H231199   0.263   0.931   3.592  1.3340 -0.5372  1.2250
 3262TIP3   OH231200   1.836   0.412   4.634 -0.0015  0.7765  0.0938
 3262TIP3    H131201   1.858   0.318   4.635 -2.6990  0.0706  0.4891
 3262TIP3    H231202   1.853   0.439   4.544  0.5640 -0.1367 -0.0962
 3263TIP3   OH231203   6.159   5.166   2.217 -0.4703 -0.8308  0.0079
 3263TIP3    H131204   6.127   5.076   2.228 -1.1438 -0.4488  1.3274
 3263TIP3    H231205   6.182   5.194   2.306 -1.2201  0.6535 -0.2496
 3264TIP3   OH231206   6.076   0.973  12.275 -0.3754  0.6823  0.0297
 3264TIP3    H131207   6.087   1.064  12.301  0.5115 -0.0146  2.3060
 3264TIP3    H231208   6.110   0.922  12.349 -0.5824 -1.5022 -1.2878
 3265TIP3   OH231209   3.801   3.716  16.848 -0.4159  0.0374  0.1471
 3265TIP3    H131210   3.717   3.760  16.835 -0.4443 -0.1808 -0.4197
 3265TIP3    H231211   3.801   3.644  16.784  0.4532  0.3957 -0.2713
 3266TIP3   OH231212   2.578   1.013  15.238  0.7626 -0.1269 -0.4296
 3266TIP3    H131213   2.508   1.016  15.172  0.9881  0.1813 -0.6568
 3266TIP3    H231214   2.603   0.921  15.241  0.0793 -0.3083 -0.0608
 3267TIP3   OH231215   6.400   0.011  11.012  0.0209  0.0026  0.8139
 3267TIP3    H131216   6.343   0.089  11.006 -1.0218 -0.7424  0.7361
 3267TIP3    H231217   6.355  -0.055  10.959  0.9193 -0.6428  0.8428
 3268TIP3   OH231218   1.609   2.851   0.686  0.1763 -0.1497 -0.7020
 3268TIP3    H131219   1.538   2.883   0.742  0.1594 -0.0011 -0.8080
 3268TIP3    H231220   1.678   2.917   0.696  0.3264 -0.3314 -0.5424
 3269TIP3   OH231221   3.374   6.139  13.840  0.6513 -0.0643 -0.1266
 3269TIP3    H131222   3.438   6.068  13.847  0.4084 -0.2908 -0.1689
 3269TIP3    H231223   3.297   6.097  13.801  0.2400  0.0491  0.5476
 3270TIP3   OH231224   3.332   1.390   3.179  0.0792  0.6426  0.1322
 3270TIP3    H131225   3.358   1.301   3.154  1.0983  0.4747  1.6587
 3270TIP3    H231226   3.282   1.422   3.104  1.8803 -0.2685 -1.5487
 3271TIP3   OH231227   1.273   2.703  12.651  0.0638  0.5575  0.8508
 3271TIP3    H131228   1.260   2.639  12.581 -0.8831  1.2614  0.3564
 3271TIP3    H231229   1.363   2.732  12.640 -0.3882  1.5103 -0.8691
 3272TIP3   OH231230   3.126   1.612  14.294 -0.2815 -0.2276  0.0633
 3272TIP3    H131231   3.089   1.572  14.216 -0.6241  1.0361 -0.4413
 3272TIP3    H231232   3.220   1.597  14.287 -0.3859 -0.7747 -0.2010
 3273TIP3   OH231233   4.447   3.512  13.433  0.1289  0.3530  0.5208
 3273TIP3    H131234   4.507   3.486  13.363  0.0035  0.4958  0.3616
 3273TIP3    H231235   4.456   3.442  13.499  0.9567  0.7071  0.7929
 3274TIP3   OH231236   6.436   3.874   2.504 -0.0311  0.8571  0.6193
 3274TIP3    H131237   6.353   3.845   2.542 -0.9659  0.9210 -1.2147
 3274TIP3    H231238   6.493   3.798   2.511 -1.1040 -0.0947 -0.3825
 3275TIP3   OH231239   4.461   2.997  15.026 -0.0203 -0.6643 -0.1766
 3275TIP3    H131240   4.370   3.022  15.007  0.4517  0.5579 -0.9635
 3275TIP3    H231241   4.464   2.989  15.121 -1.2828 -2.1619 -0.2106
 3276TIP3   OH231242   5.676   3.021   1.503 -0.6059 -0.5774 -0.2602
 3276TIP3    H131243   5.583   3.013   1.526 -0.7515 -1.5497 -1.1562
 3276TIP3    H231244   5.692   2.950   1.442  0.5584  0.0444 -0.7000
 3277TIP3   OH231245   3.473   4.162   4.036 -0.5902 -0.0005 -0.1992
 3277TIP3    H131246   3.391   4.208   4.022  0.1959  2.1112  1.4635
 3277TIP3    H231247   3.541   4.226   4.015  0.5782 -0.5425  1.6460
 3278TIP3   OH231248   2.705   0.042   2.914 -0.2164 -0.2151 -0.2233
 3278TIP3    H131249   2.624   0.085   2.938 -0.0122  0.1935 -0.2631
 3278TIP3    H231250   2.732   0.084   2.833  0.2627 -0.0472  0.0194
 3279TIP3   OH231251   1.512   1.641   1.318  0.5619 -0.4506  0.4109
 3279TIP3    H131252   1.480   1.551   1.323 -0.8692  0.0641  0.9146
 3279TIP3    H231253   1.438   1.695   1.345  1.9123  0.7985  1.8026
 3280TIP3   OH231254   3.255   0.307   3.500  0.1670 -0.0969  0.7343
 3280TIP3    H131255   3.319   0.341   3.437 -0.1186 -0.5255  0.2064
 3280TIP3    H231256   3.211   0.237   3.453 -1.8094  1.2249  0.5039
 3281TIP3   OH231257   4.361   3.904  14.899 -0.0528  0.2731  0.4724
 3281TIP3    H131258   4.380   3.983  14.850 -0.1389  0.4887  0.7866
 3281TIP3    H231259   4.298   3.857  14.845  1.1405 -0.3272 -0.4627
 3282TIP3   OH231260   4.594   4.076  13.831  0.1548  0.4447 -0.0679
 3282TIP3    H131261   4.630   4.163  13.815  0.3256  0.9016  2.3561
 3282TIP3    H231262   4.537   4.088  13.907 -1.4755 -1.1751 -0.9805
 3283TIP3   OH231263   1.967   3.078   4.212 -0.5037  0.3885  0.1161
 3283TIP3    H131264   2.058   3.096   4.234 -0.6011  0.1857  0.6816
 3283TIP3    H231265   1.968   3.058   4.118 -0.1303  1.5289 -0.1441
 3284TIP3   OH231266   5.695   5.565   5.825 -0.0978 -0.0981  0.0571
 3284TIP3    H131267   5.611   5.533   5.859 -0.5363  1.0225  0.0789
 3284TIP3    H231268   5.756   5.552   5.897 -0.0657 -1.6108 -0.2115
 3285TIP3   OH231269   1.343   1.342   0.768  0.5907 -0.0890  0.4945
 3285TIP3    H131270   1.436   1.356   0.786  0.4595  0.7330  0.5825
 3285TIP3    H231271   1.338   1.336   0.673  0.4160  2.8087  0.2038
 3286TIP3   OH231272   1.849   2.633  12.332 -0.6309  0.2691 -0.2501
 3286TIP3    H131273   1.832   2.602  12.244  1.8378  0.6752 -0.9699
 3286TIP3    H231274   1.850   2.554  12.386  2.1232 -0.6599 -1.4375
 3287TIP3   OH231275   0.956   0.860  12.350 -0.0777 -0.8249  0.6154
 3287TIP3    H131276   0.952   0.766  12.369  4.0664 -0.7748  2.7594
 3287TIP3    H231277   1.030   0.869  12.289 -1.4773  0.9967 -0.9541
 3288TIP3   OH231278   0.245   2.396  15.168 -0.1408 -0.6563  0.2316
 3288TIP3    H131279   0.179   2.340  15.209 -0.2103  0.0190  1.0558
 3288TIP3    H231280   0.315   2.401  15.232  0.0921 -0.2145 -0.0601
 3289TIP3   OH231281   2.296   2.983   0.672  0.6121  0.2389 -0.2294
 3289TIP3    H131282   2.386   2.976   0.643 -0.3837 -0.3969 -3.6086
 3289TIP3    H231283   2.296   3.054   0.737  3.4692  0.2296 -0.1106
 3290TIP3   OH231284   2.176   4.864  15.342  0.3029  0.1570 -0.1318
 3290TIP3    H131285   2.094   4.863  15.391  0.9391  0.4492  0.9699
 3290TIP3    H231286   2.237   4.910  15.400  1.5146 -0.9753 -0.4963
 3291TIP3   OH231287   4.908   2.476  11.183  1.0330  0.1906 -0.5342
 3291TIP3    H131288   4.849   2.405  11.158 -0.9909  1.0915  1.3392
 3291TIP3    H231289   4.915   2.530  11.104 -0.6651  0.0389 -0.8283
 3292TIP3   OH231290   6.536   6.285  14.675  0.1021 -0.4358  1.4016
 3292TIP3    H131291   6.501   6.359  14.723 -0.4984  0.5216 -0.3960
 3292TIP3    H231292   6.614   6.320  14.631 -0.3801 -0.7411  0.2626
 3293TIP3   OH231293   6.652   0.872   4.567  0.0492  0.3375  0.0552
 3293TIP3    H131294   6.578   0.931   4.577  0.1505  0.6391 -0.8441
 3293TIP3    H231295   6.702   0.909   4.494  0.5067 -0.4529 -0.0424
 3294TIP3   OH231296   0.180   0.623   0.560 -0.4278 -0.4227 -0.0245
 3294TIP3    H131297   0.186   0.625   0.656  1.2251  2.0877 -0.1023
 3294TIP3    H231298   0.105   0.679   0.540 -0.1696 -0.1445 -0.2172
 3295TIP3   OH231299   5.452   2.330  13.272 -0.0892  0.4668 -0.6145
 3295TIP3    H131300   5.430   2.367  13.357  0.3521  1.2437 -0.8248
 3295TIP3    H231301   5.529   2.276  13.288 -1.5455 -1.5351 -0.0454
 3296TIP3   OH231302   2.521   2.726  12.355 -0.3688  0.2402 -0.6822
 3296TIP3    H131303   2.478   2.806  12.385  0.0544  0.7819 -1.4677
 3296TIP3    H231304   2.453   2.659  12.360 -1.0517  0.8846 -1.0547
 3297TIP3   OH231305   2.116   4.950  13.907 -0.0638 -0.5165  0.0057
 3297TIP3    H131306   2.046   4.945  13.972  0.1513 -2.1340  0.1581
 3297TIP3    H231307   2.193   4.916  13.952  1.2343  2.4598  0.2691
 3298TIP3   OH231308   4.998   3.312  12.916  0.6013 -0.3261 -0.2330
 3298TIP3    H131309   4.989   3.298  13.010 -3.9547 -1.0700 -0.5527
 3298TIP3    H231310   5.037   3.231  12.883  1.1828 -0.5147  0.8748
 3299TIP3   OH231311   6.271   2.382  15.365  0.4844  0.2407  0.0326
 3299TIP3    H131312   6.273   2.414  15.456  1.2544 -0.0578  0.1309
 3299TIP3    H231313   6.236   2.293  15.372  2.6021 -0.6279  0.3371
 3300TIP3   OH231314   4.574   4.142   5.827  0.2355  0.2145 -0.3824
 3300TIP3    H131315   4.619   4.154   5.910  0.6059 -0.0087 -0.5497
 3300TIP3    H231316   4.550   4.231   5.800  0.1208  0.2881 -0.0452
 3301TIP3   OH231317   0.006   4.367   3.049 -0.6679  0.1260  0.6170
 3301TIP3    H131318  -0.047   4.445   3.065 -0.1073  0.3204  1.5782
 3301TIP3    H231319  -0.037   4.325   2.974 -1.5214  0.8596  0.6679
 3302TIP3   OH231320   0.319   5.407   0.527  0.3540  0.2519 -0.6639
 3302TIP3    H131321   0.339   5.408   0.621  1.7690 -0.0096 -0.9297
 3302TIP3    H231322   0.227   5.384   0.522  0.1344  0.7351  0.6772
 3303TIP3   OH231323   6.681   1.122  12.887  0.5060 -0.1399 -1.0061
 3303TIP3    H131324   6.652   1.208  12.918 -1.2002 -1.3520  1.0408
 3303TIP3    H231325   6.730   1.141  12.807 -0.9839  2.6312 -1.4058
 3304TIP3   OH231326   1.716   2.138  10.756  0.2801  0.1554  0.2679
 3304TIP3    H131327   1.775   2.195  10.707  0.3183 -1.4431 -1.6377
 3304TIP3    H231328   1.642   2.195  10.780  1.1051  1.4043 -0.0766
 3305TIP3   OH231329   4.487   4.151  17.501  0.1294 -0.4527 -0.3416
 3305TIP3    H131330   4.503   4.058  17.520  1.2171 -0.1553  0.3128
 3305TIP3    H231331   4.557   4.175  17.439  0.5680  0.2035  0.3900
 3306TIP3   OH231332   4.911   2.686  14.857  0.4122 -0.7204 -0.0448
 3306TIP3    H131333   4.834   2.634  14.832 -0.1283 -0.6675  1.3979
 3306TIP3    H231334   4.944   2.722  14.775 -1.1302 -0.7182 -0.6908
 3307TIP3   OH231335   5.853   6.545   4.776  0.0073  0.4591  0.7227
 3307TIP3    H131336   5.918   6.546   4.706 -0.3031  0.2423  0.4303
 3307TIP3    H231337   5.769   6.539   4.731 -0.0910 -3.8120  1.0775
 3308TIP3   OH231338   4.922   2.671   0.823 -0.0098  0.3286 -0.3347
 3308TIP3    H131339   4.875   2.589   0.813  0.7044  0.0828 -2.0431
 3308TIP3    H231340   4.872   2.734   0.771  0.0485  0.7189  0.0757
 3309TIP3   OH231341   6.689   5.970   4.553 -0.3377 -0.2548  0.6311
 3309TIP3    H131342   6.692   5.875   4.561 -1.9929 -0.3510  0.4683
 3309TIP3    H231343   6.659   5.985   4.463  0.5276  0.4433  0.4442
 3310TIP3   OH231344   1.188   6.291   2.762  0.3435  0.2764  0.4801
 3310TIP3    H131345   1.117   6.356   2.765  0.1627  0.2131 -1.2457
 3310TIP3    H231346   1.268   6.344   2.756  0.1548  0.3924 -1.6124
 3311TIP3   OH231347   4.718   3.554  16.463 -0.0332 -0.4459  0.1429
 3311TIP3    H131348   4.723   3.555  16.368 -1.2163 -1.1571  0.0623
 3311TIP3    H231349   4.806   3.581  16.492 -0.2153  1.8067 -1.1323
 3312TIP3   OH231350   5.904   2.091   2.795  0.0412 -0.7535  0.5142
 3312TIP3    H131351   5.905   2.149   2.718  1.5952 -2.1528 -0.6058
 3312TIP3    H231352   5.976   2.122   2.849  0.4548 -1.1999  0.2318
 3313TIP3   OH231353   3.271   2.367  16.492 -0.7060 -0.0948 -0.1539
 3313TIP3    H131354   3.295   2.275  16.487 -1.1007 -0.1580 -0.8512
 3313TIP3    H231355   3.333   2.404  16.556 -0.8306 -0.9242  0.4630
 3314TIP3   OH231356   5.512   5.297   0.851  0.0418  0.3606 -0.3842
 3314TIP3    H131357   5.539   5.243   0.925 -1.8857  0.2574  0.2886
 3314TIP3    H231358   5.579   5.282   0.784  0.7589 -1.0750  0.6235
 3315TIP3   OH231359   1.854   4.560  11.513  0.0761 -0.3806 -0.1250
 3315TIP3    H131360   1.786   4.505  11.474 -0.1852  0.6090 -1.1160
 3315TIP3    H231361   1.911   4.584  11.439 -1.4410  3.0002 -0.3493
 3316TIP3   OH231362   3.196   6.231  12.337  0.4084 -0.2374 -0.6153
 3316TIP3    H131363   3.276   6.224  12.390  0.0377  0.1181 -0.0005
 3316TIP3    H231364   3.176   6.324  12.336  0.1367 -0.3005 -0.9753
 3317TIP3   OH231365   2.398   1.534   3.681 -0.2938 -0.0292 -0.0282
 3317TIP3    H131366   2.302   1.530   3.685 -0.2703 -1.3730 -0.2085
 3317TIP3    H231367   2.417   1.595   3.610 -1.0283 -0.3797 -0.5345
 3318TIP3   OH231368   2.087   3.062  13.822  0.1528  0.1439  0.4621
 3318TIP3    H131369   2.057   2.988  13.770  1.7822 -0.8737  0.8824
 3318TIP3    H231370   2.130   3.120  13.759 -0.4484  0.3685  0.2510
 3319TIP3   OH231371   4.808   2.645   0.534 -0.1737 -0.2341  0.0631
 3319TIP3    H131372   4.714   2.657   0.516 -0.1655  5.2700  1.6205
 3319TIP3    H231373   4.812   2.621   0.626 -0.2457  2.0095  0.7299
 3320TIP3   OH231374   3.052   2.631  15.257  0.6422  0.1487 -0.0466
 3320TIP3    H131375   2.986   2.700  15.259  1.7784  1.2843 -0.1474
 3320TIP3    H231376   3.136   2.678  15.260  1.4949 -1.3131  2.7855
 3321TIP3   OH231377   1.376   3.345  14.494 -0.5654 -0.2016  0.2692
 3321TIP3    H131378   1.293   3.324  14.536 -1.1262  0.1235 -0.6341
 3321TIP3    H231379   1.387   3.439  14.508 -1.3312  0.1485 -1.2305
 3322TIP3   OH231380   6.030   1.101   1.258 -0.1413 -0.6681  0.0520
 3322TIP3    H131381   6.086   1.041   1.209 -0.1113 -0.4509 -0.1861
 3322TIP3    H231382   6.034   1.183   1.208 -0.0053 -0.4040  0.4933
 3323TIP3   OH231383   0.130   4.646  13.108 -0.7237 -0.2892 -0.2667
 3323TIP3    H131384   0.101   4.737  13.115 -0.5013 -0.3384  3.2985
 3323TIP3    H231385   0.225   4.651  13.101 -0.6438 -0.1967  0.6881
 3324TIP3   OH231386   0.052   1.975  16.480 -0.2936  0.0498 -0.2110
 3324TIP3    H131387   0.033   1.887  16.514  2.8794 -0.4150  0.6803
 3324TIP3    H231388   0.011   1.976  16.393 -0.3682 -2.3526 -0.2770
 3325TIP3   OH231389   0.352   3.874  15.281 -0.6621 -0.5102  0.4643
 3325TIP3    H131390   0.319   3.787  15.263  0.3092 -0.9557  0.7604
 3325TIP3    H231391   0.424   3.861  15.343 -0.4280  0.4836  0.4331
 3326TIP3   OH231392   6.500   3.668   3.960 -0.0743 -0.2381 -0.3293
 3326TIP3    H131393   6.537   3.753   3.934 -0.2757  0.3389  1.1368
 3326TIP3    H231394   6.564   3.632   4.020 -0.1767 -0.9582 -0.6479
 3327TIP3   OH231395   2.603   4.173   5.772  0.5534  0.4423  0.7232
 3327TIP3    H131396   2.698   4.187   5.781  0.5917  0.9655 -0.4055
 3327TIP3    H231397   2.564   4.255   5.803  0.5680  1.0328 -0.7457
 3328TIP3   OH231398   2.642   4.222  12.722 -0.8704  0.4858  0.2465
 3328TIP3    H131399   2.671   4.257  12.637 -2.4872 -0.5042 -0.7817
 3328TIP3    H231400   2.570   4.279  12.748 -0.4846  0.6868  0.8912
 3329TIP3   OH231401   4.655   3.344  17.063 -0.2813 -0.0196  0.2093
 3329TIP3    H131402   4.580   3.317  17.009 -1.2019  0.9088  0.9752
 3329TIP3    H231403   4.687   3.263  17.102 -0.8144 -0.4482 -0.2209
 3330TIP3   OH231404   3.265   1.026   3.640 -0.2043 -0.3093 -0.3556
 3330TIP3    H131405   3.271   1.042   3.545  1.6475  1.0557 -0.0665
 3330TIP3    H231406   3.184   1.071   3.666  0.2634  0.9797 -1.0167
 3331TIP3   OH231407   5.630   0.496   3.167  0.3878 -0.0374  0.1341
 3331TIP3    H131408   5.621   0.572   3.110 -0.5475  1.1180  1.7359
 3331TIP3    H231409   5.712   0.455   3.139  0.6570  1.2474 -1.1064
 3332TIP3   OH231410   5.668   1.975   3.589 -0.4147 -0.3107 -0.2554
 3332TIP3    H131411   5.738   1.993   3.652  0.8942 -1.2940 -1.3608
 3332TIP3    H231412   5.703   2.007   3.505 -0.6129 -2.1865 -1.1045
 3333TIP3   OH231413   2.638   3.924  12.534  0.3269  0.6549 -0.1238
 3333TIP3    H131414   2.709   3.950  12.593  2.0246 -1.0266 -1.3532
 3333TIP3    H231415   2.642   3.987  12.462  0.0094  1.0456  0.1899
 3334TIP3   OH231416   2.787   1.439   4.028  0.5035  0.2429  0.0957
 3334TIP3    H131417   2.754   1.357   3.992  1.9227 -0.1304 -0.4191
 3334TIP3    H231418   2.721   1.505   4.003  0.3236 -0.4021 -1.2095
 3335TIP3   OH231419   5.021   4.148   5.735  0.4947 -0.0509  0.5526
 3335TIP3    H131420   4.947   4.193   5.694  2.0604  4.7578  2.4268
 3335TIP3    H231421   5.078   4.124   5.661 -0.7588  0.4141 -0.6034
 3336TIP3   OH231422   4.312   0.122   3.650  0.5131 -0.4566 -0.5497
 3336TIP3    H131423   4.268   0.063   3.711 -1.1398 -1.7142 -2.8164
 3336TIP3    H231424   4.393   0.077   3.626 -0.4231 -1.5528 -1.7618
 3337TIP3   OH231425   3.404   4.932   1.559 -0.5310  0.3289 -0.3480
 3337TIP3    H131426   3.335   4.992   1.532 -0.2757  0.0729 -1.6143
 3337TIP3    H231427   3.484   4.966   1.518 -0.0798  0.0602  0.2849
 3338TIP3   OH231428   4.758   5.660  15.131  0.8207  0.2962  0.4088
 3338TIP3    H131429   4.836   5.689  15.085 -1.8120  3.5117 -2.5838
 3338TIP3    H231430   4.730   5.736  15.181 -1.4851  0.0234 -0.3474
 3339TIP3   OH231431   0.990   5.064  15.668 -0.3801  0.1571 -0.4916
 3339TIP3    H131432   0.946   5.038  15.587 -1.1500 -0.6410  0.1613
 3339TIP3    H231433   0.983   5.159  15.669  0.6845  0.2760 -1.9277
 3340TIP3   OH231434   3.874   1.494   5.312  0.2638  0.4598  0.0998
 3340TIP3    H131435   3.957   1.490   5.264  1.6706  1.6577  2.2526
 3340TIP3    H231436   3.867   1.585   5.340 -0.7125 -0.0646  1.6839
 3341TIP3   OH231437   5.774   6.124   3.321  0.7961 -0.0606  0.0625
 3341TIP3    H131438   5.711   6.128   3.249  0.4580 -2.3799  0.1432
 3341TIP3    H231439   5.722   6.097   3.397  1.6419 -0.5934  0.4665
 3342TIP3   OH231440   5.278   2.440  15.671  0.3040  0.2537 -0.3672
 3342TIP3    H131441   5.284   2.351  15.636 -0.6183  0.1813 -0.3644
 3342TIP3    H231442   5.213   2.433  15.741  2.2359  0.3412  1.5435
 3343TIP3   OH231443   1.949   4.050  14.766 -0.0110 -0.0742 -0.1041
 3343TIP3    H131444   1.980   4.021  14.681 -0.8726  2.6576 -1.4734
 3343TIP3    H231445   2.016   4.111  14.797 -0.1451 -0.3527  0.7872
 3344TIP3   OH231446   0.145   5.269  17.406  0.2393  0.3478 -0.3858
 3344TIP3    H131447   0.230   5.256  17.448 -0.3993 -1.2120  0.5008
 3344TIP3    H231448   0.139   5.198  17.342 -0.0686  0.9227 -1.0019
 3345TIP3   OH231449   5.333   2.333   4.185  0.3566  0.0010  0.3236
 3345TIP3    H131450   5.366   2.322   4.274 -0.2898 -0.6976  0.4892
 3345TIP3    H231451   5.274   2.408   4.189 -0.7662 -0.8764  0.8183
 3346TIP3   OH231452   4.125   5.653   2.411 -0.1715 -0.1668 -0.0204
 3346TIP3    H131453   4.152   5.638   2.502 -0.1863  1.0319  0.1915
 3346TIP3    H231454   4.204   5.682   2.366 -0.3340 -0.0056 -0.2084
 3347TIP3   OH231455   3.171   4.326   2.025  0.3419  0.2296  0.1158
 3347TIP3    H131456   3.209   4.293   1.943 -1.0273 -2.0132  0.2875
 3347TIP3    H231457   3.238   4.309   2.091  0.1201 -1.2921 -0.0059
 3348TIP3   OH231458   5.954   1.375   5.899  0.3481 -0.1737 -0.2638
 3348TIP3    H131459   5.879   1.428   5.873  0.5331 -0.3817 -1.2744
 3348TIP3    H231460   6.012   1.377   5.823  1.2765 -0.1870  0.4287
 3349TIP3   OH231461   3.160   3.206   5.956 -0.0712 -0.1151  0.2644
 3349TIP3    H131462   3.169   3.236   6.047  2.2215  0.5677 -0.1059
 3349TIP3    H231463   3.124   3.118   5.963 -1.3939  0.4992  1.7392
 3350TIP3   OH231464   6.462   5.858   0.429  0.0096  0.1511 -0.0312
 3350TIP3    H131465   6.439   5.816   0.346  2.5838  1.4387 -1.5125
 3350TIP3    H231466   6.421   5.945   0.425 -1.3251 -0.3960  0.9007
 3351TIP3   OH231467   0.670   1.566   5.390 -0.0108  0.5056 -0.2628
 3351TIP3    H131468   0.689   1.496   5.328 -0.1270  0.7115 -0.5301
 3351TIP3    H231469   0.612   1.525   5.455 -0.4187  0.4687 -0.6489
 3352TIP3   OH231470   0.144   0.827  15.486 -0.8440  0.3335  0.5601
 3352TIP3    H131471   0.133   0.792  15.398 -1.3903  1.1257  0.3032
 3352TIP3    H231472   0.238   0.839  15.495 -0.7954  0.3947  0.0228
 3353TIP3   OH231473   5.158   3.047  16.673  0.1239  0.2827  0.2091
 3353TIP3    H131474   5.112   2.971  16.708  1.0851 -0.7769 -0.7560
 3353TIP3    H231475   5.213   3.012  16.602  3.2399  1.2499  1.9469
 3354TIP3   OH231476   2.116   4.834  16.824  0.0046 -0.1874  0.2556
 3354TIP3    H131477   2.104   4.836  16.729  0.1760 -0.7982  0.2169
 3354TIP3    H231478   2.198   4.786  16.837 -0.7021 -1.3164  0.7595
 3355TIP3   OH231479   1.412   2.017  11.000 -0.2556  0.1068 -0.6596
 3355TIP3    H131480   1.453   2.061  11.074 -0.4128 -0.0060 -0.5048
 3355TIP3    H231481   1.453   2.056  10.923 -0.0200  0.1540 -0.5104
 3356TIP3   OH231482   3.398   4.273   2.568 -0.1482  0.5093 -0.2617
 3356TIP3    H131483   3.426   4.306   2.654 -1.1721  1.3950 -0.2507
 3356TIP3    H231484   3.382   4.352   2.517 -0.0188 -0.0150 -1.1258
 3357TIP3   OH231485   5.387   4.906  15.470  0.1915 -0.6348 -0.3137
 3357TIP3    H131486   5.369   4.995  15.498 -0.6810 -0.2508 -1.9351
 3357TIP3    H231487   5.453   4.874  15.531  0.3038  1.0045  0.4760
 3358TIP3   OH231488   2.088   0.733  15.390 -0.1352  0.0451 -0.2739
 3358TIP3    H131489   2.085   0.803  15.455 -0.7583 -0.3397  0.1233
 3358TIP3    H231490   2.076   0.653  15.441  2.1120 -0.4965 -0.5146
 3359TIP3   OH231491   5.558   0.351   4.603 -0.6301 -0.5351 -0.3167
 3359TIP3    H131492   5.569   0.436   4.560 -1.5286 -0.8732 -1.2414
 3359TIP3    H231493   5.566   0.371   4.697  0.4269  0.3612 -0.5706
 3360TIP3   OH231494   6.477   5.519  15.765  0.5976  0.4449  0.2025
 3360TIP3    H131495   6.415   5.591  15.762  0.6989  0.4907 -1.5509
 3360TIP3    H231496   6.548   5.551  15.821 -0.7659  0.4943  2.0063
 3361TIP3   OH231497   2.214   1.387   5.061  0.0124  0.4891  0.2729
 3361TIP3    H131498   2.157   1.351   5.128 -0.9576 -1.5475 -1.5120
 3361TIP3    H231499   2.160   1.454   5.017 -0.1157  0.3412  0.2020
 3362TIP3   OH231500   2.610   6.591   5.466  0.2384 -0.3584  0.4738
 3362TIP3    H131501   2.705   6.582   5.477 -0.0185 -2.3053  1.5673
 3362TIP3    H231502   2.573   6.518   5.516 -1.7956 -0.3714 -0.9225
 3363TIP3   OH231503   4.796   4.668   0.682 -0.7233  0.0916  0.0062
 3363TIP3    H131504   4.763   4.725   0.613 -0.0976 -2.2823 -2.3925
 3363TIP3    H231505   4.747   4.695   0.760 -1.3218  3.0016 -1.2357
 3364TIP3   OH231506   6.479   6.321   3.799 -0.2520 -0.1788  0.2757
 3364TIP3    H131507   6.458   6.410   3.771 -2.1390 -0.9750 -1.1431
 3364TIP3    H231508   6.426   6.307   3.878 -0.1344 -0.1178  0.3651
 3365TIP3   OH231509   0.379   0.774  15.664 -0.0229 -0.0952  0.2362
 3365TIP3    H131510   0.438   0.749  15.593 -1.1387 -1.4158 -0.2585
 3365TIP3    H231511   0.373   0.869  15.658  0.6528 -0.1089 -0.8234
 3366TIP3   OH231512   6.653   1.915  11.368  0.3481 -0.2162 -0.1421
 3366TIP3    H131513   6.683   1.848  11.305  0.7857 -1.3665  1.2398
 3366TIP3    H231514   6.714   1.988  11.355  0.7492 -0.6331 -0.7022
 3367TIP3   OH231515   1.472   0.213   4.085 -0.0510  0.0485 -0.1541
 3367TIP3    H131516   1.543   0.268   4.052 -1.5281  1.8686 -0.4569
 3367TIP3    H231517   1.395   0.270   4.083 -1.1934 -1.3353  1.7535
 3368TIP3   OH231518   2.681   6.550  15.824  0.3161  0.0771  0.6064
 3368TIP3    H131519   2.762   6.592  15.851 -0.2226  1.1188  0.6292
 3368TIP3    H231520   2.709   6.464  15.792  1.2610 -0.1594  1.9794
 3369TIP3   OH231521   2.505   2.406  14.465 -0.1312 -0.2390 -0.2767
 3369TIP3    H131522   2.434   2.430  14.525  0.3249  0.1302  0.1206
 3369TIP3    H231523   2.583   2.399  14.520  0.9297  2.9795 -1.1347
 3370TIP3   OH231524   0.882   5.261  13.739  0.3897 -0.0059  0.2516
 3370TIP3    H131525   0.810   5.322  13.755  2.3790  2.8695 -0.8448
 3370TIP3    H231526   0.944   5.279  13.810  0.7851 -1.2011  0.2267
 3371TIP3   OH231527   5.461   5.131   3.055  0.0347  0.3958  0.3080
 3371TIP3    H131528   5.546   5.127   3.011  0.4490  2.2368  0.8774
 3371TIP3    H231529   5.419   5.047   3.033  2.2510 -0.8734  0.5703
 3372TIP3   OH231530   6.726   3.416  12.054  0.2500  0.4286 -0.2667
 3372TIP3    H131531   6.633   3.433  12.072 -0.3914 -2.8293  0.1681
 3372TIP3    H231532   6.731   3.411  11.958  0.0928  1.0170 -0.3131
 3373TIP3   OH231533   6.248   3.688  14.804  0.5058 -0.7524  0.0273
 3373TIP3    H131534   6.251   3.733  14.888 -0.2929  0.1834 -0.4126
 3373TIP3    H231535   6.177   3.624  14.813 -1.4798  1.1867 -0.7311
 3374TIP3   OH231536   6.106   5.517  16.903 -0.0769 -0.2503 -0.1040
 3374TIP3    H131537   6.039   5.452  16.924 -0.1453 -0.3217 -0.5280
 3374TIP3    H231538   6.103   5.524  16.807 -0.8572  1.2069  0.0014
 3375TIP3   OH231539   3.629   5.049   4.655 -0.1331  0.2704 -0.2890
 3375TIP3    H131540   3.568   4.997   4.602  0.8000 -0.3025 -0.8442
 3375TIP3    H231541   3.648   5.126   4.601 -0.0628  0.2515 -0.2916
 3376TIP3   OH231542   5.131   2.967  12.720 -0.3241 -0.4362  0.1998
 3376TIP3    H131543   5.098   2.894  12.668 -0.2591  0.4195 -1.1019
 3376TIP3    H231544   5.058   2.990  12.778 -1.5382  0.4675 -1.5934
 3377TIP3   OH231545   3.060   6.142   3.212  0.6851  0.0345 -0.0051
 3377TIP3    H131546   3.103   6.060   3.188  0.8718  0.2409 -0.3830
 3377TIP3    H231547   3.130   6.197   3.247  0.3688 -0.3668  1.3178
 3378TIP3   OH231548   3.101   4.745   5.790  0.1521 -0.5836  0.4644
 3378TIP3    H131549   3.097   4.658   5.748 -1.2833 -0.6601  0.6942
 3378TIP3    H231550   3.024   4.747   5.847 -0.9014  1.5162 -0.8893
 3379TIP3   OH231551   1.401   0.842  11.995 -0.0308 -0.2236  0.1438
 3379TIP3    H131552   1.406   0.915  11.934 -1.3933 -0.8074 -0.7273
 3379TIP3    H231553   1.485   0.798  11.988  0.0314  0.0498 -0.9170
 3380TIP3   OH231554   4.663   2.152  13.127 -0.2195  0.4455 -0.3516
 3380TIP3    H131555   4.740   2.166  13.182 -0.1398  1.6166 -0.7242
 3380TIP3    H231556   4.641   2.060  13.139  0.9606  0.2038  0.1163
 3381TIP3   OH231557   0.513   1.878  16.707 -0.1356  0.2631  0.2290
 3381TIP3    H131558   0.543   1.872  16.798  1.1504  1.2391 -0.0985
 3381TIP3    H231559   0.434   1.932  16.711  1.7955  3.3227  0.4643
 3382TIP3   OH231560   1.275   5.205   4.145  0.4699  0.2620  0.0849
 3382TIP3    H131561   1.251   5.178   4.056 -0.5338  0.1810  0.3671
 3382TIP3    H231562   1.367   5.180   4.154 -0.0149 -1.7076 -0.1615
 3383TIP3   OH231563   4.972   0.794  16.431 -0.0973 -0.4466  0.0387
 3383TIP3    H131564   4.990   0.703  16.408  1.5893 -0.4218  0.9964
 3383TIP3    H231565   4.893   0.817  16.384  0.1384 -2.0339 -1.1943
 3384TIP3   OH231566   0.404   3.731  13.624  0.3408 -0.0748 -0.5787
 3384TIP3    H131567   0.428   3.647  13.663 -2.5029 -1.4827 -1.5711
 3384TIP3    H231568   0.446   3.730  13.538  2.0806  0.5472  0.2271
 3385TIP3   OH231569   4.909   6.601  11.939  0.4166  0.1231  0.0547
 3385TIP3    H131570   4.919   6.523  11.884  2.3434  0.0529  0.4390
 3385TIP3    H231571   4.814   6.614  11.945  0.0916 -1.4700 -1.0132
 3386TIP3   OH231572   1.322   5.837   4.579 -0.4063 -0.2657  0.1642
 3386TIP3    H131573   1.300   5.849   4.671  0.3631 -0.2375  0.3524
 3386TIP3    H231574   1.334   5.743   4.568  3.4868 -0.0574  1.0957
 3387TIP3   OH231575   0.392   1.431   0.367 -0.2317  0.0225  0.2161
 3387TIP3    H131576   0.389   1.467   0.279 -1.1954 -0.1123  0.1816
 3387TIP3    H231577   0.346   1.495   0.421  0.1565 -0.0033  0.5878
 3388TIP3   OH231578   5.347   1.793   1.900 -0.0975  0.0781 -0.3093
 3388TIP3    H131579   5.308   1.758   1.980  0.4047 -0.3409 -0.2443
 3388TIP3    H231580   5.370   1.715   1.849  0.5517  0.3170 -0.3897
 3389TIP3   OH231581   0.145   0.459   5.810  0.1263 -0.3691 -0.5357
 3389TIP3    H131582   0.155   0.431   5.901  2.4184  1.1419 -0.2200
 3389TIP3    H231583   0.198   0.397   5.760 -0.5932 -0.7982 -0.7831
 3390TIP3   OH231584   5.203   1.633   0.756 -0.3347 -0.3476 -0.1662
 3390TIP3    H131585   5.242   1.614   0.671 -1.7864  2.0561 -1.4715
 3390TIP3    H231586   5.147   1.557   0.773 -0.8482 -0.3981 -1.8886
 3391TIP3   OH231587   0.856   1.261  15.353  0.8452  0.1848  0.0480
 3391TIP3    H131588   0.883   1.244  15.263  1.5198  2.0331 -0.1376
 3391TIP3    H231589   0.927   1.227  15.407  1.9321  1.8027 -0.2886
 3392TIP3   OH231590   0.514   5.721  10.796  0.3054  0.2035 -0.4738
 3392TIP3    H131591   0.554   5.741  10.881  0.4251 -0.0072 -0.4796
 3392TIP3    H231592   0.521   5.802  10.746 -1.2288  0.8444  0.2799
 3393TIP3   OH231593   2.606   5.431  12.683  0.5223 -1.0203 -0.1667
 3393TIP3    H131594   2.609   5.437  12.778 -1.6112 -1.3586 -0.0405
 3393TIP3    H231595   2.685   5.477  12.653  0.9132 -0.4028  1.7255
 3394TIP3   OH231596   4.591   3.631  16.773 -0.0866 -0.4049 -0.4121
 3394TIP3    H131597   4.649   3.567  16.814  0.1869  0.3467  0.4018
 3394TIP3    H231598   4.636   3.715  16.785 -0.6676  0.0027 -1.0298
 3395TIP3   OH231599   2.715   0.745   0.783  0.0021  0.5871  0.5449
 3395TIP3    H131600   2.685   0.828   0.747 -1.9151 -0.2093  0.1518
 3395TIP3    H231601   2.719   0.686   0.707 -0.3280 -0.1120  1.0629
 3396TIP3   OH231602   0.443   4.537   3.113  0.1266  0.0171  0.7593
 3396TIP3    H131603   0.452   4.487   3.032  0.7111  1.9837 -0.4756
 3396TIP3    H231604   0.357   4.514   3.147 -0.0114 -1.0559 -0.2842
 3397TIP3   OH231605   2.869   4.291   4.664  0.0819 -0.0698  0.1911
 3397TIP3    H131606   2.916   4.323   4.741 -2.0378 -0.8133  1.9025
 3397TIP3    H231607   2.790   4.345   4.660  1.8491  2.7190 -3.9433
 3398TIP3   OH231608   4.860   3.502  12.810  0.0650 -0.4933 -0.0715
 3398TIP3    H131609   4.882   3.495  12.717  0.6376 -0.4562  0.0568
 3398TIP3    H231610   4.903   3.426  12.850  0.1128 -0.3135  0.2163
 3399TIP3   OH231611   4.779   1.502  12.720 -0.6230  0.1468  0.7122
 3399TIP3    H131612   4.692   1.492  12.758 -0.0685  0.4477  2.1303
 3399TIP3    H231613   4.836   1.519  12.795  1.0556 -2.2299  0.0870
 3400TIP3   OH231614   6.016   4.891  17.019  0.0212  0.1425  0.3380
 3400TIP3    H131615   6.096   4.937  17.046 -0.5944  0.9380  0.8646
 3400TIP3    H231616   5.995   4.835  17.094  0.2670 -0.3374  0.0575
 3401TIP3   OH231617   2.312   1.056   6.021  0.5140 -0.2592 -0.2154
 3401TIP3    H131618   2.401   1.054   6.056  0.8305 -0.7550 -1.0006
 3401TIP3    H231619   2.278   0.968   6.038  0.1758 -0.0712  0.0814
 3402TIP3   OH231620   6.442   3.045   4.241  0.0683 -0.0752  0.0065
 3402TIP3    H131621   6.463   3.090   4.323  1.5216  0.4543 -0.6232
 3402TIP3    H231622   6.465   2.954   4.257 -3.0007 -0.7584  1.3296
 3403TIP3   OH231623   6.160   5.797  11.430 -0.4385 -0.2277  0.3800
 3403TIP3    H131624   6.068   5.773  11.418 -0.0736 -1.1693 -0.6716
 3403TIP3    H231625   6.171   5.878  11.379 -0.5792 -0.3684  0.1265
 3404TIP3   OH231626   3.396   3.154  13.689  0.3645 -0.4503 -0.5798
 3404TIP3    H131627   3.436   3.070  13.712 -0.9257 -1.0103 -0.2776
 3404TIP3    H231628   3.429   3.174  13.602  0.4277 -1.4464 -0.7940
 3405TIP3   OH231629   3.828   6.298  14.044 -0.5131 -0.7272  0.2618
 3405TIP3    H131630   3.906   6.337  14.003  0.3478 -0.4253  2.1014
 3405TIP3    H231631   3.755   6.337  13.996  0.4279 -1.2422 -1.7157
 3406TIP3   OH231632   1.947   5.878  14.771  0.0046  1.1839  0.3790
 3406TIP3    H131633   1.976   5.944  14.708  0.2952  0.1109 -0.6353
 3406TIP3    H231634   1.861   5.850  14.739 -0.2830  1.3250  1.0142
 3407TIP3   OH231635   4.475   6.032  15.257  0.2162 -0.2214 -0.5154
 3407TIP3    H131636   4.385   6.010  15.282 -0.0447 -0.2002 -1.3926
 3407TIP3    H231637   4.484   6.125  15.279 -0.2162 -0.0433 -1.0491
 3408TIP3   OH231638   5.881   3.425  16.148 -0.3483  0.0108  0.4093
 3408TIP3    H131639   5.891   3.502  16.203 -0.2860  0.7132 -0.5647
 3408TIP3    H231640   5.960   3.424  16.094  0.0267 -1.1788  0.9306
 3409TIP3   OH231641   0.037   4.120   2.767  0.1522  0.1322 -0.5558
 3409TIP3    H131642   0.085   4.099   2.847  1.0454  1.8747 -0.5810
 3409TIP3    H231643   0.067   4.055   2.703 -1.6882 -2.2364  0.8418
 3410TIP3   OH231644   5.872   3.548   5.844 -0.7880 -0.1132  0.2586
 3410TIP3    H131645   5.963   3.558   5.816 -0.5393 -1.3747  0.5608
 3410TIP3    H231646   5.850   3.631   5.886  0.4587 -0.0487  0.8153
 3411TIP3   OH231647   0.584   0.026  11.741 -0.3401  0.1618 -0.7032
 3411TIP3    H131648   0.543   0.102  11.700  0.4748  0.4080 -1.0775
 3411TIP3    H231649   0.576   0.042  11.835 -0.3602  0.6079 -0.7801
 3412TIP3   OH231650   2.226   3.236  12.462 -0.3549 -0.2126  0.7579
 3412TIP3    H131651   2.280   3.313  12.482  0.8158 -0.9312  0.4726
 3412TIP3    H231652   2.197   3.250  12.372 -1.2939  0.5310  1.1550
 3413TIP3   OH231653   6.708   3.149   4.600 -0.1339  0.0125 -0.5636
 3413TIP3    H131654   6.714   3.214   4.670  0.2010  1.1401 -1.5933
 3413TIP3    H231655   6.683   3.068   4.644  0.8206  0.5024  0.9507
 3414TIP3   OH231656   6.158   1.595  16.640 -0.5061 -0.5750  0.1037
 3414TIP3    H131657   6.157   1.506  16.605 -1.2746 -0.1435 -1.0161
 3414TIP3    H231658   6.232   1.637  16.597 -1.6406  0.0505 -1.3123
 3415TIP3   OH231659   4.894   4.347  15.306  0.2471  0.0847  0.1082
 3415TIP3    H131660   4.986   4.361  15.327  0.3151 -0.2696  0.0523
 3415TIP3    H231661   4.884   4.383  15.218  0.9547 -2.1642 -0.9795
 3416TIP3   OH231662   4.306   5.058  15.076  0.5318  0.0578 -0.2934
 3416TIP3    H131663   4.214   5.032  15.083  0.7658 -0.6852  0.1165
 3416TIP3    H231664   4.314   5.091  14.986 -0.1125  0.0285 -0.3672
 3417TIP3   OH231665   4.083   0.443   1.220 -0.2980  0.6462  0.1277
 3417TIP3    H131666   4.117   0.531   1.238  0.2291  0.8782 -1.7709
 3417TIP3    H231667   3.989   0.450   1.236 -0.1958  1.4369  0.4487
 3418TIP3   OH231668   6.250   0.886  15.308  0.3288  1.2298 -0.3391
 3418TIP3    H131669   6.254   0.979  15.286  3.0245  1.0005 -1.0960
 3418TIP3    H231670   6.318   0.846  15.255 -0.8728 -1.2411 -0.1361
 3419TIP3   OH231671   0.684   2.755   0.424 -0.2789  0.0484 -0.2447
 3419TIP3    H131672   0.592   2.779   0.421 -0.1686  0.3955 -2.0576
 3419TIP3    H231673   0.729   2.833   0.457 -0.2228  1.5309 -3.4468
 3420TIP3   OH231674   1.710   3.143  16.141 -0.0359 -0.4149 -0.8852
 3420TIP3    H131675   1.725   3.136  16.235  0.3279  1.7593 -0.7219
 3420TIP3    H231676   1.791   3.111  16.101  0.3169 -0.1333 -0.4029
 3421TIP3   OH231677   1.750   1.027   5.426 -0.4957  0.2449 -0.3187
 3421TIP3    H131678   1.685   1.078   5.378 -1.8444  0.8554  1.9784
 3421TIP3    H231679   1.791   1.091   5.485  0.4558 -0.6200 -0.0089
 3422TIP3   OH231680   3.676   2.199  14.235 -0.1001  0.2578 -0.0582
 3422TIP3    H131681   3.580   2.205  14.241 -0.3000  0.7538 -2.5817
 3422TIP3    H231682   3.699   2.124  14.290 -2.0950 -0.6965 -0.4321
 3423TIP3   OH231683   2.174   4.077   1.918 -0.3401 -0.3813 -0.2044
 3423TIP3    H131684   2.104   4.015   1.936 -0.7085 -0.7091 -2.5391
 3423TIP3    H231685   2.179   4.131   1.997 -2.7391 -0.8093  0.3008
 3424TIP3   OH231686   3.941   2.006   3.170 -0.0113 -0.3473 -0.5088
 3424TIP3    H131687   3.942   2.011   3.265 -1.6915 -0.4183 -0.4695
 3424TIP3    H231688   4.025   1.965   3.147  0.0673 -1.0735  0.9809
 3425TIP3   OH231689   3.958   5.421   2.674 -0.0423 -0.2480  0.1278
 3425TIP3    H131690   3.966   5.405   2.768  2.3134 -0.4453 -0.0428
 3425TIP3    H231691   3.978   5.514   2.665 -0.1378 -0.2608 -0.2022
 3426TIP3   OH231692   0.550   3.319   0.636  0.6625 -0.0320  0.3147
 3426TIP3    H131693   0.543   3.361   0.550  2.1190 -1.0766 -0.3434
 3426TIP3    H231694   0.459   3.314   0.666  0.2291  1.4157 -0.6220
 3427TIP3   OH231695   2.032   6.369   0.002  0.0875 -0.1348  0.1361
 3427TIP3    H131696   1.964   6.330   0.056 -0.7228 -1.8586 -1.9481
 3427TIP3    H231697   2.010   6.462  -0.002 -2.0236 -0.5875 -0.2160
 3428TIP3   OH231698   1.884   4.277   3.859 -0.3833  0.2200 -0.2736
 3428TIP3    H131699   1.973   4.252   3.834 -0.8189 -0.1181 -1.5900
 3428TIP3    H231700   1.842   4.303   3.777 -2.2407 -1.9655 -0.1141
 3429TIP3   OH231701   2.639   4.974   1.016 -0.1138  0.5194  0.0185
 3429TIP3    H131702   2.691   4.920   0.957  0.4205  0.3429  0.6428
 3429TIP3    H231703   2.573   4.915   1.051 -1.7914  1.0885 -1.9652
 3430TIP3   OH231704   2.859   6.213  13.145  0.0076  0.2582 -0.0499
 3430TIP3    H131705   2.941   6.201  13.194 -0.1976  0.5174  0.3655
 3430TIP3    H231706   2.792   6.174  13.201  0.0332 -1.3238 -1.0752
 3431TIP3   OH231707   6.556   5.838  14.058  0.2025  0.0994  0.1973
 3431TIP3    H131708   6.651   5.828  14.055  0.2605 -1.3465  3.2239
 3431TIP3    H231709   6.541   5.908  14.121 -0.7741  0.6757 -0.6414
 3432TIP3   OH231710   4.976   1.365   0.171  0.1959  0.0494 -0.7185
 3432TIP3    H131711   4.886   1.398   0.173 -0.0944 -0.7450  0.1689
 3432TIP3    H231712   4.994   1.339   0.261  1.0951 -0.3889 -1.0104
 3433TIP3   OH231713   2.129   6.590  10.974  0.1718 -0.4189  0.0256
 3433TIP3    H131714   2.070   6.537  11.028  1.0776 -0.2590  1.2110
 3433TIP3    H231715   2.127   6.548  10.888  1.2401 -2.7133  1.0408
 3434TIP3   OH231716   4.084   2.855   3.446 -0.2724  0.1647 -0.0243
 3434TIP3    H131717   4.036   2.865   3.529 -1.6224  1.4588 -0.9078
 3434TIP3    H231718   4.162   2.910   3.457 -1.1383  1.4552 -0.0683
 3435TIP3   OH231719   2.907   6.127  16.153  0.0214  0.0669 -0.1838
 3435TIP3    H131720   2.852   6.053  16.179  0.2686 -0.0931 -0.1131
 3435TIP3    H231721   2.963   6.142  16.229  1.3282 -0.9379 -0.9058
 3436TIP3   OH231722   4.734   5.239  10.738  0.0927 -0.5307 -0.1489
 3436TIP3    H131723   4.824   5.219  10.715  0.2797  2.0656 -2.0826
 3436TIP3    H231724   4.681   5.191  10.673  0.0561 -1.6608  0.6854
 3437TIP3   OH231725   3.714   1.535   6.001  0.3163 -0.5390 -0.0554
 3437TIP3    H131726   3.657   1.545   6.077  0.1975  0.7855 -0.2838
 3437TIP3    H231727   3.781   1.602   6.012  0.3737 -0.4110 -1.0443
 3438TIP3   OH231728   1.606   1.563   1.854 -0.3368 -0.3963  0.4743
 3438TIP3    H131729   1.572   1.638   1.903 -0.8514 -0.7515  0.6654
 3438TIP3    H231730   1.633   1.600   1.770  0.5886  0.2216  1.0247
 3439TIP3   OH231731   4.729   4.129   4.872  0.2196 -0.2212 -0.3071
 3439TIP3    H131732   4.679   4.191   4.819 -1.1869 -0.5951  0.5304
 3439TIP3    H231733   4.746   4.056   4.813 -2.5123 -1.2464  0.0311
 3440TIP3   OH231734   5.334   1.426   5.901 -0.1334 -0.0318 -0.0006
 3440TIP3    H131735   5.328   1.431   5.996  1.8744 -2.0696  0.3019
 3440TIP3    H231736   5.258   1.374   5.875 -1.9045  2.2842  0.1695
 3441TIP3   OH231737   2.037   2.226  14.584  0.3698 -0.2895 -0.8950
 3441TIP3    H131738   2.035   2.161  14.515 -0.2015 -0.3080 -0.8618
 3441TIP3    H231739   2.110   2.199  14.640 -0.3545 -1.3606 -0.4385
 3442TIP3   OH231740   1.769   0.580   3.510 -0.1654 -0.6443  0.7771
 3442TIP3    H131741   1.784   0.486   3.516  0.1369 -0.6295  0.3203
 3442TIP3    H231742   1.678   0.588   3.481  0.8970 -0.9332 -3.1682
 3443TIP3   OH231743   4.251   4.115  12.405 -0.3657  0.4318  0.9607
 3443TIP3    H131744   4.196   4.142  12.332 -0.2961  1.2006  1.1920
 3443TIP3    H231745   4.197   4.052  12.454 -0.4449 -0.0209  0.3064
 3444TIP3   OH231746   6.730   0.542  11.291 -0.0347 -0.4128 -0.2822
 3444TIP3    H131747   6.706   0.627  11.254 -0.3487  0.6980  2.2372
 3444TIP3    H231748   6.820   0.527  11.262 -0.4919 -0.0078 -2.0189
 3445TIP3   OH231749   1.986   5.456   6.577  0.0695  0.2721  0.3076
 3445TIP3    H131750   2.057   5.520   6.575 -1.5198  2.2265  1.7779
 3445TIP3    H231751   1.908   5.506   6.551 -1.1405 -1.2225  0.9001
 3446TIP3   OH231752   5.139   5.096  13.295  0.0590 -0.0762 -0.1636
 3446TIP3    H131753   5.163   5.136  13.211 -1.4587 -0.0115 -0.5999
 3446TIP3    H231754   5.194   5.140  13.359 -0.3842  1.5384 -0.8433
 3447TIP3   OH231755   1.804   4.252   2.396 -0.1690  0.2510 -0.1244
 3447TIP3    H131756   1.860   4.251   2.319  1.3091 -0.4206  0.9078
 3447TIP3    H231757   1.733   4.191   2.375  0.2583  0.0114 -0.9207
 3448TIP3   OH231758   2.024   6.037   5.508  0.2547  0.4556  0.7415
 3448TIP3    H131759   1.997   5.950   5.479  1.0013  1.0276 -1.9110
 3448TIP3    H231760   1.943   6.086   5.517 -0.0089  0.4525 -1.2487
 3449TIP3   OH231761   0.162   4.505   0.212 -0.4285 -0.0974 -0.4204
 3449TIP3    H131762   0.227   4.528   0.146 -2.0336  1.1868 -1.6569
 3449TIP3    H231763   0.141   4.413   0.193  0.3056 -0.2264 -0.6406
 3450TIP3   OH231764   3.586   1.121   3.306  0.4825  0.3983  0.7184
 3450TIP3    H131765   3.568   1.050   3.244  0.4602  0.9645  0.0630
 3450TIP3    H231766   3.527   1.103   3.380  1.5714 -1.1239  1.2759
 3451TIP3   OH231767   1.129   1.403  13.479  0.0347  0.3524 -0.2002
 3451TIP3    H131768   1.204   1.355  13.442  0.4151 -0.2557  1.3097
 3451TIP3    H231769   1.165   1.448  13.556 -1.0546  0.4287  0.2773
 3452TIP3   OH231770   2.589   1.230   0.616  0.0616  0.9399  0.4980
 3452TIP3    H131771   2.663   1.252   0.672  0.2184  0.0144  0.6738
 3452TIP3    H231772   2.518   1.212   0.677  0.5485 -1.2351  0.4917
 3453TIP3   OH231773   0.572   0.362  16.046 -0.2530  0.3849  0.6661
 3453TIP3    H131774   0.622   0.288  16.080  1.5157  1.2780  0.1578
 3453TIP3    H231775   0.551   0.338  15.956  2.1765  1.2686 -0.2263
 3454TIP3   OH231776   4.799   5.962   6.016 -0.1493  0.1254  0.3360
 3454TIP3    H131777   4.862   6.034   6.021  0.3722 -0.3384  0.5683
 3454TIP3    H231778   4.769   5.950   6.106 -2.2250  1.7608 -0.0617
 3455TIP3   OH231779   0.785   0.303  14.964  0.3341 -0.0728  0.2533
 3455TIP3    H131780   0.842   0.278  15.036  1.9125  1.8123 -0.2536
 3455TIP3    H231781   0.784   0.227  14.906  0.7509 -0.8242  1.2072
 3456TIP3   OH231782   6.136   4.552   1.108  0.9003  0.2690  0.3449
 3456TIP3    H131783   6.147   4.543   1.013 -0.2859  0.5691  0.1598
 3456TIP3    H231784   6.048   4.519   1.125  0.4501  1.7742  1.1011
 3457TIP3   OH231785   1.016   6.429   5.912 -0.1768  0.2540  0.3784
 3457TIP3    H131786   1.021   6.365   5.841 -2.4925 -0.4587  0.7898
 3457TIP3    H231787   1.102   6.472   5.911  1.3759 -2.6241 -0.0992
 3458TIP3   OH231788   4.583   2.365  15.365  1.1190  0.0379 -0.2298
 3458TIP3    H131789   4.498   2.400  15.392  0.7497 -0.5558 -0.6065
 3458TIP3    H231790   4.634   2.442  15.339  0.5171  0.3479 -0.5068
 3459TIP3   OH231791   4.224   2.661  17.020  0.2826 -0.8918  0.8281
 3459TIP3    H131792   4.317   2.675  17.037  0.3158  0.1525 -0.0678
 3459TIP3    H231793   4.220   2.627  16.931 -0.2669  1.0694  0.0378
 3460TIP3   OH231794   6.634   4.938   5.187 -0.1683  0.1914 -0.2897
 3460TIP3    H131795   6.703   4.903   5.243 -0.3860 -1.1604 -0.8213
 3460TIP3    H231796   6.615   5.024   5.223  0.5658 -0.1327  0.9386
 3461TIP3   OH231797   2.669   0.462   3.219 -0.4117  0.2696 -0.1551
 3461TIP3    H131798   2.639   0.440   3.131  0.0203 -0.1933 -0.1882
 3461TIP3    H231799   2.738   0.527   3.206 -2.8024  3.0874 -0.0023
 3462TIP3   OH231800   3.747   6.345  11.230 -0.1557  0.6367 -0.0603
 3462TIP3    H131801   3.757   6.254  11.202 -1.1900 -0.0333  1.5757
 3462TIP3    H231802   3.832   6.368  11.268 -0.1258  0.0574  0.2468
 3463TIP3   OH231803   4.171   4.476  17.160  0.4418 -0.1396 -0.0808
 3463TIP3    H131804   4.161   4.569  17.138  0.6564 -0.5868 -2.4141
 3463TIP3    H231805   4.248   4.473  17.215  1.1357  0.9876 -0.9314
 3464TIP3   OH231806   5.281   3.130   5.682  0.0257  0.5661 -0.0678
 3464TIP3    H131807   5.242   3.150   5.597 -0.2213 -0.1588 -0.1389
 3464TIP3    H231808   5.229   3.056   5.715  0.8719  0.0645  0.1743
 3465TIP3   OH231809   1.640   6.694  12.982 -0.3460 -0.2652 -0.0334
 3465TIP3    H131810   1.618   6.654  13.066  1.4241  1.4703  1.3711
 3465TIP3    H231811   1.603   6.635  12.916 -2.3460 -1.3553  1.9437
 3466TIP3   OH231812   1.287   5.091  15.910 -0.2290 -0.0190 -0.5539
 3466TIP3    H131813   1.370   5.043  15.901 -0.6506 -0.9876  0.5400
 3466TIP3    H231814   1.225   5.027  15.944 -1.2643  0.8816 -0.6774
 3467TIP3   OH231815   0.506   5.852   5.902 -0.0584 -0.3905  0.5024
 3467TIP3    H131816   0.562   5.851   5.824 -1.5821  1.6158 -0.7381
 3467TIP3    H231817   0.557   5.900   5.967  0.2392  0.1961 -0.1422
 3468TIP3   OH231818   5.709   5.286  15.430 -0.1066  0.0495 -0.4250
 3468TIP3    H131819   5.636   5.296  15.370  0.6187  0.2742 -1.2909
 3468TIP3    H231820   5.781   5.333  15.388 -0.0861  1.9287  1.5357
 3469TIP3   OH231821   1.289   5.245  12.146 -0.4127 -0.2369 -0.4363
 3469TIP3    H131822   1.374   5.279  12.118 -0.1834  0.9714  1.5192
 3469TIP3    H231823   1.250   5.210  12.066  0.2857  2.6831 -2.2170
 3470TIP3   OH231824   2.394   4.327   1.468  0.8902  0.1305 -0.3372
 3470TIP3    H131825   2.390   4.387   1.394  0.6685 -0.1828 -0.5821
 3470TIP3    H231826   2.341   4.251   1.441 -1.9384  1.3332  1.3674
 3471TIP3   OH231827   5.675   1.948  13.731  0.3696 -0.4191 -0.5090
 3471TIP3    H131828   5.752   1.996  13.699  1.1114 -1.2467  0.0033
 3471TIP3    H231829   5.706   1.901  13.808 -0.9602  0.1485  0.4043
 3472TIP3   OH231830   1.808   5.185   0.793 -0.7724 -0.0378  0.2129
 3472TIP3    H131831   1.844   5.195   0.705 -0.3091  1.2705  0.5208
 3472TIP3    H231832   1.742   5.254   0.799  0.0345  0.6769  1.2822
 3473TIP3   OH231833   6.560   1.108   6.132  0.3311 -0.5216  0.0425
 3473TIP3    H131834   6.585   1.200   6.130 -1.2478  0.0076  1.7691
 3473TIP3    H231835   6.623   1.066   6.191 -0.1428 -0.1166  0.8484
 3474TIP3   OH231836   4.937   3.693  14.178  0.2141 -0.3605 -0.3112
 3474TIP3    H131837   4.932   3.663  14.087 -1.2936 -0.5013 -0.2197
 3474TIP3    H231838   4.846   3.710  14.202  0.6576  0.3614  0.9552
 3475TIP3   OH231839   3.989   2.958   5.077  0.1704 -0.2681  0.0550
 3475TIP3    H131840   4.026   3.021   5.014 -0.4140  0.3026  0.2676
 3475TIP3    H231841   3.898   2.947   5.048  0.8030 -2.7081 -1.2928
 3476TIP3   OH231842   2.963   2.502  13.043  0.0081  0.4718  0.0854
 3476TIP3    H131843   2.907   2.578  13.024 -0.6415  0.1595  0.7150
 3476TIP3    H231844   2.902   2.429  13.052  0.6500 -0.1898 -0.7580
 3477TIP3   OH231845   6.492   3.890   4.940 -0.0488 -0.7079 -0.0801
 3477TIP3    H131846   6.415   3.937   4.907  1.1526  1.5109  0.1090
 3477TIP3    H231847   6.565   3.924   4.889  1.1345 -0.9750  1.3504
 3478TIP3   OH231848   6.049   1.424   0.591  0.5845 -0.7911  0.1541
 3478TIP3    H131849   6.012   1.416   0.503  1.0058  0.1835 -0.1178
 3478TIP3    H231850   6.098   1.505   0.589  0.4382 -0.6592  1.3596
 3479TIP3   OH231851   0.294   3.544  15.679 -0.5379 -0.4363 -0.0859
 3479TIP3    H131852   0.225   3.546  15.613  1.6137  0.0712 -2.4935
 3479TIP3    H231853   0.318   3.452  15.686  0.3175 -0.3242 -1.2955
 3480TIP3   OH231854   0.016   0.657   4.686  0.4286 -0.1322  0.7119
 3480TIP3    H131855   0.096   0.647   4.634  0.1038 -0.4177  0.2609
 3480TIP3    H231856  -0.031   0.729   4.645  1.1012  0.9602  1.8229
 3481TIP3   OH231857   4.370   3.995   0.320  0.2422 -0.4414 -0.4092
 3481TIP3    H131858   4.298   4.059   0.328  1.3890  0.6275  2.9142
 3481TIP3    H231859   4.448   4.049   0.309  1.1062 -1.2767  1.3067
 3482TIP3   OH231860   0.011   0.633   1.048  0.3285  0.3960  0.0262
 3482TIP3    H131861  -0.035   0.581   1.114  1.0441  0.0777  0.2816
 3482TIP3    H231862  -0.056   0.691   1.012 -0.0710  0.5650  1.0275
 3483TIP3   OH231863   0.985   2.959  14.245  0.2689  0.0651 -0.1652
 3483TIP3    H131864   1.068   3.001  14.223 -0.0862 -0.2388 -2.3042
 3483TIP3    H231865   0.920   3.030  14.236 -0.0922 -0.4242 -1.9666
 3484TIP3   OH231866   0.244   3.788   6.027 -0.2837 -0.1508  0.2857
 3484TIP3    H131867   0.149   3.794   6.021 -0.3862 -1.5293  0.2471
 3484TIP3    H231868   0.261   3.696   6.046  1.0872 -0.0917 -0.5334
 3485TIP3   OH231869   5.819   4.589  15.066 -0.0952  0.3091 -0.5030
 3485TIP3    H131870   5.770   4.667  15.041 -0.2910  0.2954 -0.1661
 3485TIP3    H231871   5.787   4.520  15.008  0.2915  0.5450 -1.0033
 3486TIP3   OH231872   0.433   1.241   4.875 -0.1343 -0.6624  0.5302
 3486TIP3    H131873   0.487   1.290   4.937  0.4685 -0.3999 -0.1795
 3486TIP3    H231874   0.421   1.155   4.916  0.4152 -0.5593  0.9212
 3487TIP3   OH231875   5.659   3.081  11.400 -0.4900  0.3444 -0.6095
 3487TIP3    H131876   5.714   3.154  11.430 -2.2635  1.1452  0.8679
 3487TIP3    H231877   5.609   3.118  11.327  0.4084 -0.1933 -1.5272
 3488TIP3   OH231878   1.486   3.729   2.394  0.3387  0.1710  0.2534
 3488TIP3    H131879   1.488   3.633   2.397  3.6326 -0.0323 -2.4219
 3488TIP3    H231880   1.546   3.756   2.463 -0.6990  0.3570  1.1015
 3489TIP3   OH231881   5.883   1.481  11.783  0.1322 -0.6868  0.2101
 3489TIP3    H131882   5.891   1.576  11.793  0.7909 -0.6579 -0.4271
 3489TIP3    H231883   5.914   1.445  11.866 -0.4272 -0.3399  0.5728
 3490TIP3   OH231884   1.616   6.566  16.759 -0.5342 -0.3986  0.0586
 3490TIP3    H131885   1.602   6.499  16.827  1.2777 -0.6545  0.2441
 3490TIP3    H231886   1.549   6.548  16.693 -0.5010 -2.0128  0.4116
 3491TIP3   OH231887   5.234   2.419   0.307 -0.8856 -0.3247  0.3410
 3491TIP3    H131888   5.255   2.326   0.297  2.2640  0.1949  1.1431
 3491TIP3    H231889   5.248   2.456   0.220 -0.5256 -0.3264  0.3982
 3492TIP3   OH231890   2.552   1.088  16.325  0.4677  0.1729 -0.2083
 3492TIP3    H131891   2.527   1.144  16.398 -2.0462  0.0071 -0.8230
 3492TIP3    H231892   2.560   1.000  16.363 -0.5804  0.1321 -0.0449
 3493TIP3   OH231893   5.635   0.237   3.741 -0.0820  0.2875  0.5424
 3493TIP3    H131894   5.718   0.223   3.696 -0.5759  0.6045 -0.5218
 3493TIP3    H231895   5.634   0.173   3.811  0.6695 -0.3258  0.0082
 3494TIP3   OH231896   4.829   3.457   5.861  0.4366 -0.5802 -0.2086
 3494TIP3    H131897   4.892   3.386   5.874  1.0318 -0.2055 -0.9675
 3494TIP3    H231898   4.883   3.537   5.861  0.1808 -0.3568 -2.3280
 3495TIP3   OH231899   5.827   5.693   1.251 -0.1678 -0.0781  0.3047
 3495TIP3    H131900   5.775   5.766   1.288 -1.2901 -2.0781  3.0582
 3495TIP3    H231901   5.762   5.625   1.232  1.0047 -0.9116 -0.8441
 3496TIP3   OH231902   1.086   2.943   2.714  0.0214 -0.0727  0.2434
 3496TIP3    H131903   1.055   2.855   2.695  0.9605 -0.2201 -0.7106
 3496TIP3    H231904   1.051   2.997   2.643 -0.6366  0.3595  0.8787
 3497TIP3   OH231905   6.003   1.582  16.334  0.3052  0.4780 -0.5545
 3497TIP3    H131906   6.085   1.575  16.286  0.3761  0.5214 -0.4395
 3497TIP3    H231907   6.005   1.669  16.372  0.7303  0.0634  0.3985
 3498TIP3   OH231908   1.115   2.676   3.386  0.0915  0.7507  0.1386
 3498TIP3    H131909   1.029   2.671   3.345 -0.6040  2.0049  1.3964
 3498TIP3    H231910   1.134   2.586   3.413 -1.2097  0.6203  0.6381
 3499TIP3   OH231911   0.301   6.097  17.192  0.3130 -0.2209 -0.1274
 3499TIP3    H131912   0.227   6.083  17.133 -0.0916  0.9287  0.0766
 3499TIP3    H231913   0.287   6.035  17.263  0.0943 -0.7018 -0.5840
 3500TIP3   OH231914   2.985   0.781   6.541 -0.2611 -0.1980 -0.3316
 3500TIP3    H131915   2.910   0.722   6.552 -0.3162  0.1678  1.7394
 3500TIP3    H231916   3.057   0.736   6.585  0.6592 -0.3699 -1.9651
 3501TIP3   OH231917   0.080   2.912   2.923  0.3397 -0.3795  0.3351
 3501TIP3    H131918   0.116   2.999   2.906  1.3680 -0.7119  0.7030
 3501TIP3    H231919   0.011   2.927   2.987  0.1518  0.2234  0.0046
 3502TIP3   OH231920   0.574   0.634  15.512  0.0376  0.6817  0.0466
 3502TIP3    H131921   0.552   0.576  15.584 -0.2526 -0.6373 -1.0583
 3502TIP3    H231922   0.658   0.672  15.537 -0.1095  0.3432  1.1182
 3503TIP3   OH231923   1.580   2.590   4.053 -0.1128  0.4043  0.2804
 3503TIP3    H131924   1.545   2.509   4.089  0.6519  0.2313  0.6477
 3503TIP3    H231925   1.671   2.569   4.030  0.5396  1.5142  1.6768
 3504TIP3   OH231926   4.129   3.548  12.793  0.3116  0.3568 -0.5713
 3504TIP3    H131927   4.205   3.557  12.851  0.5412 -0.0924 -0.7944
 3504TIP3    H231928   4.089   3.635  12.792 -0.1938  0.1718  0.9402
 3505TIP3   OH231929   6.054   2.764   3.137 -0.4918 -0.9334 -0.0956
 3505TIP3    H131930   5.972   2.765   3.087 -0.3350 -2.2687 -0.4408
 3505TIP3    H231931   6.073   2.856   3.155 -0.8473 -0.4322 -2.0168
 3506TIP3   OH231932   6.615   1.027   0.791 -0.4398  0.2856  0.2865
 3506TIP3    H131933   6.602   1.019   0.697  0.0576  0.5713  0.1902
 3506TIP3    H231934   6.652   1.115   0.803  0.3171 -0.0671  0.6520
 3507TIP3   OH231935   1.876   4.503   4.072 -0.0234 -0.0125  0.1248
 3507TIP3    H131936   1.915   4.433   4.019  1.9127  1.7035 -0.8186
 3507TIP3    H231937   1.814   4.546   4.013  0.7501  0.7069 -0.1885
 3508TIP3   OH231938   3.724   2.764  15.079 -0.0180  0.0185 -0.1487
 3508TIP3    H131939   3.694   2.716  15.003  0.4860  0.4545 -0.6302
 3508TIP3    H231940   3.645   2.800  15.119 -0.2388  0.1608 -0.7192
 3509TIP3   OH231941   4.696   3.336  16.229  0.1522  0.0231  0.2122
 3509TIP3    H131942   4.607   3.310  16.250  0.0369 -0.4991 -0.8450
 3509TIP3    H231943   4.688   3.425  16.196  0.2531  0.5963  1.6380
 3510TIP3   OH231944   1.661   6.035   1.807 -0.2634 -0.1493 -0.3688
 3510TIP3    H131945   1.675   6.096   1.733 -1.0960  1.1244  0.4884
 3510TIP3    H231946   1.567   6.021   1.809 -0.0602 -1.6557 -0.6670
 3511TIP3   OH231947   1.563   5.714   5.326  0.9124  0.3156 -0.1345
 3511TIP3    H131948   1.533   5.698   5.416  1.9313 -0.4981  0.0811
 3511TIP3    H231949   1.549   5.631   5.281  0.2864  0.7574 -0.7829
 3512TIP3   OH231950   5.546   0.268  12.866  0.3478  0.1564 -0.3733
 3512TIP3    H131951   5.592   0.349  12.889 -1.8868  1.0648  1.3426
 3512TIP3    H231952   5.473   0.297  12.812 -0.3687 -0.7346  0.0935
 3513TIP3   OH231953   1.129   3.768   3.062  0.5138 -0.2448  0.0707
 3513TIP3    H131954   1.201   3.744   3.120  0.1989 -0.8945  0.2066
 3513TIP3    H231955   1.115   3.690   3.009  1.0186  0.4558 -1.1232
 3514TIP3   OH231956   2.926   1.990  10.861  0.7693 -0.4184  0.4396
 3514TIP3    H131957   2.953   2.017  10.773  0.4231 -0.5158  0.2999
 3514TIP3    H231958   3.008   1.978  10.909  0.9826 -0.9084 -0.0322
 3515TIP3   OH231959   4.189   0.285  11.498 -0.2924 -0.4342  0.4982
 3515TIP3    H131960   4.223   0.197  11.511 -0.4422 -0.8984 -1.8112
 3515TIP3    H231961   4.231   0.315  11.417 -0.8250  1.3244  0.8247
 3516TIP3   OH231962   0.360   0.562   1.738 -0.0600 -0.5157  0.4377
 3516TIP3    H131963   0.432   0.515   1.696  0.4605 -0.8333  1.6322
 3516TIP3    H231964   0.334   0.628   1.674  2.2431  0.5651  0.4801
 3517TIP3   OH231965   5.362   2.024  11.763  0.1961  0.2887  0.0898
 3517TIP3    H131966   5.436   2.076  11.733  0.0124  1.2714  1.2389
 3517TIP3    H231967   5.316   1.998  11.683  1.4584  0.1235 -0.6025
 3518TIP3   OH231968   2.738   6.524   1.701 -0.0569  0.2780 -0.1390
 3518TIP3    H131969   2.827   6.528   1.668 -0.9149 -2.7120 -3.4976
 3518TIP3    H231970   2.689   6.587   1.649 -0.2839  0.2840  0.0774
 3519TIP3   OH231971   3.689   3.688   5.414  1.0434  0.3603  0.0096
 3519TIP3    H131972   3.626   3.758   5.434  1.4567  1.1268 -1.2662
 3519TIP3    H231973   3.683   3.629   5.489 -0.1439  1.1682  0.5917
 3520TIP3   OH231974   2.618   2.014   1.320  0.0583 -0.0365 -0.8953
 3520TIP3    H131975   2.676   2.090   1.327  0.0819 -0.0327 -1.1236
 3520TIP3    H231976   2.593   1.994   1.410 -0.6592  0.7980 -0.8983
 3521TIP3   OH231977   2.364   6.374   4.118 -0.5927  0.5025  0.1854
 3521TIP3    H131978   2.376   6.469   4.118 -1.1057  0.5925 -1.1788
 3521TIP3    H231979   2.383   6.348   4.028  1.5507 -0.9765  1.0016
 3522TIP3   OH231980   3.010   6.706   5.517  0.2718 -0.7508  0.0916
 3522TIP3    H131981   2.952   6.657   5.575 -1.2881  1.6735  0.7303
 3522TIP3    H231982   3.061   6.761   5.576  0.6689 -0.2607 -0.6997
 3523TIP3   OH231983   6.257   4.387  10.970 -0.4212  0.3297 -0.3034
 3523TIP3    H131984   6.167   4.384  11.004 -0.0051  0.4336  0.8167
 3523TIP3    H231985   6.296   4.304  10.997  0.3846  1.0552  0.8154
 3524TIP3   OH231986   3.532   0.777  16.685 -0.1769  0.2426  0.2730
 3524TIP3    H131987   3.471   0.718  16.730  1.2671 -1.3611  0.2418
 3524TIP3    H231988   3.616   0.733  16.691  0.5835  1.3189 -1.6173
 3525TIP3   OH231989   6.414   6.524  15.537  0.5643 -0.4161  0.1081
 3525TIP3    H131990   6.479   6.564  15.479  1.1827  0.0218  1.0723
 3525TIP3    H231991   6.345   6.590  15.545 -1.2065 -1.7581 -2.7522
 3526TIP3   OH231992   6.450   0.922  17.475  0.2045 -0.0111 -0.2230
 3526TIP3    H131993   6.365   0.961  17.454  0.0228  0.1625  0.7644
 3526TIP3    H231994   6.428   0.844  17.526  0.6297  1.0071  1.6271
 3527TIP3   OH231995   2.125   3.854   4.276 -0.0389 -0.0405 -0.3990
 3527TIP3    H131996   2.211   3.823   4.305  0.0058  0.3270 -0.1313
 3527TIP3    H231997   2.104   3.925   4.336  0.1898  0.9338 -1.4586
 3528TIP3   OH231998   5.252   1.247   4.896  0.1707 -0.7557  0.5839
 3528TIP3    H131999   5.252   1.341   4.878  0.7737 -0.8789 -0.0600
 3528TIP3    H232000   5.290   1.239   4.984  2.2016 -0.5500 -0.2256
 3529TIP3   OH232001   2.971   6.129  12.633 -0.2133 -0.2224  0.0028
 3529TIP3    H132002   2.929   6.106  12.716  0.6405 -0.3336  0.4067
 3529TIP3    H232003   3.062   6.104  12.644 -0.4109 -1.8737 -1.5831
 3530TIP3   OH232004   1.297   0.692   0.261  0.0876  0.1625  0.4874
 3530TIP3    H132005   1.211   0.725   0.236 -1.5733 -2.2850  2.3531
 3530TIP3    H232006   1.306   0.717   0.353  0.8417 -0.5920  0.6322
 3531TIP3   OH232007   5.267   6.098  12.104  0.5804 -0.0745 -0.7778
 3531TIP3    H132008   5.212   6.114  12.027  0.4061 -0.7023 -0.7922
 3531TIP3    H232009   5.234   6.158  12.170 -1.0107 -1.3330 -0.3695
 3532TIP3   OH232010   4.653   4.479  14.248  0.3585  0.0201  0.1572
 3532TIP3    H132011   4.632   4.544  14.181  1.8362 -0.3986 -0.7712
 3532TIP3    H232012   4.613   4.398  14.216  1.3910 -0.2662 -0.4359
 3533TIP3   OH232013   2.148   0.749   0.742 -0.4522  0.2543  0.9224
 3533TIP3    H132014   2.077   0.796   0.786  0.1361  0.9184  1.1931
 3533TIP3    H232015   2.228   0.786   0.780  0.0736  0.6427 -0.4960
 3534TIP3   OH232016   4.705   2.221  15.554 -0.3549  0.2788  0.2692
 3534TIP3    H132017   4.794   2.197  15.526  0.0241  1.3331  0.5208
 3534TIP3    H232018   4.670   2.270  15.480 -1.2199 -1.2145 -0.3497
 3535TIP3   OH232019   2.815   5.797   5.597  0.2804  0.7873  0.2451
 3535TIP3    H132020   2.832   5.786   5.504 -1.0402  1.7257 -0.1436
 3535TIP3    H232021   2.731   5.754   5.612  0.6252  0.3797  1.0692
 3536TIP3   OH232022   6.006   1.984   3.150 -0.0530 -0.3350 -0.8805
 3536TIP3    H132023   5.935   2.020   3.204  1.3758 -0.0634  0.8983
 3536TIP3    H232024   5.961   1.942   3.077 -1.9999  0.7457 -0.3732
 3537TIP3   OH232025   3.598   4.312  14.463  0.1337  0.0882  0.6553
 3537TIP3    H132026   3.680   4.329  14.416  0.1158 -1.2100  0.1298
 3537TIP3    H232027   3.595   4.217  14.472 -0.2327  0.2428  2.6570
 3538TIP3   OH232028   0.119   5.517  14.077  0.6146 -0.5563 -0.7320
 3538TIP3    H132029   0.129   5.544  14.169  1.9290  2.3374 -1.6002
 3538TIP3    H232030   0.025   5.523  14.060  0.2929 -1.5924  0.4904
 3539TIP3   OH232031   4.427   3.567  12.319 -0.1488 -0.1422  0.0376
 3539TIP3    H132032   4.382   3.583  12.236 -3.2579 -0.7604  1.4677
 3539TIP3    H232033   4.387   3.487  12.354 -0.6145  1.2631  3.1086
 3540TIP3   OH232034   0.373   5.926  14.242  0.3470  0.5926 -0.1455
 3540TIP3    H132035   0.433   6.000  14.249 -0.4310  1.2141  0.1768
 3540TIP3    H232036   0.337   5.916  14.331  0.7847 -0.4701 -0.0806
 3541TIP3   OH232037   2.632   2.896   1.347  0.2899  0.0526  0.2258
 3541TIP3    H132038   2.697   2.944   1.399  0.2479 -0.3341  0.6400
 3541TIP3    H232039   2.555   2.891   1.404 -0.0135  0.2753 -0.1607
 3542TIP3   OH232040   5.525   6.372  13.483 -0.3551  0.9369 -0.4748
 3542TIP3    H132041   5.619   6.386  13.493 -0.0559 -1.0332 -0.0173
 3542TIP3    H232042   5.486   6.427  13.551  0.8961 -2.3066  3.2671
 3543TIP3   OH232043   3.296   3.852   3.093  0.1011  0.2242 -0.1510
 3543TIP3    H132044   3.335   3.936   3.117  0.2967 -0.4034  2.0121
 3543TIP3    H232045   3.343   3.826   3.014 -0.3052  2.3302 -1.1595
 3544TIP3   OH232046   1.873   5.504  12.813 -0.1896  0.0727 -0.3218
 3544TIP3    H132047   1.891   5.476  12.903  0.7403  2.9745  0.4982
 3544TIP3    H232048   1.942   5.464  12.761 -0.8093 -1.7463  0.1697
 3545TIP3   OH232049   2.512   2.443  11.218  0.6533  0.0427 -0.9552
 3545TIP3    H132050   2.594   2.484  11.245 -0.1973  1.2652 -0.0986
 3545TIP3    H232051   2.530   2.349  11.219  2.0903  0.2990 -0.9922
 3546TIP3   OH232052   1.308   2.522   3.026  0.1150 -0.5196 -0.1282
 3546TIP3    H132053   1.363   2.586   3.071 -0.4899 -0.2112  0.1838
 3546TIP3    H232054   1.284   2.565   2.944 -1.0543  0.0510  0.4872
 3547TIP3   OH232055   4.759   0.648  14.426 -0.4169  0.1087  0.0331
 3547TIP3    H132056   4.780   0.557  14.448 -2.1588  0.1598  2.3149
 3547TIP3    H232057   4.691   0.641  14.359 -0.5205 -0.2682  0.1724
 3548TIP3   OH232058   2.363   4.056   1.387 -0.1696 -0.1211 -0.9113
 3548TIP3    H132059   2.443   4.005   1.378 -1.9830 -3.2877 -0.5514
 3548TIP3    H232060   2.338   4.045   1.479 -0.3501  1.9943 -0.6592
 3549TIP3   OH232061   5.390   4.553   0.448  0.2345 -0.0345  0.0748
 3549TIP3    H132062   5.413   4.466   0.416  0.2508 -0.0541  0.1407
 3549TIP3    H232063   5.331   4.588   0.382 -1.2589 -0.8238  0.9478
 3550TIP3   OH232064   2.477   4.738   1.048 -0.0130 -0.1852  0.3612
 3550TIP3    H132065   2.430   4.724   1.130 -2.0055  0.3558 -0.6221
 3550TIP3    H232066   2.433   4.682   0.985 -0.8197  1.9508 -1.1010
 3551TIP3   OH232067   3.655   2.404  15.054 -0.0331  0.1911 -0.1423
 3551TIP3    H132068   3.569   2.399  15.097 -0.6147  0.1018 -1.2583
 3551TIP3    H232069   3.718   2.404  15.126 -0.9258 -0.8382  0.6833
 3552TIP3   OH232070   2.247   3.386   4.324  0.2263 -0.4456 -0.1375
 3552TIP3    H132071   2.267   3.434   4.243 -0.4105  1.3862  0.7464
 3552TIP3    H232072   2.152   3.390   4.331  0.2346 -1.1432  0.3800
 3553TIP3   OH232073   3.997   4.730  12.189 -0.3079 -0.2620  0.8156
 3553TIP3    H132074   4.048   4.728  12.270 -0.1276  0.2332  0.7190
 3553TIP3    H232075   4.003   4.821  12.159  0.8946 -0.7524 -0.5561
 3554TIP3   OH232076   0.773   1.644   0.812 -0.1599  0.0342 -0.0066
 3554TIP3    H132077   0.704   1.597   0.858 -0.0776  0.0687  0.1551
 3554TIP3    H232078   0.837   1.665   0.881  0.7689 -1.3509 -0.4073
 3555TIP3   OH232079   6.265   1.190  13.604 -0.1097 -0.0013  0.8354
 3555TIP3    H132080   6.314   1.115  13.570  0.3191  0.3375  0.6939
 3555TIP3    H232081   6.190   1.198  13.545 -0.2618 -0.4336  0.9658
 3556TIP3   OH232082   4.166   4.821  11.704 -0.5957  0.0179 -0.4191
 3556TIP3    H132083   4.260   4.815  11.686 -0.6899 -1.3623 -0.5718
 3556TIP3    H232084   4.154   4.908  11.741  0.7027  0.3122 -0.6479
 3557TIP3   OH232085   1.153   2.510   5.502  0.6368 -0.8036 -0.0803
 3557TIP3    H132086   1.126   2.568   5.574  0.4598 -0.0585 -0.7359
 3557TIP3    H232087   1.100   2.539   5.427  1.6317 -0.8137 -0.8014
 3558TIP3   OH232088   4.124   3.562   3.000 -0.3280 -0.0509 -0.1617
 3558TIP3    H132089   4.053   3.498   2.997 -0.1105 -0.3112  0.3438
 3558TIP3    H232090   4.202   3.511   3.020  0.5067 -0.1915 -3.2061
 3559TIP3   OH232091   1.757   4.816  15.451  0.1731  0.4191 -0.0222
 3559TIP3    H132092   1.755   4.904  15.490 -0.9447  0.4515 -0.1370
 3559TIP3    H232093   1.681   4.814  15.393  0.3234 -0.5538 -0.1930
 3560TIP3   OH232094   3.131   4.652   1.180  0.1096 -0.7388 -0.1147
 3560TIP3    H132095   3.076   4.724   1.211  0.1717  0.0616 -1.7936
 3560TIP3    H232096   3.088   4.621   1.101  1.9986 -0.1193 -1.4542
 3561TIP3   OH232097   1.917   0.007  11.354 -0.3060  0.2383 -0.9001
 3561TIP3    H132098   1.834  -0.041  11.361  0.3109 -1.0720 -2.1313
 3561TIP3    H232099   1.894   0.087  11.307 -0.8915 -0.0648 -1.1399
 3562TIP3   OH232100   6.720   5.055   0.240  0.0039  0.0089 -0.1415
 3562TIP3    H132101   6.796   5.050   0.298  1.7683 -1.0591 -2.3728
 3562TIP3    H232102   6.735   5.134   0.188 -1.8702  1.2996  1.1269
 3563TIP3   OH232103   5.041   1.874  14.248 -0.3489  0.0786 -0.2473
 3563TIP3    H132104   5.021   1.851  14.339  0.1513 -0.6473 -0.3093
 3563TIP3    H232105   4.999   1.959  14.235 -2.8061 -1.0613 -0.1882
 3564TIP3   OH232106   4.914   4.125  16.524 -0.1787  0.4005  0.4763
 3564TIP3    H132107   4.975   4.126  16.598  0.0004  0.0834  0.3313
 3564TIP3    H232108   4.970   4.132  16.447 -0.3265  0.0920  0.3415
 3565TIP3   OH232109   2.802   6.528   0.830 -0.0502  0.0730  0.0893
 3565TIP3    H132110   2.811   6.567   0.743 -1.6425 -0.9397 -0.5572
 3565TIP3    H232111   2.758   6.445   0.815  0.2611 -0.4328  1.8047
 3566TIP3   OH232112   2.025   4.806  14.855 -0.3488 -0.0422 -0.2718
 3566TIP3    H132113   2.034   4.881  14.797 -1.2814 -0.8636 -1.5395
 3566TIP3    H232114   2.115   4.779  14.875  0.0328 -0.4866 -2.3754
 3567TIP3   OH232115   3.620   2.614   3.903  0.4934 -0.0874 -0.2434
 3567TIP3    H132116   3.705   2.628   3.862  0.5870 -1.3528 -0.5195
 3567TIP3    H232117   3.557   2.629   3.833  0.1438  4.4661  0.7365
 3568TIP3   OH232118   0.513   3.620   0.509  0.1754 -0.0970  0.3076
 3568TIP3    H132119   0.463   3.557   0.561  1.2025  0.9386  2.7236
 3568TIP3    H232120   0.499   3.704   0.553  3.2744  0.3701  0.6544
 3569TIP3   OH232121   6.336   2.196  13.492 -0.4110 -0.5527  0.2615
 3569TIP3    H132122   6.353   2.279  13.537 -1.3456  0.5272 -1.3001
 3569TIP3    H232123   6.423   2.160  13.475  0.1075  1.0439 -0.6869
 3570TIP3   OH232124   6.562   3.884  16.680 -0.2441  0.1845  0.3542
 3570TIP3    H132125   6.512   3.925  16.751  1.3177 -0.5012  1.9305
 3570TIP3    H232126   6.501   3.822  16.641 -1.9471  2.3272 -0.6298
 3571TIP3   OH232127   1.775   2.670  13.365 -0.2482 -0.1755 -0.1786
 3571TIP3    H132128   1.685   2.687  13.391 -0.6567 -0.9055 -1.0698
 3571TIP3    H232129   1.793   2.581  13.395 -0.0628 -0.2921 -0.6264
 3572TIP3   OH232130   0.862   4.886  17.512 -0.0748 -0.0982 -0.2363
 3572TIP3    H132131   0.840   4.909  17.422 -1.0795  0.1757  0.0673
 3572TIP3    H232132   0.909   4.963  17.545 -0.2012  0.0331 -0.3565
 3573TIP3   OH232133   4.424   5.068   4.015 -0.1247  0.1954 -0.8616
 3573TIP3    H132134   4.436   5.157   4.048  0.0170 -0.4143  0.8043
 3573TIP3    H232135   4.497   5.055   3.954  0.5320  0.8108 -0.2204
 3574TIP3   OH232136   1.500   3.680   2.113  0.0855 -0.1166  0.0714
 3574TIP3    H132137   1.497   3.734   2.191  0.6921  0.6915 -0.4470
 3574TIP3    H232138   1.427   3.710   2.059  1.5707  1.6054 -1.0902
 3575TIP3   OH232139   6.243   3.774  11.991  0.2598 -0.1003  0.0206
 3575TIP3    H132140   6.247   3.679  11.980 -2.3883 -0.4208  1.3047
 3575TIP3    H232141   6.270   3.790  12.081  0.9694  0.4463 -0.2682
 3576TIP3   OH232142   0.885   2.674  14.227  0.3770 -0.2514 -0.1044
 3576TIP3    H132143   0.920   2.761  14.209  2.0392 -0.6921  0.7863
 3576TIP3    H232144   0.932   2.616  14.167  0.2431 -0.7103  0.2276
 3577TIP3   OH232145   6.229   3.849   0.121 -0.1808 -0.5080 -0.2321
 3577TIP3    H132146   6.243   3.770   0.173 -0.1071 -1.7630 -2.0690
 3577TIP3    H232147   6.157   3.827   0.063 -0.2559  0.8478 -0.6890
 3578TIP3   OH232148   1.538   5.514   4.907  0.6236 -0.4299  0.3616
 3578TIP3    H132149   1.573   5.461   4.978  1.0939  0.4784  0.8225
 3578TIP3    H232150   1.550   5.605   4.936  0.5169 -0.0501 -0.7327
 3579TIP3   OH232151   1.797   5.603  15.243  0.3165  0.1222 -0.0551
 3579TIP3    H132152   1.821   5.654  15.320 -2.3369  1.8085 -0.2373
 3579TIP3    H232153   1.826   5.657  15.169  0.6137 -0.3071 -0.2556
 3580TIP3   OH232154   3.125   0.824  14.829 -0.0859 -0.3688 -0.1013
 3580TIP3    H132155   3.161   0.877  14.758 -0.9176 -0.0863 -0.3293
 3580TIP3    H232156   3.185   0.837  14.902  0.7687 -0.6449 -0.7435
 3581TIP3   OH232157   1.398   6.110  15.180  0.0818 -0.3366 -0.8646
 3581TIP3    H132158   1.400   6.167  15.256  0.0987 -0.0067 -1.1123
 3581TIP3    H232159   1.387   6.169  15.105  1.4619 -0.5329 -1.2468
 3582TIP3   OH232160   1.706   0.759  13.281  0.0388  0.0251 -0.1057
 3582TIP3    H132161   1.739   0.845  13.307  1.4226 -0.3495 -0.4945
 3582TIP3    H232162   1.782   0.716  13.241 -0.7013 -1.2721 -0.1721
 3583TIP3   OH232163   4.798   4.858  13.797 -0.4627  0.3325  0.2844
 3583TIP3    H132164   4.827   4.926  13.737  1.0762  0.3425  1.0027
 3583TIP3    H232165   4.705   4.845  13.775  0.0114  0.3777 -2.0320
 3584TIP3   OH232166   4.761   5.765  16.931 -0.6549 -0.1775  0.0371
 3584TIP3    H132167   4.832   5.824  16.956 -0.2232 -1.1812  1.2867
 3584TIP3    H232168   4.691   5.783  16.995 -1.1041  0.0395 -0.5094
 3585TIP3   OH232169   2.910   4.034   0.750 -0.0563 -0.0638 -0.0656
 3585TIP3    H132170   2.990   3.983   0.739  0.0575 -0.1597  1.0784
 3585TIP3    H232171   2.885   4.020   0.841 -0.4202  1.3502  0.0708
 3586TIP3   OH232172   3.686   5.237   5.380  0.2195 -0.3734 -0.2497
 3586TIP3    H132173   3.765   5.270   5.336 -0.1724  1.3656  0.2885
 3586TIP3    H232174   3.719   5.194   5.458  0.7014 -0.4782 -0.5048
 3587TIP3   OH232175   6.609   0.333  13.027 -0.2285 -0.7010  0.5295
 3587TIP3    H132176   6.576   0.423  13.024  0.5984 -0.4098 -0.7134
 3587TIP3    H232177   6.593   0.305  13.116 -0.6238  0.6424  0.9120
 3588TIP3   OH232178   1.005   1.060  14.232 -0.1285  0.2220  0.4281
 3588TIP3    H132179   1.077   1.089  14.176 -0.9805  0.3190 -0.6343
 3588TIP3    H232180   1.026   0.969  14.254 -0.1119 -0.0269 -0.5922
 3589TIP3   OH232181   0.213   1.166  16.569  0.1234 -0.4216 -0.3648
 3589TIP3    H132182   0.209   1.245  16.623 -2.4588 -0.6755 -0.0342
 3589TIP3    H232183   0.221   1.198  16.480  3.3263  0.0258 -0.0407
 3590TIP3   OH232184   3.081   4.064  13.366  0.1578 -0.5415  0.1401
 3590TIP3    H132185   3.155   4.106  13.321  1.7844 -1.4018  1.8557
 3590TIP3    H232186   3.043   4.134  13.420 -0.5078 -0.0230 -0.9627
 3591TIP3   OH232187   5.003   4.604  13.741 -0.0146 -0.6444 -0.4554
 3591TIP3    H132188   4.925   4.657  13.725 -1.4648 -3.0015 -1.7888
 3591TIP3    H232189   4.978   4.547  13.814  1.4160  0.2425  0.7849
 3592TIP3   OH232190   4.961   0.619  12.078  0.0235  0.2555  0.1039
 3592TIP3    H132191   4.898   0.559  12.116  0.7941 -0.8999 -0.3744
 3592TIP3    H232192   5.042   0.603  12.126  0.4063  0.4524 -0.4569
 3593TIP3   OH232193   1.727   5.651   5.865 -0.2689 -0.2513 -0.1108
 3593TIP3    H132194   1.639   5.627   5.893 -0.8648 -1.7929 -2.9681
 3593TIP3    H232195   1.781   5.640   5.944 -2.2994 -0.9105  1.2797
 3594TIP3   OH232196   3.457   5.662   3.488  0.6614  0.0981 -0.4809
 3594TIP3    H132197   3.485   5.592   3.547  1.2534  0.4268 -0.3548
 3594TIP3    H232198   3.396   5.620   3.428 -0.6417 -0.0565  0.8908
 3595TIP3   OH232199   2.460   0.355  14.117  0.0299  1.1076 -0.6051
 3595TIP3    H132200   2.376   0.352  14.163 -0.0413  0.4375 -0.7828
 3595TIP3    H232201   2.515   0.291  14.162  0.5624  1.7865 -0.2719
 3596TIP3   OH232202   5.912   2.816   5.402  0.0208 -0.4261  0.0293
 3596TIP3    H132203   5.909   2.908   5.376  0.9330 -0.4857 -0.3197
 3596TIP3    H232204   5.872   2.815   5.489 -0.8672  0.1421 -0.3518
 3597TIP3   OH232205   3.679   6.614   2.215 -0.3180  0.8079  0.0519
 3597TIP3    H132206   3.603   6.650   2.261  0.1720  0.0535  1.5110
 3597TIP3    H232207   3.704   6.682   2.153 -1.2949  1.6707  0.5671
 3598TIP3   OH232208   1.600   2.285   0.422 -0.2159 -0.3291 -0.3479
 3598TIP3    H132209   1.693   2.303   0.415  0.2128 -2.6233 -1.5547
 3598TIP3    H232210   1.561   2.329   0.346  0.0950 -0.5656 -0.6427
 3599TIP3   OH232211   1.746   3.142   1.199 -0.1965 -0.0875 -0.3660
 3599TIP3    H132212   1.814   3.117   1.262 -2.1054 -1.2968  1.3034
 3599TIP3    H232213   1.716   3.228   1.229 -0.9640 -0.5724  0.2781
 3600TIP3   OH232214   4.219   3.982   1.866  0.1181  0.0222  0.7366
 3600TIP3    H132215   4.178   4.001   1.782  0.7152 -0.1308  0.4014
 3600TIP3    H232216   4.173   3.906   1.900  0.1196 -0.1429  0.3698
 3601TIP3   OH232217   3.187   4.968   5.636 -0.5686 -0.4071  0.4137
 3601TIP3    H132218   3.256   5.002   5.693  0.2552 -0.6841 -0.3966
 3601TIP3    H232219   3.139   4.906   5.691 -1.0393  0.7790  1.3936
 3602TIP3   OH232220   3.392   2.848   1.341 -0.2526 -0.0948  0.1669
 3602TIP3    H132221   3.453   2.820   1.410 -0.2535  0.3705  0.3607
 3602TIP3    H232222   3.446   2.855   1.263 -0.2437 -0.5913  0.1244
 3603TIP3   OH232223   1.462   3.676  15.773 -0.4067 -0.2612  0.0665
 3603TIP3    H132224   1.510   3.612  15.720  0.1122 -0.6327  0.9549
 3603TIP3    H232225   1.390   3.625  15.812 -1.9084  0.4134 -1.6986
 3604TIP3   OH232226   5.375   1.073  12.893  0.1162 -0.2312  0.6937
 3604TIP3    H132227   5.448   1.068  12.955  0.8304 -0.8382 -0.1655
 3604TIP3    H232228   5.333   1.156  12.912  0.1870 -0.4916  2.1250
 3605TIP3   OH232229   0.314   3.079   5.664  0.1144  0.0160 -0.0321
 3605TIP3    H132230   0.392   3.121   5.700  0.4529  0.1309 -0.8697
 3605TIP3    H232231   0.306   3.114   5.575 -1.5755  0.8955  0.4214
 3606TIP3   OH232232   1.200   3.186  16.380 -0.3159  0.0758 -0.0063
 3606TIP3    H132233   1.295   3.194  16.394 -0.3093  2.4218 -0.9539
 3606TIP3    H232234   1.161   3.235  16.452 -0.9556 -2.2263  1.3212
 3607TIP3   OH232235   4.417   1.403  13.634 -0.1391 -0.5074  0.2122
 3607TIP3    H132236   4.434   1.312  13.658 -1.0138 -1.0376 -1.0389
 3607TIP3    H232237   4.340   1.427  13.685 -0.1672 -0.6153  0.2215
 3608TIP3   OH232238   2.080   0.095   2.557  0.2509  0.4404  0.0952
 3608TIP3    H132239   2.102   0.147   2.479 -1.4556  0.5813 -0.3303
 3608TIP3    H232240   2.093   0.004   2.529  0.1607  0.5126 -0.1868
 3609TIP3   OH232241   4.103   6.392  12.596 -0.5164  0.5857 -0.0427
 3609TIP3    H132242   4.077   6.347  12.676 -0.9252 -0.0001 -0.4992
 3609TIP3    H232243   4.163   6.331  12.553 -0.5747  0.7489 -0.3542
 3610TIP3   OH232244   5.908   0.653   3.129 -0.0380 -0.0906  0.1902
 3610TIP3    H132245   5.836   0.676   3.070  0.0977 -0.0371  0.0436
 3610TIP3    H232246   5.903   0.558   3.137  1.0246 -0.3014 -1.3231
 3611TIP3   OH232247   0.615   4.604  11.813  0.1474 -0.2765  0.7270
 3611TIP3    H132248   0.632   4.649  11.896  0.8164 -1.8859  1.5224
 3611TIP3    H232249   0.652   4.662  11.746 -2.3770  2.1352  1.2591
 3612TIP3   OH232250   0.204   5.824  13.582  0.1995  0.4077 -0.2755
 3612TIP3    H132251   0.290   5.824  13.625 -0.0921 -2.2931  0.4969
 3612TIP3    H232252   0.223   5.826  13.489  1.0223  1.3327 -0.1048
 3613TIP3   OH232253   6.500   1.277   3.366 -0.1247 -0.1205 -0.8583
 3613TIP3    H132254   6.495   1.205   3.304 -1.3380 -0.1098 -0.7888
 3613TIP3    H232255   6.420   1.327   3.352 -0.2511  0.0848  0.4585
 3614TIP3   OH232256   4.323   5.917   0.885  0.1557  0.0615 -0.5091
 3614TIP3    H132257   4.344   5.850   0.820 -0.8608 -0.4042 -0.3851
 3614TIP3    H232258   4.228   5.908   0.899  0.7294 -2.1622  3.4739
 3615TIP3   OH232259   4.823   6.124  11.473 -0.2699 -0.3065  0.5041
 3615TIP3    H132260   4.836   6.064  11.546  0.0860 -0.9388 -0.0606
 3615TIP3    H232261   4.797   6.207  11.513 -0.9445 -0.8836  1.2925
 3616TIP3   OH232262   5.761   1.015  16.297  0.2711 -0.3389 -0.0210
 3616TIP3    H132263   5.747   0.921  16.311 -0.4096 -0.4282 -1.1812
 3616TIP3    H232264   5.686   1.042  16.244  1.2174  0.5623 -0.9142
 3617TIP3   OH232265   3.452   4.823   4.538  0.4086  0.3381 -0.2252
 3617TIP3    H132266   3.419   4.880   4.468 -0.5863 -1.2029 -1.0644
 3617TIP3    H232267   3.534   4.789   4.505  1.1548  1.4403  0.3994
 3618TIP3   OH232268   5.075   6.349   4.525  0.3478 -0.2134  0.2196
 3618TIP3    H132269   4.981   6.358   4.540  0.4751  1.4414  0.2328
 3618TIP3    H232270   5.101   6.432   4.484  2.1203  0.1327  1.8877
 3619TIP3   OH232271   1.868   1.036   6.706  0.3288  0.1401  0.2950
 3619TIP3    H132272   1.798   1.091   6.740  0.1012 -1.1932  2.1199
 3619TIP3    H232273   1.945   1.060   6.757  0.4721 -0.4829  0.3888
 3620TIP3   OH232274   3.285   3.052  12.333  0.2109  0.4036 -0.6546
 3620TIP3    H132275   3.321   3.006  12.408 -1.4529 -0.1265 -0.1400
 3620TIP3    H232276   3.347   3.124  12.318  1.0540 -0.0008  0.6384
 3621TIP3   OH232277   3.346   0.198  12.241 -0.4050 -0.0927 -0.2048
 3621TIP3    H132278   3.426   0.239  12.274 -0.7462  1.5655 -1.2707
 3621TIP3    H232279   3.301   0.165  12.318 -0.3486  2.0888  0.8334
 3622TIP3   OH232280   0.145   5.669   1.323  0.6769 -0.1239 -0.5482
 3622TIP3    H132281   0.219   5.728   1.339  0.8711 -0.7472  1.0068
 3622TIP3    H232282   0.128   5.628   1.408  0.3828 -2.1218 -1.5078
 3623TIP3   OH232283   6.203   2.790   3.758 -0.3347  0.1187  0.6635
 3623TIP3    H132284   6.207   2.754   3.670 -0.9888 -0.2458  0.7746
 3623TIP3    H232285   6.288   2.832   3.771  0.1413 -0.6769  0.2260
 3624TIP3   OH232286   5.295   6.312  13.302 -0.0226 -0.1741  0.8877
 3624TIP3    H132287   5.293   6.381  13.235  0.9496 -1.5303 -0.5968
 3624TIP3    H232288   5.356   6.345  13.368  0.6165  0.2992  0.0852
 3625TIP3   OH232289   2.946   2.041   0.410  0.3015 -0.2699 -0.3843
 3625TIP3    H132290   2.878   2.014   0.348 -0.5944  0.2140  0.3720
 3625TIP3    H232291   3.014   1.974   0.401 -0.3902 -0.9115 -0.9664
 3626TIP3   OH232292   4.328   5.748   3.215 -0.4336  0.2012 -0.0324
 3626TIP3    H132293   4.403   5.701   3.250 -0.8411 -0.9402 -0.6241
 3626TIP3    H232294   4.258   5.731   3.277 -0.6584 -0.2317 -0.3983
 3627TIP3   OH232295   1.235   3.496   0.450  0.5595 -0.4772 -0.2703
 3627TIP3    H132296   1.196   3.579   0.423  0.4436 -0.0388  1.1651
 3627TIP3    H232297   1.263   3.455   0.368 -0.0778  0.6222 -1.0632
 3628TIP3   OH232298   3.181   2.750   6.185 -0.1242  0.6107  1.1152
 3628TIP3    H132299   3.133   2.821   6.228 -0.1248  1.4249 -0.1656
 3628TIP3    H232300   3.116   2.681   6.171  0.6016 -1.3294  5.6691
 3629TIP3   OH232301   5.362   6.120   4.220 -0.2226 -0.2220 -0.3216
 3629TIP3    H132302   5.404   6.040   4.253 -2.6814 -1.3617  0.2553
 3629TIP3    H232303   5.344   6.101   4.129  1.2695  0.6563 -0.8474
 3630TIP3   OH232304   6.293   5.515  14.192 -0.4797  0.0102 -0.1945
 3630TIP3    H132305   6.282   5.610  14.184 -1.5401  0.1137  1.8304
 3630TIP3    H232306   6.219   5.478  14.144  0.2105  0.1486 -1.4174
 3631TIP3   OH232307   2.488   5.985  11.754  0.2579 -0.1136  0.0389
 3631TIP3    H132308   2.495   5.908  11.811  0.9625 -1.0087 -1.2182
 3631TIP3    H232309   2.483   5.950  11.665  1.8382  1.3197 -0.6692
 3632TIP3   OH232310   5.152   3.242   2.367  0.2871 -0.2927 -0.3597
 3632TIP3    H132311   5.168   3.147   2.368  2.1334 -0.0045 -0.1482
 3632TIP3    H232312   5.154   3.265   2.274  2.3796 -0.1010 -0.3084
 3633TIP3   OH232313   1.760   4.863   0.380  0.1992 -0.4072 -0.0514
 3633TIP3    H132314   1.757   4.808   0.302  1.9160  1.6356 -1.6665
 3633TIP3    H232315   1.835   4.830   0.430 -0.7436 -1.5484  0.6583
 3634TIP3   OH232316   1.306   1.106   0.054  0.0676 -0.1848  0.2052
 3634TIP3    H132317   1.332   1.198   0.043  0.7238 -0.3574  0.2968
 3634TIP3    H232318   1.211   1.107   0.045  0.1829  0.3046 -1.1661
 3635TIP3   OH232319   1.471   5.183   3.158  0.2120  0.3273  0.2564
 3635TIP3    H132320   1.416   5.148   3.088  0.2507  0.1578  0.3086
 3635TIP3    H232321   1.519   5.106   3.191  0.1960  0.4070  0.4656
 3636TIP3   OH232322   3.241   4.577  11.793 -0.1260 -0.2095  0.1975
 3636TIP3    H132323   3.194   4.536  11.865 -0.3202 -0.2689  0.0384
 3636TIP3    H232324   3.264   4.664  11.825  2.4524 -1.2452  1.4698
 3637TIP3   OH232325   1.726   4.130  11.236 -0.7568  0.2128  0.3224
 3637TIP3    H132326   1.645   4.166  11.198  0.0608 -0.1892 -1.9841
 3637TIP3    H232327   1.789   4.135  11.164  1.6653  1.6404  2.3961
 3638TIP3   OH232328   5.415   0.173   1.414 -0.9983  0.1607 -0.2770
 3638TIP3    H132329   5.331   0.216   1.396 -2.1631 -2.4692 -1.6840
 3638TIP3    H232330   5.409   0.146   1.506 -2.6278 -1.6946 -0.8565
 3639TIP3   OH232331   2.778   3.960  14.370 -0.2136 -0.0777  0.2181
 3639TIP3    H132332   2.693   3.987  14.406 -0.2746 -1.8238  1.4914
 3639TIP3    H232333   2.839   4.027  14.399 -0.8701  0.3093  0.7350
 3640TIP3   OH232334   1.644   6.116  17.287  0.0203  0.2945  0.5753
 3640TIP3    H132335   1.693   6.067  17.220 -0.4770 -0.5900  0.8456
 3640TIP3    H232336   1.662   6.208  17.267 -1.1647  0.1248 -1.6107
 3641TIP3   OH232337   4.010   1.029  11.990  0.0396  0.3173  0.4797
 3641TIP3    H132338   3.939   0.976  12.024  0.0742 -0.3365 -0.4465
 3641TIP3    H232339   4.043   1.077  12.067 -2.0121  1.3776  0.7555
 3642TIP3   OH232340   1.759   1.094  16.013  0.1159 -0.1309 -0.0498
 3642TIP3    H132341   1.684   1.128  16.063 -0.1250  0.7806 -0.9900
 3642TIP3    H232342   1.831   1.097  16.075 -0.3637  0.1711  0.5091
 3643TIP3   OH232343   3.055   6.488   5.379  0.2333 -0.2027 -0.2411
 3643TIP3    H132344   3.051   6.580   5.405  1.0205  0.2626 -1.6141
 3643TIP3    H232345   2.977   6.449   5.417  1.9304 -0.0028  3.9324
 3644TIP3   OH232346   2.202   0.816   5.059 -0.2002  0.2613  0.0247
 3644TIP3    H132347   2.252   0.875   5.116 -0.1634 -0.6024  0.9090
 3644TIP3    H232348   2.162   0.753   5.118 -1.1944  0.0799 -0.8062
 3645TIP3   OH232349   4.136   6.535   1.176  0.0270  0.8229  0.1918
 3645TIP3    H132350   4.111   6.469   1.241  2.1177 -0.8222 -0.5566
 3645TIP3    H232351   4.057   6.550   1.124 -0.7381 -0.4026  0.9750
 3646TIP3   OH232352   3.475   1.184  10.564 -0.4226 -0.3231 -0.2752
 3646TIP3    H132353   3.508   1.108  10.517  0.9579 -0.5644  1.0013
 3646TIP3    H232354   3.404   1.149  10.618 -1.2851 -0.2513 -1.3392
 3647TIP3   OH232355   1.257   3.527  13.813  0.0863  0.6248  0.3731
 3647TIP3    H132356   1.296   3.441  13.828  0.5333  1.0209  1.6519
 3647TIP3    H232357   1.164   3.514  13.829 -0.0998  0.0339 -1.0770
 3648TIP3   OH232358   4.162   2.930  13.520  0.4406 -0.1566 -0.0720
 3648TIP3    H132359   4.160   2.888  13.434 -1.8314 -1.1017  0.3754
 3648TIP3    H232360   4.149   2.858  13.582  0.5191  0.7071  0.9739
 3649TIP3   OH232361   3.636   1.136  13.329  0.2912  0.5404 -0.7218
 3649TIP3    H132362   3.560   1.103  13.282 -0.2725  1.0331 -0.1786
 3649TIP3    H232363   3.673   1.204  13.271  0.3736  0.2421 -1.0217
 3650TIP3   OH232364   2.404   0.354   3.271  0.0813  0.6561 -0.5526
 3650TIP3    H132365   2.360   0.270   3.253 -1.2823  1.4724 -1.2155
 3650TIP3    H232366   2.375   0.411   3.200 -0.3922  2.1835  0.8284
 3651TIP3   OH232367   1.670   3.139  16.731  0.3505 -0.2017  0.4326
 3651TIP3    H132368   1.629   3.114  16.648 -0.4619  0.1447  0.7136
 3651TIP3    H232369   1.599   3.132  16.795  0.6483  0.7264  0.8867
 3652TIP3   OH232370   2.352   6.218   0.603  0.2640 -0.7093 -0.3781
 3652TIP3    H132371   2.393   6.189   0.521 -0.6734 -0.6034 -0.8933
 3652TIP3    H232372   2.422   6.209   0.668  1.2527 -0.0808 -1.3146
 3653TIP3   OH232373   1.682   2.564   5.120 -0.1258  0.1037 -0.3196
 3653TIP3    H132374   1.607   2.591   5.174  0.2114 -0.6120  0.5406
 3653TIP3    H232375   1.665   2.472   5.100  1.5591 -0.7757  1.8177
 3654TIP3   OH232376   2.296   5.929  13.689 -0.4488 -0.1231  0.0973
 3654TIP3    H132377   2.386   5.947  13.662 -0.6653 -0.8567 -1.2177
 3654TIP3    H232378   2.243   5.953  13.613 -1.1725 -1.5222  0.1282
 3655TIP3   OH232379   0.407   4.468   2.020  0.4838 -0.0413  0.2066
 3655TIP3    H132380   0.425   4.420   1.940 -2.6695 -0.8050 -0.1925
 3655TIP3    H232381   0.401   4.401   2.088  1.6963  0.4482  0.8294
 3656TIP3   OH232382   5.136   6.515  12.083 -0.2615  0.4160 -0.2647
 3656TIP3    H132383   5.178   6.444  12.034 -2.2046 -0.4543 -0.7580
 3656TIP3    H232384   5.056   6.534  12.034 -0.7066  1.6964  0.8859
 3657TIP3   OH232385   0.882   5.036  12.907  0.4940 -0.0393  0.6591
 3657TIP3    H132386   0.963   5.073  12.873 -0.4008  0.2581 -1.3414
 3657TIP3    H232387   0.843   4.991  12.831  0.2217 -2.8032  2.2968
 3658TIP3   OH232388   0.370   1.123   1.511 -0.4433 -0.0634 -0.3347
 3658TIP3    H132389   0.275   1.121   1.518 -0.4823  0.8268 -0.5970
 3658TIP3    H232390   0.400   1.084   1.593 -1.0244  0.6240  0.2146
 3659TIP3   OH232391   5.124   6.459  14.872 -0.3544 -0.3185  0.1360
 3659TIP3    H132392   5.218   6.455  14.885 -0.2863 -1.2374 -0.5584
 3659TIP3    H232393   5.087   6.453  14.960  0.2546  2.9951  0.7405
 3660TIP3   OH232394   2.133   5.859   3.415 -0.1920  0.2354  0.3540
 3660TIP3    H132395   2.044   5.865   3.380  0.0562 -0.9226 -0.5331
 3660TIP3    H232396   2.157   5.950   3.435 -1.7805  0.5106  1.1694
 3661TIP3   OH232397   2.400   3.522  11.496  0.1306 -0.9244  0.1518
 3661TIP3    H132398   2.325   3.463  11.496 -0.2951 -0.3950 -0.3539
 3661TIP3    H232399   2.472   3.470  11.461  0.6014 -2.1415  2.6750
 3662TIP3   OH232400   4.601   3.460  14.846  0.1787 -0.3948  0.4677
 3662TIP3    H132401   4.582   3.455  14.753 -0.4724  2.2633  0.3715
 3662TIP3    H232402   4.516   3.447  14.888  0.2913 -0.5509  0.6491
 3663TIP3   OH232403   1.417   2.682   5.364 -0.2874  0.2448  0.0074
 3663TIP3    H132404   1.395   2.631   5.286 -2.9208  1.5677 -0.2428
 3663TIP3    H232405   1.398   2.623   5.437 -0.4377 -0.1143 -0.3167
 3664TIP3   OH232406   0.546   3.984   3.843  0.7922  0.3793 -0.0462
 3664TIP3    H132407   0.555   4.040   3.766  2.2074 -0.2275 -0.3651
 3664TIP3    H232408   0.546   4.045   3.917  1.7687  0.8672 -0.4185
 3665TIP3   OH232409   1.732   4.503  16.924  0.4084  0.4342  0.4500
 3665TIP3    H132410   1.727   4.536  17.014  1.7272  2.8455 -0.2686
 3665TIP3    H232411   1.675   4.561  16.874  0.0038 -0.6312 -0.3495
 3666TIP3   OH232412   6.559   1.327  13.032 -0.0792  0.3668 -0.1699
 3666TIP3    H132413   6.631   1.387  13.048 -0.6604  1.1842 -0.5659
 3666TIP3    H232414   6.490   1.356  13.092  0.0622 -0.6909  0.5395
 3667TIP3   OH232415   1.678   1.310  16.662  0.1873 -0.5260 -0.4231
 3667TIP3    H132416   1.665   1.239  16.724 -3.3442 -0.4998 -0.9542
 3667TIP3    H232417   1.657   1.389  16.712 -1.6159 -0.4171 -1.2755
 3668TIP3   OH232418   4.169   3.343  14.360  0.4561 -0.1719 -0.1459
 3668TIP3    H132419   4.198   3.255  14.338 -0.2646 -0.7810  1.2357
 3668TIP3    H232420   4.185   3.351  14.454 -0.0193  0.9564 -0.1457
 3669TIP3   OH232421   1.856   0.361   4.182 -0.0145  0.1386  0.2844
 3669TIP3    H132422   1.856   0.455   4.170 -1.1447  0.0358 -0.6230
 3669TIP3    H232423   1.903   0.348   4.265  0.4823  1.4523  0.2344
 3670TIP3   OH232424   0.884   6.124  11.696  0.4999 -0.3633 -0.0464
 3670TIP3    H132425   0.973   6.128  11.659  0.2438 -1.3557 -0.8293
 3670TIP3    H232426   0.883   6.192  11.763  0.6882  2.2517 -2.5192
 3671TIP3   OH232427   2.635   5.405  14.058  0.1180 -0.1954 -0.0264
 3671TIP3    H132428   2.593   5.349  13.994 -0.4469  1.0349 -0.7733
 3671TIP3    H232429   2.717   5.432  14.017  0.7545 -1.0557  0.6409
 3672TIP3   OH232430   5.480   2.275  14.089 -0.6834  0.7698  0.2207
 3672TIP3    H132431   5.443   2.194  14.124 -0.7454  0.5393 -0.3685
 3672TIP3    H232432   5.408   2.314  14.038 -0.6162  1.1350  0.4043
 3673TIP3   OH232433   5.565   5.212   4.475 -0.2246 -0.3579 -1.0304
 3673TIP3    H132434   5.625   5.231   4.547 -0.9057  0.2155 -0.6037
 3673TIP3    H232435   5.602   5.134   4.433  1.2872  0.4639 -1.3091
 3674TIP3   OH232436   3.056   2.472   5.799 -0.1160  0.2146  0.0070
 3674TIP3    H132437   2.965   2.482   5.828 -0.1884  0.5582 -0.3321
 3674TIP3    H232438   3.098   2.424   5.870 -0.0079  2.0359  1.2477
 3675TIP3   OH232439   6.354   5.963   3.495  0.1120 -0.4643  0.0197
 3675TIP3    H132440   6.392   5.930   3.413 -0.4558 -0.9163 -0.0637
 3675TIP3    H232441   6.361   6.058   3.488  1.0191 -0.5270 -0.0956
 3676TIP3   OH232442   5.959   0.165  16.052 -0.1563 -0.7519  0.1658
 3676TIP3    H132443   5.904   0.086  16.059 -0.4808 -0.4661  0.9491
 3676TIP3    H232444   5.996   0.160  15.964 -1.4976 -0.9253 -0.4252
 3677TIP3   OH232445   3.458   2.171  12.896 -0.3607  0.4577 -0.2802
 3677TIP3    H132446   3.509   2.090  12.899  2.5230  2.1652  0.2399
 3677TIP3    H232447   3.479   2.209  12.811  0.2072  1.7471  0.4141
 3678TIP3   OH232448   1.456   2.939  13.161 -0.2313  0.1119 -0.1058
 3678TIP3    H132449   1.549   2.914  13.160 -0.0284  0.8627 -0.4874
 3678TIP3    H232450   1.426   2.923  13.072 -0.1456  1.0274 -0.3085
 3679TIP3   OH232451   2.320   3.488   5.209  0.3793  0.7218  0.3076
 3679TIP3    H132452   2.229   3.518   5.205  0.1551 -0.0484 -2.4068
 3679TIP3    H232453   2.372   3.567   5.196 -0.0008  0.8229 -0.6523
 3680TIP3   OH232454   5.113   6.047  11.861  0.4763  0.2815 -0.3927
 3680TIP3    H132455   5.054   6.062  11.787  1.9031 -0.7590 -1.8232
 3680TIP3    H232456   5.193   6.014  11.820  2.1545  1.8678  1.4319
 3681TIP3   OH232457   4.142   6.550   2.580 -0.0549 -0.4518 -0.2970
 3681TIP3    H132458   4.217   6.525   2.634 -0.9856 -1.5820  0.5355
 3681TIP3    H232459   4.118   6.638   2.611  0.3745 -0.4575  0.0632
 3682TIP3   OH232460   2.548   4.226  13.391 -0.6104  0.1791  0.0428
 3682TIP3    H132461   2.610   4.249  13.459  0.0537  0.7341 -0.7271
 3682TIP3    H232462   2.544   4.130  13.393  0.2474  0.1391  0.1291
 3683TIP3   OH232463   2.551   2.285  14.221  0.1468 -0.2575  0.0667
 3683TIP3    H132464   2.606   2.217  14.258  1.4291  0.5003 -0.3646
 3683TIP3    H232465   2.533   2.344  14.294 -0.3684 -0.6700  0.2784
 3684TIP3   OH232466   5.588   1.730   3.551 -0.0347 -0.5171 -0.0363
 3684TIP3    H132467   5.609   1.822   3.567 -1.9987 -0.3083  1.8712
 3684TIP3    H232468   5.669   1.692   3.517  1.1464  1.6632  0.1836
 3685TIP3   OH232469   3.164   2.910  17.101  0.0977  0.0407  0.1780
 3685TIP3    H132470   3.112   2.899  17.021 -0.8238  0.3860  0.7177
 3685TIP3    H232471   3.231   2.841  17.095 -2.0865 -2.2800  0.7537
 3686TIP3   OH232472   3.032   3.451  13.445  0.1622  0.3538 -0.1977
 3686TIP3    H132473   3.024   3.516  13.375 -0.1988 -0.4342 -0.9120
 3686TIP3    H232474   3.002   3.497  13.523 -0.9815  0.7782 -0.8544
 3687TIP3   OH232475   0.177   5.379  14.809 -0.0234 -0.7010  0.1575
 3687TIP3    H132476   0.178   5.474  14.793 -0.1641 -0.7300 -0.0217
 3687TIP3    H232477   0.196   5.340  14.724 -1.6802 -0.8845 -0.1637
 3688TIP3   OH232478   6.276   4.791  13.410 -0.2233  0.2074  0.2519
 3688TIP3    H132479   6.349   4.829  13.459  0.1322  0.1239 -0.2203
 3688TIP3    H232480   6.297   4.698  13.402 -1.1695 -0.1598  1.5470
 3689TIP3   OH232481   1.863   3.377  14.405  0.0830  0.0056 -0.0403
 3689TIP3    H132482   1.878   3.471  14.393 -1.5614  0.4111  0.8782
 3689TIP3    H232483   1.942   3.346  14.451  0.3173  1.0735  0.2978
 3690TIP3   OH232484   0.264   5.301  12.724  0.5221  0.1920  0.5491
 3690TIP3    H132485   0.335   5.359  12.696  0.2587 -0.4490 -1.6621
 3690TIP3    H232486   0.206   5.295  12.648 -0.1667 -1.9069  1.1501
 3691TIP3   OH232487   6.632   3.602   0.789  0.2750 -0.1062 -0.1508
 3691TIP3    H132488   6.686   3.642   0.721  1.2093  2.1662  1.7564
 3691TIP3    H232489   6.561   3.560   0.742  0.7477  1.5491 -2.5228
 3692TIP3   OH232490   4.663   4.617   4.479  0.6314  0.1156 -0.9332
 3692TIP3    H132491   4.605   4.690   4.457  0.0825 -0.6723 -2.2418
 3692TIP3    H232492   4.649   4.553   4.409 -0.4575 -2.1642  1.1859
 3693TIP3   OH232493   2.579   4.246   0.134  0.1887  0.3620  0.0481
 3693TIP3    H132494   2.638   4.253   0.059  1.5751  1.0574  1.1341
 3693TIP3    H232495   2.501   4.203   0.100 -0.0598  2.4125 -2.2660
 3694TIP3   OH232496   0.699   5.325  10.786  0.6158  0.3236 -0.7835
 3694TIP3    H132497   0.788   5.347  10.813  0.2897  1.2948 -0.4584
 3694TIP3    H232498   0.664   5.406  10.747 -1.2942  1.1517  2.2699
 3695TIP3   OH232499   0.841   2.984  16.118 -0.5615 -0.2606 -0.1084
 3695TIP3    H132500   0.836   3.069  16.162  0.3268  0.1687 -0.8065
 3695TIP3    H232501   0.886   3.002  16.035 -1.0024 -1.2858 -0.5921
 3696TIP3   OH232502   5.802   6.088  13.587 -0.4262  0.4499 -0.6347
 3696TIP3    H132503   5.860   6.163  13.602 -1.4167  1.1665 -0.3269
 3696TIP3    H232504   5.827   6.057  13.500  0.5428  0.6298 -0.4375
 3697TIP3   OH232505   0.332   4.693  15.082 -0.2216  0.1375  0.8092
 3697TIP3    H132506   0.275   4.619  15.059  0.1781  0.4772 -1.5278
 3697TIP3    H232507   0.397   4.695  15.012  1.7445  0.7436  2.5660
 3698TIP3   OH232508   5.763   3.714   4.784 -0.3701  0.3363  0.3551
 3698TIP3    H132509   5.708   3.791   4.801 -2.2665 -0.6731 -0.8113
 3698TIP3    H232510   5.790   3.684   4.871 -2.5964  0.2895  1.1103
 3699TIP3   OH232511   4.174   2.287  12.520  0.2258 -0.2545  0.1814
 3699TIP3    H132512   4.244   2.339  12.479 -0.2832  0.7246  0.5282
 3699TIP3    H232513   4.168   2.208  12.466 -0.4172  0.9930 -1.6664
 3700TIP3   OH232514   0.442   5.557  13.474 -0.4839  0.1583 -0.3795
 3700TIP3    H132515   0.412   5.610  13.547 -1.2371  0.0478 -0.6006
 3700TIP3    H232516   0.538   5.556  13.483 -0.6194 -0.9632  1.3705
 3701TIP3   OH232517   3.948   5.624   0.365  0.6654  0.1530  0.6139
 3701TIP3    H132518   3.955   5.692   0.298  2.6583 -1.5391 -1.0460
 3701TIP3    H232519   4.024   5.638   0.421  0.5857 -0.1748  0.8043
 3702TIP3   OH232520   4.376   3.256   0.519  0.3528  0.4740 -0.2286
 3702TIP3    H132521   4.388   3.281   0.428 -0.6771  1.5559 -0.0809
 3702TIP3    H232522   4.293   3.209   0.521 -0.2267  1.4840  0.3228
 3703TIP3   OH232523   3.633   1.767   0.130 -0.2630 -0.1389 -0.3297
 3703TIP3    H132524   3.686   1.689   0.145  2.2398  1.3932 -0.6184
 3703TIP3    H232525   3.605   1.760   0.039 -3.5983 -2.5929  0.6912
 3704TIP3   OH232526   3.129   3.438   0.690  0.0014 -0.4187 -0.5657
 3704TIP3    H132527   3.120   3.455   0.596  1.5712 -3.5188 -1.4196
 3704TIP3    H232528   3.189   3.363   0.695  1.3636  0.7055  3.0176
 3705TIP3   OH232529   5.542   0.448  13.197  0.4802 -0.4972 -0.2133
 3705TIP3    H132530   5.459   0.448  13.150 -0.3860 -2.9596  1.1285
 3705TIP3    H232531   5.608   0.463  13.130 -0.9760  0.9263 -1.4022
 3706TIP3   OH232532   4.581   1.249   2.799  0.2037 -0.2879  0.1085
 3706TIP3    H132533   4.604   1.221   2.710  0.6164 -0.3261  0.2250
 3706TIP3    H232534   4.574   1.344   2.793 -0.0480 -0.3147 -0.0284
 3707TIP3   OH232535   5.574   3.541  13.648  0.4094  0.2731 -0.3460
 3707TIP3    H132536   5.545   3.575  13.564  0.9965 -0.2534 -0.7731
 3707TIP3    H232537   5.570   3.616  13.707 -3.1351 -0.0148  0.0049
 3708TIP3   OH232538   0.715   6.385   4.406  0.2439 -0.2418  0.2094
 3708TIP3    H132539   0.733   6.416   4.495 -0.5127  0.4797  0.1241
 3708TIP3    H232540   0.760   6.448   4.349 -0.6049  0.2311  0.0522
 3709TIP3   OH232541   5.898   1.578   3.006 -0.2254  0.6877  0.1600
 3709TIP3    H132542   5.848   1.526   3.069 -0.0275 -1.3038 -1.2226
 3709TIP3    H232543   5.888   1.669   3.035  0.7697 -0.2008  3.6812
 3710TIP3   OH232544   2.015   1.807  10.871  0.2748 -0.2449 -0.1112
 3710TIP3    H132545   2.032   1.733  10.929 -0.1752 -0.2848 -0.0279
 3710TIP3    H232546   2.086   1.868  10.888 -1.0009  0.7347  2.1145
 3711TIP3   OH232547   3.478   1.577   1.022  0.3275 -0.0528  0.0451
 3711TIP3    H132548   3.495   1.663   0.982  1.9487 -1.5473 -2.8111
 3711TIP3    H232549   3.516   1.514   0.960 -0.2964 -2.8327  2.2935
 3712TIP3   OH232550   6.545   5.837  12.791 -0.2851  0.4619 -0.1361
 3712TIP3    H132551   6.570   5.834  12.698  1.5008  0.4812  0.2928
 3712TIP3    H232552   6.545   5.746  12.819  1.3994  0.5738  0.3401
 3713TIP3   OH232553   4.682   5.727   4.982 -0.7172 -0.2721  0.0798
 3713TIP3    H132554   4.691   5.744   5.076 -2.5106  0.7175  0.1184
 3713TIP3    H232555   4.604   5.672   4.975 -0.5006 -0.4758 -0.8184
 3714TIP3   OH232556   2.392   5.118   4.909 -0.2575  0.2276 -0.2456
 3714TIP3    H132557   2.322   5.162   4.860  0.9201  2.6455  0.1296
 3714TIP3    H232558   2.468   5.124   4.851  0.6391  1.3147  1.0054
 3715TIP3   OH232559   4.304   2.096   1.030  0.0174  0.5489  0.4228
 3715TIP3    H132560   4.258   2.067   1.108  0.0194  0.4840  0.3995
 3715TIP3    H232561   4.361   2.167   1.060 -1.3453  1.8172  0.1743
 3716TIP3   OH232562   0.428   4.570  16.457  0.0351  0.2670  0.0381
 3716TIP3    H132563   0.391   4.616  16.533  0.5611  1.3319 -0.3351
 3716TIP3    H232564   0.371   4.595  16.384  0.2447  0.2204 -0.1417
 3717TIP3   OH232565   5.473   2.154   2.068  0.0166  0.2544 -0.3321
 3717TIP3    H132566   5.404   2.153   2.002 -1.1269 -1.2747  0.7938
 3717TIP3    H232567   5.452   2.080   2.125  1.1057  1.3270  1.5699
 3718TIP3   OH232568   5.989   5.140   3.065 -0.2365 -0.1779 -0.7905
 3718TIP3    H132569   5.970   5.205   2.997 -2.9378 -1.6474 -1.6054
 3718TIP3    H232570   6.084   5.128   3.061 -0.0275  1.5274 -2.6578
 3719TIP3   OH232571   2.933   0.522  12.070  0.1669 -0.6283  0.9412
 3719TIP3    H132572   2.964   0.432  12.078 -0.0203 -0.7745  0.0902
 3719TIP3    H232573   2.902   0.529  11.980  0.7634  0.4762  0.8090
 3720TIP3   OH232574   1.460   2.872   5.701  0.3061 -0.1201  0.1626
 3720TIP3    H132575   1.548   2.891   5.734  0.8153 -1.6955 -0.2106
 3720TIP3    H232576   1.442   2.783   5.730 -0.0548 -0.8250 -2.0573
 3721TIP3   OH232577   0.209   6.379   4.134 -0.0692  0.4795 -0.4510
 3721TIP3    H132578   0.189   6.426   4.052  0.9698  0.2370 -0.8504
 3721TIP3    H232579   0.303   6.364   4.131 -0.5033 -2.6994 -0.9041
 3722TIP3   OH232580   4.822   1.271  13.860  0.1359  0.7243 -0.0571
 3722TIP3    H132581   4.895   1.317  13.901 -0.7561  1.1534  1.0873
 3722TIP3    H232582   4.773   1.233  13.932 -0.4955  0.0008 -0.8399
 3723TIP3   OH232583   1.726   2.049  15.119 -0.2594  0.0778 -0.4102
 3723TIP3    H132584   1.788   2.030  15.048 -1.5749  0.0187 -1.5946
 3723TIP3    H232585   1.671   2.119  15.085  0.3740  1.5331  1.4002
 3724TIP3   OH232586   0.633   4.085  15.324 -0.2226  0.4391 -0.2231
 3724TIP3    H132587   0.727   4.097  15.339 -0.2667 -0.4062  0.9542
 3724TIP3    H232588   0.594   4.169  15.346  0.2052  0.5880 -0.0190
 3725TIP3   OH232589   3.142   6.095  15.837  0.0279 -0.5355  0.4060
 3725TIP3    H132590   3.118   6.003  15.827  0.9984 -0.6073 -1.6990
 3725TIP3    H232591   3.066   6.143  15.802 -0.2084 -0.5305  0.9100
 3726TIP3   OH232592   3.925   3.969  12.019  0.2677  0.4271  0.7813
 3726TIP3    H132593   3.831   3.960  12.009  0.1065  0.5532  1.9886
 3726TIP3    H232594   3.943   4.062  12.002  0.6227 -0.1289 -2.3857
 3727TIP3   OH232595   2.452   0.044   3.738  0.2814 -0.2140  0.2407
 3727TIP3    H132596   2.512   0.001   3.677  1.2982 -0.3763  1.3137
 3727TIP3    H232597   2.506   0.111   3.780 -0.0356 -0.9440  1.8695
 3728TIP3   OH232598   4.137   4.445  15.972 -0.1200  0.0649  0.9478
 3728TIP3    H132599   4.217   4.473  15.928 -0.5781 -1.3228 -0.8849
 3728TIP3    H232600   4.161   4.439  16.065  1.6780  0.3776  0.5331
 3729TIP3   OH232601   5.229   3.231  15.049  0.1355 -0.3870  0.3114
 3729TIP3    H132602   5.202   3.258  14.961  0.3669  1.6039  0.8188
 3729TIP3    H232603   5.310   3.278  15.065  0.8428 -1.7983  1.0966
 3730TIP3   OH232604   2.926   5.215  14.397 -0.0439  0.4543 -0.4017
 3730TIP3    H132605   2.853   5.258  14.351 -0.8900  1.8531  2.0653
 3730TIP3    H232606   2.948   5.275  14.468  2.5950 -0.6319 -0.1958
 3731TIP3   OH232607   0.886   4.733   3.302  0.1579  0.0637  0.7683
 3731TIP3    H132608   0.881   4.827   3.322 -0.0511 -0.3779  3.0438
 3731TIP3    H232609   0.795   4.704   3.299  0.2082 -0.0007 -0.3706
 3732TIP3   OH232610   0.128   5.327  11.259  0.3382  0.8020 -0.1160
 3732TIP3    H132611   0.185   5.403  11.259  0.5017  0.6806  0.2304
 3732TIP3    H232612   0.162   5.271  11.189  0.4223  0.8920 -0.1465
 3733TIP3   OH232613   4.062   5.151   3.764  0.3118  0.0093 -0.0319
 3733TIP3    H132614   4.119   5.209   3.712  0.6930 -1.0176 -0.7971
 3733TIP3    H232615   3.993   5.208   3.797  0.7627  0.9323 -0.6447
 3734TIP3   OH232616   0.612   0.138   1.645 -0.5192  0.4403 -0.2265
 3734TIP3    H132617   0.520   0.140   1.670 -0.0888  0.1361  1.5280
 3734TIP3    H232618   0.646   0.059   1.686  0.4525  0.3556 -1.1576
 3735TIP3   OH232619   4.329   5.083   5.329 -0.2867  0.0895  0.3019
 3735TIP3    H132620   4.328   5.013   5.394 -0.6659  0.3070  0.5318
 3735TIP3    H232621   4.329   5.163   5.380  1.4439  0.2767  0.0668
 3736TIP3   OH232622   1.409   4.848   0.963  0.7856 -0.2555  0.3129
 3736TIP3    H132623   1.482   4.899   0.928  0.3763  0.2775  0.2176
 3736TIP3    H232624   1.333   4.880   0.914  0.4865 -0.7926  0.4231
 3737TIP3   OH232625   2.352   5.076   2.720  0.0641 -0.2631 -0.3365
 3737TIP3    H132626   2.300   4.996   2.736 -0.9267  0.3178 -0.5368
 3737TIP3    H232627   2.380   5.068   2.629  1.6896 -1.3235  0.2222
 3738TIP3   OH232628   1.975   4.302   3.151 -0.0307  0.2194  0.3799
 3738TIP3    H132629   1.988   4.395   3.171 -1.8807  0.4036  0.8560
 3738TIP3    H232630   1.981   4.297   3.056  0.4586  0.7402  0.3733
 3739TIP3   OH232631   1.859   6.520   0.761  0.4652 -0.3745  0.3973
 3739TIP3    H132632   1.894   6.433   0.780 -1.3783 -1.3109 -0.3005
 3739TIP3    H232633   1.851   6.521   0.665 -0.9647 -0.0352  0.5119
 3740TIP3   OH232634   3.961   4.572  15.080 -0.3064 -0.0240 -0.0765
 3740TIP3    H132635   3.869   4.565  15.104 -0.1410 -0.2441  0.5277
 3740TIP3    H232636   4.005   4.506  15.134  0.2021  0.0785 -0.3553
 3741TIP3   OH232637   3.009   0.894   0.112  0.2068  0.1294 -0.2185
 3741TIP3    H132638   3.053   0.948   0.178  1.9400 -0.6259 -0.7262
 3741TIP3    H232639   3.070   0.889   0.039 -1.1101 -0.2043 -1.3505
 3742TIP3   OH232640   6.075   2.513  17.066 -0.6055 -0.8086 -0.0393
 3742TIP3    H132641   6.129   2.531  16.989  0.6223 -1.3220  0.6632
 3742TIP3    H232642   6.014   2.587  17.070  0.9363  0.5450 -0.1232
 3743TIP3   OH232643   3.228   1.406  17.410  0.1612  0.7662 -0.1846
 3743TIP3    H132644   3.197   1.322  17.376  1.0847  0.2797  0.1348
 3743TIP3    H232645   3.315   1.416  17.372  1.8791 -0.5047  3.0581
 3744TIP3   OH232646   5.010   6.420   1.330  0.4058  0.2427 -0.3461
 3744TIP3    H132647   5.077   6.471   1.376  0.2654 -0.4497  0.6604
 3744TIP3    H232648   4.957   6.382   1.400 -0.0168 -0.5704 -1.0928
 3745TIP3   OH232649   0.946   1.488  13.786 -0.7372  0.2626 -0.1998
 3745TIP3    H132650   0.886   1.490  13.860 -1.6919 -1.4255 -0.8636
 3745TIP3    H232651   0.968   1.395  13.775  0.0851  0.5719 -1.4674
 3746TIP3   OH232652   1.747   5.645   4.009  0.0711 -0.9268 -0.3043
 3746TIP3    H132653   1.754   5.550   4.007  1.8836 -0.8219 -0.9171
 3746TIP3    H232654   1.754   5.672   3.918  0.9261 -0.1595 -0.0338
 3747TIP3   OH232655   0.973   5.721  12.275 -0.0229  0.3543 -0.1279
 3747TIP3    H132656   1.059   5.721  12.232  0.8022  0.9533  1.4168
 3747TIP3    H232657   0.975   5.644  12.331 -0.6666  0.1344 -0.4109
 3748TIP3   OH232658   3.093   2.260  12.289 -0.2677 -0.5473 -0.2209
 3748TIP3    H132659   3.150   2.226  12.220 -1.3079 -2.5331 -0.1792
 3748TIP3    H232660   3.076   2.184  12.345 -3.3665 -0.2211 -0.5261
 3749TIP3   OH232661   0.656   0.176   4.641 -0.1561  0.0896  0.1703
 3749TIP3    H132662   0.565   0.156   4.664  0.4139  1.1862  4.1075
 3749TIP3    H232663   0.708   0.109   4.686  1.0822  0.8007 -0.1513
 3750TIP3   OH232664   1.684   1.069  16.808  0.0232  0.4469  0.1448
 3750TIP3    H132665   1.591   1.067  16.830 -0.3103 -0.4378 -1.1902
 3750TIP3    H232666   1.695   0.996  16.747  1.3906  1.1568 -0.4932
 3751TIP3   OH232667   3.645   4.898  13.749 -0.2770 -0.4365 -0.3704
 3751TIP3    H132668   3.732   4.935  13.731 -0.6018  0.5259 -0.0443
 3751TIP3    H232669   3.631   4.912  13.842 -1.1463  0.2472 -0.5840
 3752TIP3   OH232670   5.487   0.602  12.287  0.1093 -0.1012  0.2805
 3752TIP3    H132671   5.582   0.612  12.284  0.1770 -0.8632 -0.3763
 3752TIP3    H232672   5.460   0.653  12.364  0.9830  0.5480  0.1707
 3753TIP3   OH232673   1.131   1.385   1.823  0.2540 -0.2845  1.1329
 3753TIP3    H132674   1.073   1.378   1.748  0.2256  0.2147  1.1029
 3753TIP3    H232675   1.076   1.364   1.899 -0.3355  1.4919  1.2456
 3754TIP3   OH232676   2.687   0.416   1.916 -0.6994  0.3675 -0.3310
 3754TIP3    H132677   2.636   0.440   1.839 -1.1671 -1.5975 -0.6980
 3754TIP3    H232678   2.743   0.344   1.886  0.9360  1.2019  0.5616
 3755TIP3   OH232679   0.220   3.295  14.853 -0.5249 -0.3402  0.3410
 3755TIP3    H132680   0.193   3.207  14.878 -0.0400 -0.6957 -0.3474
 3755TIP3    H232681   0.305   3.307  14.894 -0.9199  0.1070  1.0553
 3756TIP3   OH232682   6.190   4.039   5.492  0.2493 -0.2473 -0.3010
 3756TIP3    H132683   6.106   4.077   5.464  1.4553  1.5911 -1.7206
 3756TIP3    H232684   6.241   4.033   5.411  1.1423 -2.3353  0.3591
 3757TIP3   OH232685   3.879   2.175  12.972  0.4443 -0.2117 -0.0163
 3757TIP3    H132686   3.969   2.152  12.949 -0.0475 -1.0314 -1.1904
 3757TIP3    H232687   3.847   2.101  13.024  0.3036 -0.1279  0.0188
 3758TIP3   OH232688   1.013   0.625  16.915  0.0496  0.2456 -0.1769
 3758TIP3    H132689   1.085   0.633  16.852  0.4374 -2.7527 -0.2593
 3758TIP3    H232690   0.950   0.567  16.872  1.0683 -3.3157  2.6162
 3759TIP3   OH232691   3.578   1.138  14.092 -0.6764  0.0207  0.1284
 3759TIP3    H132692   3.486   1.165  14.094 -0.0794  2.5440 -1.8769
 3759TIP3    H232693   3.594   1.115  14.000  0.9431  0.6032  0.2413
 3760TIP3   OH232694   4.324   6.529   0.034 -0.1885  0.1145  0.2433
 3760TIP3    H132695   4.375   6.466   0.084 -1.5257  0.8000  2.6373
 3760TIP3    H232696   4.382   6.605   0.025 -0.0179  0.0931  1.0665
 3761TIP3   OH232697   1.973   6.309  17.078  0.0495 -0.3903  1.0763
 3761TIP3    H132698   1.999   6.252  17.150 -2.8020 -1.0720  1.7152
 3761TIP3    H232699   1.928   6.251  17.017  0.0517  0.6212  0.0779
 3762TIP3   OH232700   2.488   5.344  14.813 -0.2356  0.1331  0.0027
 3762TIP3    H132701   2.536   5.274  14.767  0.5628 -0.5661  1.8157
 3762TIP3    H232702   2.547   5.419  14.811  0.1754 -0.1623  0.6031
 3763TIP3   OH232703   4.272   2.211   5.726  0.4358 -0.1696  0.0423
 3763TIP3    H132704   4.220   2.238   5.651 -0.8570 -0.3120  0.8628
 3763TIP3    H232705   4.306   2.125   5.701 -1.5636 -1.0940  0.3269
 3764TIP3   OH232706   2.696   5.551  13.736  0.5793  0.8181 -0.0848
 3764TIP3    H132707   2.760   5.582  13.800 -0.7816 -0.0868  1.7917
 3764TIP3    H232708   2.653   5.630  13.705  0.6295  1.2046  0.8050
 3765TIP3   OH232709   3.829   6.296  15.265  0.1207 -0.1990 -0.2325
 3765TIP3    H132710   3.815   6.369  15.204 -0.0919 -0.5677 -0.6290
 3765TIP3    H232711   3.741   6.273  15.295  0.3206  0.8712  1.2882
 3766TIP3   OH232712   6.375   3.177   1.403  0.0951 -0.0339  0.0951
 3766TIP3    H132713   6.349   3.265   1.375  0.7281 -0.4250 -1.8712
 3766TIP3    H232714   6.457   3.190   1.451 -0.4456  0.5627  0.8638
 3767TIP3   OH232715   1.757   2.855  12.814  0.3738 -0.1646  0.4635
 3767TIP3    H132716   1.751   2.817  12.901  1.5938 -1.8351 -0.1209
 3767TIP3    H232717   1.845   2.891  12.809 -0.0842  0.9782  0.2936
 3768TIP3   OH232718   5.358   4.030  11.756  0.7867 -0.8646 -0.1588
 3768TIP3    H132719   5.419   4.017  11.683 -1.3077 -2.6979 -1.7206
 3768TIP3    H232720   5.326   3.943  11.777 -1.3723  0.0245  0.5138
 3769TIP3   OH232721   4.319   0.262   1.728  0.2772  0.5679 -0.1390
 3769TIP3    H132722   4.320   0.169   1.706  0.0829  0.4952  0.1551
 3769TIP3    H232723   4.410   0.281   1.752  0.1421  0.2439  0.6531
 3770TIP3   OH232724   4.750   2.045  14.386 -0.0421 -0.9042 -0.0592
 3770TIP3    H132725   4.713   1.962  14.355  0.1374 -1.2419  0.6056
 3770TIP3    H232726   4.764   2.031  14.480  1.3102 -0.6103 -0.2045
 3771TIP3   OH232727   1.717   1.950  13.699 -0.1829  0.2613  0.0412
 3771TIP3    H132728   1.759   2.018  13.647  0.2643  1.5745  2.0134
 3771TIP3    H232729   1.720   1.983  13.789  1.0691 -2.8769  1.2734
 3772TIP3   OH232730   1.545   0.482   6.136 -0.2143  0.3355  0.1197
 3772TIP3    H132731   1.585   0.445   6.215  1.9770  1.4338 -0.4161
 3772TIP3    H232732   1.468   0.529   6.169  0.1501  0.0379  1.4850
 3773TIP3   OH232733   0.515   1.188  16.603 -0.1502  0.7384 -0.2889
 3773TIP3    H132734   0.567   1.211  16.680  1.5144 -2.4259 -0.2667
 3773TIP3    H232735   0.436   1.147  16.639  0.0861  0.3272 -0.2180
 3774TIP3   OH232736   2.796   1.441   4.980  0.6361 -0.3739 -0.4120
 3774TIP3    H132737   2.778   1.378   5.050 -1.6765 -2.5816 -2.7443
 3774TIP3    H232738   2.870   1.403   4.932  1.3181  0.4142 -0.0101
 3775TIP3   OH232739   2.766   1.696  11.975  0.0236  0.6819 -0.0439
 3775TIP3    H132740   2.750   1.700  11.881 -1.0067 -3.0384 -0.1661
 3775TIP3    H232741   2.862   1.699  11.983  0.1189  1.0858 -1.1964
 3776TIP3   OH232742   2.582   0.226   3.865 -0.1105  0.0960  0.1628
 3776TIP3    H132743   2.525   0.293   3.902  1.2565  0.5777  1.4573
 3776TIP3    H232744   2.665   0.236   3.911  1.2254 -0.2384 -2.0218
 3777TIP3   OH232745   3.912   0.492   2.014  0.2652 -0.2261 -0.2441
 3777TIP3    H132746   3.968   0.420   1.983 -0.7007 -1.7925  1.4247
 3777TIP3    H232747   3.825   0.471   1.980  0.2316  0.9454 -0.9164
 3778TIP3   OH232748   3.551   3.872   0.492 -0.1861 -0.0368  0.1022
 3778TIP3    H132749   3.538   3.794   0.546  0.1745 -0.7595 -0.8039
 3778TIP3    H232750   3.535   3.841   0.402 -1.2118  1.2210 -0.1756
 3779TIP3   OH232751   5.431   2.989  16.174 -0.1506 -0.3021 -0.6491
 3779TIP3    H132752   5.439   3.009  16.267 -0.1421  1.7461 -1.0389
 3779TIP3    H232753   5.514   3.019  16.136 -0.4501 -0.4340 -1.4163
 3780TIP3   OH232754   2.447   5.561   4.774 -0.0751 -0.6640 -0.5161
 3780TIP3    H132755   2.496   5.596   4.700  2.1525 -0.5948  0.9103
 3780TIP3    H232756   2.408   5.480   4.740 -0.0437 -0.0870 -2.0337
 3781TIP3   OH232757   4.758   3.492  15.389 -0.0765  0.9735  0.2785
 3781TIP3    H132758   4.667   3.478  15.416 -0.2142 -0.1327 -0.7088
 3781TIP3    H232759   4.754   3.501  15.294  0.9257  0.1855  0.1462
 3782TIP3   OH232760   2.593   2.494  11.927 -0.3861 -0.3496 -0.5306
 3782TIP3    H132761   2.582   2.513  11.834 -0.6479  0.4012 -0.3547
 3782TIP3    H232762   2.667   2.549  11.954  0.4282 -1.4143 -0.5374
 3783TIP3   OH232763   6.274   5.756   1.140 -0.1515  0.2912 -0.2826
 3783TIP3    H132764   6.251   5.847   1.127 -1.2788  0.0846  0.1856
 3783TIP3    H232765   6.365   5.749   1.109  1.1290  2.2576  2.6197
 3784TIP3   OH232766   3.660   0.308   3.002  0.1708 -0.1138 -0.5748
 3784TIP3    H132767   3.606   0.351   2.936  1.0707  0.8958 -0.6689
 3784TIP3    H232768   3.677   0.376   3.068  0.8009 -0.5886 -0.2319
 3785TIP3   OH232769   1.023   3.129   1.718  0.0860  0.2015 -0.1251
 3785TIP3    H132770   1.062   3.053   1.675 -0.0065 -0.0088  0.1569
 3785TIP3    H232771   1.088   3.199   1.708 -0.0925  0.2665 -0.9345
 3786TIP3   OH232772   4.644   2.071  16.402  0.0614  0.1325  0.1245
 3786TIP3    H132773   4.563   2.020  16.399  0.1261  0.0803 -0.9046
 3786TIP3    H232774   4.713   2.006  16.415 -0.2030  0.3491  3.8144
 3787TIP3   OH232775   2.071   4.371  17.233  0.3078 -0.5896  0.2259
 3787TIP3    H132776   2.118   4.379  17.316  3.2784  0.1133 -1.3816
 3787TIP3    H232777   2.039   4.459  17.215 -1.5654 -1.0119  1.1821
 3788TIP3   OH232778   2.996   2.916  14.515  0.1970  0.2784  0.1242
 3788TIP3    H132779   3.034   3.002  14.499 -0.1106  0.1285 -1.5929
 3788TIP3    H232780   2.996   2.873  14.429 -1.0770 -0.8537  0.6466
 3789TIP3   OH232781   3.022   6.067   5.216  0.0054  0.7662  0.1532
 3789TIP3    H132782   3.034   6.020   5.298 -0.3206 -1.9660 -1.2381
 3789TIP3    H232783   2.949   6.127   5.234 -0.2293  0.0589  1.7889
 3790TIP3   OH232784   5.905   5.037  15.648 -0.4520 -0.0210  0.7935
 3790TIP3    H132785   5.900   5.087  15.566 -0.9685 -0.3284  0.6305
 3790TIP3    H232786   5.955   4.958  15.624  0.2201  0.3328  1.0102
 3791TIP3   OH232787   5.809   1.841   5.699 -0.1952 -0.6224  0.4871
 3791TIP3    H132788   5.809   1.904   5.772 -1.1214  1.7286 -1.3830
 3791TIP3    H232789   5.732   1.864   5.649  1.0081 -1.3922 -1.8475
 3792TIP3   OH232790   1.153   1.856  13.090 -0.7054  0.0644  0.2296
 3792TIP3    H132791   1.132   1.815  13.006 -0.8756  0.9395 -0.1664
 3792TIP3    H232792   1.248   1.867  13.089 -0.8892  1.8173 -0.6909
 3793TIP3   OH232793   6.447   4.832  15.538 -0.1391  0.2859  0.5818
 3793TIP3    H132794   6.374   4.826  15.477  2.4120 -3.3378 -2.5890
 3793TIP3    H232795   6.502   4.901  15.502  0.2111 -0.2204  0.1239
 3794TIP3   OH232796   0.773   2.098   5.256  0.0223 -0.1183  0.1734
 3794TIP3    H132797   0.714   2.115   5.329  1.9035 -1.5251  2.1661
 3794TIP3    H232798   0.758   2.170   5.195 -3.0279  0.0661  0.9925
 3795TIP3   OH232799   0.182   2.661  15.253  0.0444  0.3283 -0.5684
 3795TIP3    H132800   0.203   2.571  15.229  3.1722  0.2247  1.7768
 3795TIP3    H232801   0.176   2.708  15.170 -0.0942 -1.7321 -1.7828
 3796TIP3   OH232802   2.210   1.563   1.108  0.1342  0.4807 -0.0685
 3796TIP3    H132803   2.294   1.576   1.150  0.3008  0.3974 -0.3721
 3796TIP3    H232804   2.217   1.611   1.025  0.4555 -0.8223 -0.8161
 3797TIP3   OH232805   5.253   1.117   0.244  0.2894  0.1741  0.1661
 3797TIP3    H132806   5.183   1.126   0.308 -1.2261 -0.6736 -1.2978
 3797TIP3    H232807   5.333   1.109   0.296 -0.9234 -0.9884  1.9551
 3798TIP3   OH232808   3.460   4.580   6.106 -0.8571  0.2268  0.2169
 3798TIP3    H132809   3.509   4.532   6.038 -0.3123 -0.2270  0.9142
 3798TIP3    H232810   3.428   4.658   6.062  0.8037  0.7210 -0.1806
 3799TIP3   OH232811   4.974   0.512  16.966  0.0548  0.7803 -0.3041
 3799TIP3    H132812   4.922   0.580  17.008  0.8523  1.9045 -1.0821
 3799TIP3    H232813   4.987   0.446  17.034  1.9641  2.8841  1.5048
 3800TIP3   OH232814   1.495   2.420  14.826  0.5083 -0.3321 -0.7531
 3800TIP3    H132815   1.522   2.471  14.750  0.1437  0.0824 -0.6106
 3800TIP3    H232816   1.426   2.362  14.793 -1.3610  1.4917 -0.2906
 3801TIP3   OH232817   3.799   2.787  13.882 -0.1109  0.6550 -0.2960
 3801TIP3    H132818   3.797   2.771  13.976  2.0781 -0.8170 -0.4240
 3801TIP3    H232819   3.713   2.758  13.851 -0.3448 -0.1958  1.0705
 3802TIP3   OH232820   6.657   6.484  15.654  0.6548  0.1711  0.3657
 3802TIP3    H132821   6.714   6.557  15.676  0.3595 -0.0635  2.0746
 3802TIP3    H232822   6.575   6.525  15.627  0.0306  0.5233  2.6139
 3803TIP3   OH232823   0.094   1.551  16.391  0.0708 -0.0531  0.2197
 3803TIP3    H132824   0.014   1.540  16.340  0.0931  1.7652 -0.3017
 3803TIP3    H232825   0.139   1.466  16.385 -1.0910 -0.6225 -0.7445
 3804TIP3   OH232826   5.518   5.368  13.424 -0.4464 -0.0582  0.1782
 3804TIP3    H132827   5.498   5.457  13.452 -0.1872  0.6489 -1.7390
 3804TIP3    H232828   5.444   5.316  13.455 -1.2507  1.0634  0.2016
 3805TIP3   OH232829   5.635   5.018   0.224  0.0906 -0.0923  0.5218
 3805TIP3    H132830   5.628   5.027   0.129  0.1779 -0.7656  0.4467
 3805TIP3    H232831   5.597   4.932   0.243 -0.4827  0.3033  1.1673
 3806TIP3   OH232832   6.183   1.653  12.320  0.0964 -0.6214  0.4501
 3806TIP3    H132833   6.195   1.721  12.254  0.0098 -0.7978  0.2509
 3806TIP3    H232834   6.126   1.588  12.278  0.8684 -1.2364  0.3234
 3807TIP3   OH232835   1.148   0.890   4.467  0.2654 -0.2747 -0.0883
 3807TIP3    H132836   1.226   0.839   4.447  0.0839 -0.6572  0.1640
 3807TIP3    H232837   1.162   0.922   4.556  0.1586 -0.3071 -0.0588
 3808TIP3   OH232838   0.882   5.042  12.114  0.0336 -0.4357  0.2618
 3808TIP3    H132839   0.860   4.998  12.031 -0.9442  0.6202 -0.0653
 3808TIP3    H232840   0.957   5.098  12.093  1.4409 -2.0395  0.7369
 3809TIP3   OH232841   1.047   0.879   0.221  0.3682  0.0216  0.3591
 3809TIP3    H132842   1.092   0.874   0.137  0.7284 -0.4214  0.5723
 3809TIP3    H232843   0.955   0.869   0.200  0.0717  3.0224 -0.3351
 3810TIP3   OH232844   4.930   5.863  16.029 -0.4520  0.2348  0.2163
 3810TIP3    H132845   4.912   5.786  16.084  0.7654 -0.9046 -0.9202
 3810TIP3    H232846   4.847   5.878  15.982 -0.3574 -1.1836 -0.4713
 3811TIP3   OH232847   5.454   5.827   3.776 -0.1580  0.0771 -0.0246
 3811TIP3    H132848   5.515   5.847   3.847  1.0887  1.9056 -1.5194
 3811TIP3    H232849   5.510   5.814   3.699 -1.5723  3.0119 -1.7245
 3812TIP3   OH232850   1.217   3.959   1.502 -0.1900  0.2371 -0.5242
 3812TIP3    H132851   1.225   3.961   1.406 -0.4470 -0.9566 -0.5961
 3812TIP3    H232852   1.130   3.996   1.519 -0.6203 -0.5887 -0.8514
 3813TIP3   OH232853   5.950   0.371  12.743 -0.5432 -0.0576  0.2575
 3813TIP3    H132854   6.008   0.303  12.776  0.2019  0.7273  0.6139
 3813TIP3    H232855   5.973   0.449  12.793  0.2265  1.0309 -1.6470
 3814TIP3   OH232856   4.921   3.873   5.615  0.0018  0.1441  0.4149
 3814TIP3    H132857   4.902   3.900   5.525  1.3840  1.2087  0.4112
 3814TIP3    H232858   4.988   3.934   5.645  0.4586 -0.9625  1.7591
 3815TIP3   OH232859   2.841   3.904  17.501  0.1048 -0.1727 -0.5204
 3815TIP3    H132860   2.813   3.914  17.592  0.3390 -0.0667 -0.4599
 3815TIP3    H232861   2.760   3.884  17.454 -0.0577  0.0103 -0.3259
 3816TIP3   OH232862   3.481   2.365   3.894  0.2670  0.3591  0.3422
 3816TIP3    H132863   3.510   2.298   3.833  1.0225 -1.5898  2.6682
 3816TIP3    H232864   3.548   2.433   3.890  0.8152 -0.2086 -0.2546
 3817TIP3   OH232865   6.475   0.905   1.953  0.4941 -0.5037 -0.1949
 3817TIP3    H132866   6.492   0.877   2.043  0.1122 -0.2958 -0.0565
 3817TIP3    H232867   6.393   0.954   1.958  0.9056  0.2311 -0.5138
 3818TIP3   OH232868   6.116   6.101  11.608 -0.2892 -0.5325 -0.2985
 3818TIP3    H132869   6.021   6.113  11.616 -0.0222  0.8900  1.6833
 3818TIP3    H232870   6.148   6.186  11.579  0.4968 -0.4866  0.6524
 3819TIP3   OH232871   4.127   0.325   5.053 -0.4140 -0.5202  0.1698
 3819TIP3    H132872   4.136   0.289   5.141  1.6136 -0.9442 -0.1714
 3819TIP3    H232873   4.113   0.419   5.067 -1.9766 -0.8260  0.9500
 3820TIP3   OH232874   1.340   6.720   5.665  0.2899  0.4992  0.0609
 3820TIP3    H132875   1.323   6.639   5.713 -1.5565  1.3768  0.9567
 3820TIP3    H232876   1.348   6.787   5.732 -0.9107  1.5080 -0.7552
 3821TIP3   OH232877   1.525   4.040  16.227  0.1398 -0.0008 -0.5458
 3821TIP3    H132878   1.567   3.957  16.250  2.8105  1.0404 -1.2625
 3821TIP3    H232879   1.556   4.102  16.293 -1.3672  0.6048 -0.3523
 3822TIP3   OH232880   2.449   5.541   2.168 -0.6179  0.1117 -0.4550
 3822TIP3    H132881   2.435   5.563   2.260 -1.2259  1.1257 -0.7714
 3822TIP3    H232882   2.479   5.623   2.128 -0.5663 -0.2592 -1.1962
 3823TIP3   OH232883   2.689   6.569  16.601  0.0080  0.1181 -0.7883
 3823TIP3    H132884   2.765   6.517  16.575 -1.7035 -2.8747 -0.2280
 3823TIP3    H232885   2.718   6.618  16.677  1.7825  0.2097 -1.4776
 3824TIP3   OH232886   3.153   3.835  13.534 -0.5650  0.6198  0.5197
 3824TIP3    H132887   3.240   3.859  13.566 -0.0357  0.1975 -0.5407
 3824TIP3    H232888   3.114   3.918  13.506 -0.6514  0.8585  1.3394
 3825TIP3   OH232889   3.804   1.754   3.143  0.2018  0.5122  0.5417
 3825TIP3    H132890   3.824   1.848   3.144  1.0267  0.3427  0.2460
 3825TIP3    H232891   3.819   1.727   3.053  1.3530 -0.1905  0.9278
 3826TIP3   OH232892   5.035   5.598   0.034 -0.0726 -0.1043  0.1586
 3826TIP3    H132893   4.950   5.637   0.014 -0.1941  0.9477  2.3612
 3826TIP3    H232894   5.014   5.507   0.059 -0.4683 -0.0549  0.0137
 3827TIP3   OH232895   1.970   5.979  15.368 -0.4666 -0.2355 -0.2978
 3827TIP3    H132896   1.904   6.029  15.417 -1.3565 -0.8372 -0.8498
 3827TIP3    H232897   1.942   5.985  15.277  1.0762  0.7153 -0.7436
 3828TIP3   OH232898   0.298   2.224   0.623 -1.0325  0.8653  0.4508
 3828TIP3    H132899   0.331   2.276   0.550 -0.1432  0.6150  0.6611
 3828TIP3    H232900   0.211   2.196   0.595 -0.7637  0.9024 -0.4473
 3829TIP3   OH232901   4.676   6.207   1.394 -0.0741 -0.1083 -0.0294
 3829TIP3    H132902   4.643   6.297   1.403  0.6832  0.0239  1.7539
 3829TIP3    H232903   4.766   6.212   1.425 -0.3099 -1.6661  0.9873
 3830TIP3   OH232904   5.165   5.097  15.162  0.1301  0.4975 -0.3084
 3830TIP3    H132905   5.083   5.095  15.113 -0.5096  0.2482  0.7612
 3830TIP3    H232906   5.195   5.006  15.163 -1.2821 -0.0312  2.0714
 3831TIP3   OH232907   1.560   4.301   4.580 -0.2958 -0.1596 -0.6072
 3831TIP3    H132908   1.585   4.263   4.665 -0.9832  1.0726  0.1713
 3831TIP3    H232909   1.610   4.250   4.516 -1.1929 -2.4216  0.3567
 3832TIP3   OH232910   4.006   3.383   2.308  0.3974 -0.0976 -0.3199
 3832TIP3    H132911   4.084   3.411   2.355 -0.0673  0.0082  0.4055
 3832TIP3    H232912   3.976   3.305   2.356 -0.9184  0.8585  0.4890
 3833TIP3   OH232913   6.372   5.950   2.802 -0.0603  0.1110  0.0434
 3833TIP3    H132914   6.351   5.867   2.846  0.6343  0.4863  1.1310
 3833TIP3    H232915   6.379   6.014   2.873 -3.5864  1.8501 -0.9868
 3834TIP3   OH232916   6.080   3.505  15.972  0.0153 -0.3889 -0.1778
 3834TIP3    H132917   6.053   3.535  15.886  0.7777  1.0306  0.0501
 3834TIP3    H232918   6.175   3.517  15.973  0.4373 -2.9597 -0.0900
 3835TIP3   OH232919   0.701   0.922   2.421 -0.2515  0.0809 -0.3030
 3835TIP3    H132920   0.768   0.880   2.366 -0.4472 -2.3327  1.1425
 3835TIP3    H232921   0.725   0.897   2.510 -3.1721 -1.0927  0.2440
 3836TIP3   OH232922   0.825   3.307  14.457 -0.4254  0.0870 -0.2233
 3836TIP3    H132923   0.806   3.222  14.416  0.1898  0.9291 -2.3290
 3836TIP3    H232924   0.807   3.372  14.389  0.0762  1.6001  1.0316
 3837TIP3   OH232925   0.352   5.995   5.621 -0.0404  0.4435  0.2539
 3837TIP3    H132926   0.364   6.077   5.572  0.0865  0.1370 -0.2350
 3837TIP3    H232927   0.366   6.020   5.712  1.7321  0.6336 -0.0332
 3838TIP3   OH232928   5.712   2.268  15.218  0.4235  0.0433  0.5906
 3838TIP3    H132929   5.756   2.347  15.249 -1.8841  1.7468 -0.1514
 3838TIP3    H232930   5.735   2.264  15.125  1.6595 -1.0234  0.9107
 3839TIP3   OH232931   0.639   1.114   4.305  0.2190  0.1287  0.5501
 3839TIP3    H132932   0.730   1.138   4.285 -0.5765  1.8922 -1.3141
 3839TIP3    H232933   0.604   1.190   4.352 -0.9774  0.5849 -1.0155
 3840TIP3   OH232934   4.407   2.288  13.226  0.0925  0.3303 -0.4811
 3840TIP3    H132935   4.327   2.260  13.181  0.1822  1.0882 -1.1271
 3840TIP3    H232936   4.477   2.244  13.178  0.1619  0.8512 -0.8662
 3841TIP3   OH232937   2.947   4.248   3.465  0.0573  0.2230 -0.1025
 3841TIP3    H132938   2.949   4.157   3.496  0.2464 -0.2610 -1.4621
 3841TIP3    H232939   2.873   4.288   3.512 -0.3934 -0.7940  0.0805
 3842TIP3   OH232940   2.729   4.230  13.132 -0.3495  0.0821 -0.1883
 3842TIP3    H132941   2.639   4.258  13.116 -0.5614 -0.5589 -0.1490
 3842TIP3    H232942   2.776   4.251  13.052 -0.4383  0.7949 -0.0574
 3843TIP3   OH232943   0.203   6.199  14.884  0.1513  0.8585  0.1193
 3843TIP3    H132944   0.258   6.216  14.961  0.3603  0.0496  0.1508
 3843TIP3    H232945   0.118   6.176  14.921  0.2016  0.6488  0.1037
 3844TIP3   OH232946   2.910   2.169   1.922 -0.1291 -0.7137 -0.0061
 3844TIP3    H132947   2.881   2.194   2.010  1.3625 -1.0517  0.6088
 3844TIP3    H232948   2.939   2.079   1.931 -2.3068 -1.6594 -1.4602
 3845TIP3   OH232949   1.525   4.013   0.854  0.3917 -0.1415  0.2081
 3845TIP3    H132950   1.537   3.948   0.785  1.2312  0.9551 -0.7403
 3845TIP3    H232951   1.431   4.029   0.856  0.4481  0.7244 -1.6257
 3846TIP3   OH232952   0.825   0.204  17.172 -0.6135  0.3566  0.0760
 3846TIP3    H132953   0.794   0.179  17.085  1.7366 -0.1579 -0.6750
 3846TIP3    H232954   0.920   0.194  17.167 -0.3420  1.3195  2.3973
 3847TIP3   OH232955   1.269   4.699   3.945  0.3281 -0.9137 -0.1665
 3847TIP3    H132956   1.236   4.727   3.860 -0.2293 -0.7940  0.0834
 3847TIP3    H232957   1.324   4.623   3.926  2.3827  0.6635 -0.9428
 3848TIP3   OH232958   3.638   4.241   6.122  0.0127 -0.7588  0.5065
 3848TIP3    H132959   3.689   4.263   6.200 -0.5789 -0.3883  0.8028
 3848TIP3    H232960   3.662   4.150   6.102 -1.0276 -1.4298  2.0930
 3849TIP3   OH232961   0.339   5.967  15.433  0.5234 -0.0021  0.0670
 3849TIP3    H132962   0.290   6.033  15.384  0.1956 -1.0697 -1.0970
 3849TIP3    H232963   0.359   6.009  15.517 -0.7060  1.1396 -0.1803
 3850TIP3   OH232964   1.702   6.128   0.449  0.0206 -0.1438 -0.3273
 3850TIP3    H132965   1.780   6.181   0.433  0.7836 -1.5685 -1.6541
 3850TIP3    H232966   1.729   6.039   0.429 -2.1383 -0.6067 -1.5754
 3851TIP3   OH232967   3.313   3.011   4.665 -0.4042  0.2931  0.2219
 3851TIP3    H132968   3.330   2.972   4.580 -1.6016  0.0137  0.0896
 3851TIP3    H232969   3.219   3.029   4.665 -0.5788 -0.4769  1.7911
 3852TIP3   OH232970   2.920   0.414   4.447 -0.1478 -0.3759  0.2088
 3852TIP3    H132971   2.990   0.371   4.397 -0.8442  0.9900 -2.0693
 3852TIP3    H232972   2.850   0.427   4.383 -2.3432 -1.2571  2.3037
 3853TIP3   OH232973   1.557   2.364  13.811  0.5400  0.2345  0.7767
 3853TIP3    H132974   1.553   2.316  13.729  0.8838  1.5791 -0.0597
 3853TIP3    H232975   1.608   2.308  13.870 -0.2655 -1.0367  0.3074
 3854TIP3   OH232976   2.507   6.599  11.799 -0.0650 -0.2639 -0.4438
 3854TIP3    H132977   2.488   6.678  11.851  0.1304 -0.0030 -0.7650
 3854TIP3    H232978   2.520   6.632  11.710 -1.7586 -0.8432 -0.9543
 3855TIP3   OH232979   4.851   4.432  15.573  0.2972  0.3802 -0.5174
 3855TIP3    H132980   4.828   4.405  15.485  0.1066  1.3046 -0.7651
 3855TIP3    H232981   4.909   4.507  15.561  0.1076  0.6436  0.1335
 3856TIP3   OH232982   4.788   5.422  16.518 -0.9888 -0.2988 -0.0287
 3856TIP3    H132983   4.754   5.510  16.502 -0.4693 -0.1417 -0.3336
 3856TIP3    H232984   4.860   5.435  16.579 -0.3323 -0.3868 -0.7567
 3857TIP3   OH232985   1.943   2.699  17.148 -0.5208 -0.1793  0.3468
 3857TIP3    H132986   2.034   2.727  17.139 -0.1899 -0.8768  1.2822
 3857TIP3    H232987   1.904   2.716  17.063  0.4057  0.4056  0.0212
 3858TIP3   OH232988   5.576   1.049   4.175 -0.3152  0.1432 -0.4752
 3858TIP3    H132989   5.653   0.992   4.164  0.7074  1.4371 -0.2185
 3858TIP3    H232990   5.586   1.086   4.262 -1.7655 -0.4012 -0.0558
 3859TIP3   OH232991   6.328   1.426   3.190  0.1503  0.2358  0.5403
 3859TIP3    H132992   6.321   1.376   3.109  0.0605  0.2842  0.5181
 3859TIP3    H232993   6.364   1.511   3.164  1.1565 -0.1235  0.6969
 3860TIP3   OH232994   0.008   1.546  11.362  0.0783 -0.0435 -0.3859
 3860TIP3    H132995  -0.011   1.611  11.295 -1.6556 -1.4677 -1.3530
 3860TIP3    H232996  -0.077   1.525  11.401  1.0517  0.9863  2.5928
 3861TIP3   OH232997   5.490   6.136   0.956  0.5200 -0.3959  0.0310
 3861TIP3    H132998   5.573   6.131   1.003  1.0950 -0.2199 -0.9370
 3861TIP3    H232999   5.508   6.193   0.881 -0.5328 -0.1873 -0.0800
 3862TIP3   OH233000   3.552   0.871  11.289  0.0242 -0.0235  0.1686
 3862TIP3    H133001   3.499   0.792  11.280 -0.4015  0.2894 -0.1598
 3862TIP3    H233002   3.512   0.933  11.227  1.6102 -0.2219 -1.1031
 3863TIP3   OH233003   2.381   5.742   0.881  0.5928  0.5640 -0.1860
 3863TIP3    H133004   2.308   5.731   0.941  1.5025  0.9870  1.0484
 3863TIP3    H233005   2.342   5.777   0.801 -0.6128  0.2341  0.2432
 3864TIP3   OH233006   4.403   1.362   1.433  0.3433  0.5440  0.3564
 3864TIP3    H133007   4.335   1.321   1.379  0.3580 -0.4016  1.0465
 3864TIP3    H233008   4.359   1.436   1.475 -0.3204 -0.2051  0.9851
 3865TIP3   OH233009   1.871   0.998  14.133 -0.7383 -0.2172  0.4378
 3865TIP3    H133010   1.957   1.003  14.175 -1.0266 -1.3598  1.2253
 3865TIP3    H233011   1.871   0.912  14.090 -1.6890 -0.4792  0.9400
 3866TIP3   OH233012   6.123   5.136  13.573  0.2210 -0.0700 -0.4033
 3866TIP3    H133013   6.101   5.229  13.562 -0.9273 -0.5038 -2.1694
 3866TIP3    H233014   6.142   5.127  13.666  0.0330  1.8603 -0.1253
 3867TIP3   OH233015   3.350   1.749  15.548  0.0486  0.3834  0.1265
 3867TIP3    H133016   3.378   1.793  15.468  2.3362  0.7346  1.0608
 3867TIP3    H233017   3.422   1.690  15.570 -1.4803 -1.3656  0.7686
 3868TIP3   OH233018   6.373   4.388   4.194  0.2505 -0.4132 -0.2346
 3868TIP3    H133019   6.380   4.340   4.276  0.3959  0.6594  0.4055
 3868TIP3    H233020   6.289   4.434   4.200 -0.8026 -1.9849 -1.6483
 3869TIP3   OH233021   5.109   5.480   3.016 -0.3986 -0.0949  0.1367
 3869TIP3    H133022   5.046   5.480   3.088 -0.3598  0.1871  0.1699
 3869TIP3    H233023   5.169   5.409   3.037 -0.4421 -0.0742  0.3343
 3870TIP3   OH233024   3.584   2.568   0.326  0.0869  0.0035  0.7811
 3870TIP3    H133025   3.517   2.523   0.274 -1.0150  2.0597  0.3078
 3870TIP3    H233026   3.666   2.525   0.302 -0.7277 -0.8305 -0.6559
 3871TIP3   OH233027   4.723   0.517  12.368 -0.1270  0.0002 -0.4837
 3871TIP3    H133028   4.660   0.568  12.317 -1.5463 -1.6063 -0.4409
 3871TIP3    H233029   4.758   0.454  12.306  0.3774 -0.0499 -0.1558
 3872TIP3   OH233030   4.097   3.985  11.779  0.3252  0.0641 -0.1819
 3872TIP3    H133031   4.051   3.933  11.845  0.1240 -0.0134 -0.3811
 3872TIP3    H233032   4.172   4.022  11.825  0.6723 -0.6978 -0.1345
 3873TIP3   OH233033   2.969   5.249   1.571 -0.7735  0.2030  0.1392
 3873TIP3    H133034   3.011   5.221   1.652 -0.8164 -0.4742 -0.0655
 3873TIP3    H233035   2.917   5.173   1.544 -0.2302  0.1805 -0.8755
 3874TIP3   OH233036   3.476   4.314   6.333  0.5910 -0.1321  0.3344
 3874TIP3    H133037   3.509   4.287   6.247 -0.7501  0.2968 -0.3431
 3874TIP3    H233038   3.449   4.232   6.375 -1.5982 -0.1452 -0.9185
 3875TIP3   OH233039   0.306   0.010   0.423  0.0331 -0.0741  0.0633
 3875TIP3    H133040   0.287   0.088   0.372 -0.6298 -1.1213 -1.3495
 3875TIP3    H233041   0.321   0.042   0.512  0.0258  1.6686 -0.5382
 3876TIP3   OH233042   0.615   5.324  13.771 -0.3725  0.5585 -0.0012
 3876TIP3    H133043   0.639   5.386  13.702 -0.4246  0.0866 -0.4501
 3876TIP3    H233044   0.519   5.321  13.767 -0.4436  1.2746  0.7606
 3877TIP3   OH233045   6.225   5.340   4.541  0.5794  0.2087  0.0834
 3877TIP3    H133046   6.172   5.261   4.550 -0.4393  0.8349 -0.1993
 3877TIP3    H233047   6.213   5.386   4.625 -0.6734  1.1363 -0.5716
 3878TIP3   OH233048   2.290   0.502  16.111 -0.3408  0.2683  0.1000
 3878TIP3    H133049   2.288   0.416  16.069 -1.0223 -0.4008  1.4444
 3878TIP3    H233050   2.383   0.522  16.121 -0.1049 -1.3313  1.7045
 3879TIP3   OH233051   2.127   5.646  15.236  0.1217 -0.2514 -0.0378
 3879TIP3    H133052   2.048   5.668  15.187  0.2901 -1.1034 -0.7324
 3879TIP3    H233053   2.198   5.652  15.172  0.4702 -0.5120  0.3126
 3880TIP3   OH233054   5.378   4.598  16.333  0.0389 -0.3000  0.5912
 3880TIP3    H133055   5.297   4.554  16.307 -0.3617 -0.3628  1.8960
 3880TIP3    H233056   5.351   4.687  16.355  0.2110 -0.5065  1.6607
 3881TIP3   OH233057   4.580   6.673   4.746  0.4836  0.6292 -0.0017
 3881TIP3    H133058   4.507   6.731   4.726 -0.8950 -1.4985 -1.5790
 3881TIP3    H233059   4.569   6.651   4.838 -1.6137 -0.5244 -0.4733
 3882TIP3   OH233060   2.627   0.544   1.476 -0.3618 -0.4379 -0.4237
 3882TIP3    H133061   2.600   0.636   1.481  0.6980 -0.0195 -1.7015
 3882TIP3    H233062   2.704   0.540   1.533 -1.5470 -1.0181  1.1809
 3883TIP3   OH233063   3.650   1.460   1.552 -0.2225  0.2035 -0.2800
 3883TIP3    H133064   3.564   1.447   1.593  0.0005 -0.1441  0.0739
 3883TIP3    H233065   3.629   1.468   1.458 -0.5893 -0.4641 -0.2632
 3884TIP3   OH233066   5.506   0.049  13.733  0.7010  0.1939 -0.4413
 3884TIP3    H133067   5.414   0.031  13.711  0.3954 -0.9223  1.5143
 3884TIP3    H233068   5.508   0.049  13.829  2.8985 -0.6814 -0.4413
 3885TIP3   OH233069   1.201   1.767  17.345 -0.8767 -0.1588 -0.2698
 3885TIP3    H133070   1.120   1.815  17.331 -1.2034 -0.2937  1.0533
 3885TIP3    H233071   1.199   1.742  17.438  0.4898 -0.5001 -0.3068
 3886TIP3   OH233072   1.177   6.679   2.947 -0.4720  0.3377  0.1611
 3886TIP3    H133073   1.159   6.594   2.987  1.0684 -0.7548 -1.2669
 3886TIP3    H233074   1.176   6.741   3.019 -3.0224 -0.6159  1.0601
 3887TIP3   OH233075   4.933   6.038  14.870 -0.2411 -0.6412  0.5652
 3887TIP3    H133076   5.005   6.002  14.921 -0.3933 -0.8007  0.6674
 3887TIP3    H233077   4.966   6.039  14.780  0.8632  1.6682  0.9173
 3888TIP3   OH233078   3.192   4.048  12.700  0.5288 -0.1675  0.8925
 3888TIP3    H133079   3.237   4.080  12.621  0.1035 -0.5542  0.4858
 3888TIP3    H233080   3.128   3.985  12.667 -1.2825  1.3667  1.3220
 3889TIP3   OH233081   0.830   2.105  12.862 -0.6399 -0.2646 -0.5109
 3889TIP3    H133082   0.848   2.193  12.895 -0.8327 -0.7860  1.0928
 3889TIP3    H233083   0.885   2.096  12.785  0.0815  0.9256 -0.1603
 3890TIP3   OH233084   1.022   3.338   2.440 -0.1942  0.0496  1.0076
 3890TIP3    H133085   1.068   3.401   2.384  0.1861  0.4914  1.8094
 3890TIP3    H233086   0.952   3.304   2.384  0.8192 -0.2979 -0.0760
 3891TIP3   OH233087   4.940   3.424  10.970 -0.2308 -0.5431  0.8411
 3891TIP3    H133088   5.027   3.424  10.929 -1.1474  0.4033 -1.2283
 3891TIP3    H233089   4.908   3.335  10.957 -0.8558 -0.0569 -1.4372
 3892TIP3   OH233090   2.227   3.815  16.151  0.9285 -0.3619 -0.0928
 3892TIP3    H133091   2.263   3.730  16.177  1.2967 -0.5773 -1.2784
 3892TIP3    H233092   2.197   3.803  16.062  0.4013  0.5867 -0.0562
 3893TIP3   OH233093   2.576   3.475   4.622 -0.0793 -0.2462  0.1349
 3893TIP3    H133094   2.481   3.467   4.624 -0.1306  0.4131  2.1929
 3893TIP3    H233095   2.600   3.458   4.530 -2.1609 -0.3268 -0.4300
 3894TIP3   OH233096   5.298   2.649   3.763  0.3609  0.0029 -0.5836
 3894TIP3    H133097   5.341   2.703   3.696  0.1105 -0.0772 -0.8131
 3894TIP3    H233098   5.369   2.616   3.817  0.4977  0.7831 -0.2734
 3895TIP3   OH233099   3.300   4.029  15.906 -0.0360 -0.0757  0.3324
 3895TIP3    H133100   3.308   3.948  15.956 -0.2147 -0.3251 -0.0418
 3895TIP3    H233101   3.239   4.083  15.957 -0.2993 -0.3681  0.3278
 3896TIP3   OH233102   1.176   3.149   0.155 -0.2897  0.2487 -0.0148
 3896TIP3    H133103   1.100   3.195   0.120 -0.7388 -0.3966  0.0997
 3896TIP3    H233104   1.144   3.061   0.175  0.3599  0.1249  0.5179
 3897TIP3   OH233105   4.507   5.592  15.065  0.3605  0.4345 -0.0755
 3897TIP3    H133106   4.514   5.500  15.091 -1.7639  0.8487  2.3551
 3897TIP3    H233107   4.594   5.628  15.081  0.3803 -0.4511  2.1496
 3898TIP3   OH233108   0.617   6.446   1.413 -0.2452 -0.0095 -0.8401
 3898TIP3    H133109   0.580   6.452   1.501  0.6527 -0.1328 -0.4442
 3898TIP3    H233110   0.553   6.491   1.357 -1.8467 -1.6914 -0.4511
 3899TIP3   OH233111   6.647   2.691  15.843 -0.0530 -0.4241  0.1780
 3899TIP3    H133112   6.641   2.745  15.922 -0.2196 -0.1835  0.0056
 3899TIP3    H233113   6.660   2.602  15.875  1.2849 -0.1537  0.4495
 3900TIP3   OH233114   2.389   4.056   3.856  0.5239 -0.4388  0.2807
 3900TIP3    H133115   2.437   4.121   3.908  0.4269 -0.8778  0.9399
 3900TIP3    H233116   2.434   3.974   3.874 -0.2737 -0.8076  0.6590
 3901TIP3   OH233117   3.868   4.359  15.605  0.1630 -0.5566  0.6884
 3901TIP3    H133118   3.834   4.360  15.694 -2.7957  0.3605 -0.3349
 3901TIP3    H233119   3.895   4.450  15.588 -2.7166  0.1776 -0.4441
 3902TIP3   OH233120   0.201   2.062  11.835  0.2117  0.6376 -0.5826
 3902TIP3    H133121   0.163   2.148  11.851  0.7671  0.7291  0.2934
 3902TIP3    H233122   0.125   2.006  11.814 -0.2548  1.1205 -0.2026
 3903TIP3   OH233123   0.278   4.057  16.011 -0.1078 -0.4801  0.0502
 3903TIP3    H133124   0.327   3.978  16.031 -0.2428 -0.4999  0.3076
 3903TIP3    H233125   0.264   4.054  15.916 -0.7684 -1.1463  0.1593
 3904TIP3   OH233126   0.957   6.148   1.616 -0.5870 -0.1738 -0.1127
 3904TIP3    H133127   0.988   6.232   1.582  0.1605  0.4420  1.9782
 3904TIP3    H233128   0.873   6.168   1.657 -1.1971 -0.7970 -1.0063
 3905TIP3   OH233129   1.885   0.910   1.300  0.0227  0.2678  0.0941
 3905TIP3    H133130   1.842   0.978   1.247  0.1967  1.4001  1.3746
 3905TIP3    H233131   1.976   0.911   1.270 -0.0237  0.4401 -0.0492
 3906TIP3   OH233132   4.193   6.257   2.829  0.2346 -0.4739 -0.0299
 3906TIP3    H133133   4.105   6.236   2.797  1.2828 -0.2540 -3.4224
 3906TIP3    H233134   4.228   6.173   2.859 -0.3510 -1.0068 -0.7951
 3907TIP3   OH233135   2.403   0.435  12.531 -0.4997 -0.3809  0.3402
 3907TIP3    H133136   2.336   0.442  12.599  0.8484  0.6008  1.6335
 3907TIP3    H233137   2.396   0.345  12.499 -3.3314  0.0640 -0.5862
 3908TIP3   OH233138   4.634   6.083  14.605  0.4335  0.0119  0.6426
 3908TIP3    H133139   4.649   6.142  14.531  2.9421  0.3557  1.3218
 3908TIP3    H233140   4.682   6.003  14.581 -0.9541 -0.8954  0.7727
 3909TIP3   OH233141   2.844   1.228   3.190 -0.2297 -0.1950  0.3815
 3909TIP3    H133142   2.753   1.205   3.169  0.2979 -0.3693 -1.9821
 3909TIP3    H233143   2.858   1.313   3.148  0.7677 -0.2682  0.5411
 3910TIP3   OH233144   0.619   4.099   3.436  0.3081  0.1502  0.1383
 3910TIP3    H133145   0.546   4.084   3.496  0.8358 -2.2716  0.2833
 3910TIP3    H233146   0.684   4.033   3.461  0.2776 -1.5305 -3.5168
 3911TIP3   OH233147   6.008   5.290  15.997 -0.4887  0.6953 -0.0789
 3911TIP3    H133148   5.929   5.303  15.944 -1.9330 -0.9314  1.5164
 3911TIP3    H233149   5.975   5.288  16.087  1.0351 -2.1108  0.5128
 3912TIP3   OH233150   3.857   5.255  15.752  0.7073  0.1621  0.2185
 3912TIP3    H133151   3.911   5.214  15.684 -1.2601 -1.3907 -0.5105
 3912TIP3    H233152   3.787   5.192  15.768 -0.4972  1.7607  1.6341
 3913TIP3   OH233153   0.156   4.211  16.499  0.0792 -0.2002 -0.1893
 3913TIP3    H133154   0.146   4.203  16.594  1.5988  0.4309  0.0330
 3913TIP3    H233155   0.130   4.301  16.480 -1.4810 -0.6951 -0.5817
 3914TIP3   OH233156   1.076   3.232   4.586  0.3014  0.5077 -0.6661
 3914TIP3    H133157   0.996   3.195   4.625  0.9874  0.1212  0.4413
 3914TIP3    H233158   1.133   3.156   4.572  1.8025  1.0663  1.7959
 3915TIP3   OH233159   5.443   4.756  13.032 -0.3164  0.3916  0.0499
 3915TIP3    H133160   5.442   4.663  13.054 -1.7191  0.3780 -0.0030
 3915TIP3    H233161   5.354   4.787  13.051 -0.4349  1.2897 -1.7500
 3916TIP3   OH233162   5.675   3.727  12.432  0.1086  0.0573  0.3828
 3916TIP3    H133163   5.752   3.750  12.483 -0.4495  0.0202  1.2525
 3916TIP3    H233164   5.644   3.645  12.470  0.0026 -0.2636 -0.3773
 3917TIP3   OH233165   3.004   6.087   4.184  0.1196  0.0050 -0.2624
 3917TIP3    H133166   2.958   6.006   4.163  0.9872 -0.4158 -0.6250
 3917TIP3    H233167   2.938   6.156   4.178 -0.1039 -0.3479 -2.4543
 3918TIP3   OH233168   5.459   2.212  11.500 -0.0324 -0.2784 -0.1841
 3918TIP3    H133169   5.465   2.154  11.424  0.7882 -1.3793  0.7026
 3918TIP3    H233170   5.368   2.241  11.501 -1.7664 -4.8964  1.7306
 3919TIP3   OH233171   2.692   1.137  14.494 -0.1220  0.2028 -0.0807
 3919TIP3    H133172   2.749   1.167  14.564 -0.1414  0.3150 -0.1127
 3919TIP3    H233173   2.747   1.079  14.441 -0.6770 -1.5356  1.1842
 3920TIP3   OH233174   5.821   3.666  14.179  0.9193  0.4390 -0.4061
 3920TIP3    H133175   5.909   3.636  14.156  0.3690 -2.3558  0.7593
 3920TIP3    H233176   5.802   3.623  14.263 -1.0935  1.9660 -0.0138
 3921TIP3   OH233177   4.270   5.052   2.179 -0.4132 -0.2507  0.4858
 3921TIP3    H133178   4.245   5.138   2.146 -1.6073 -0.1857  1.4693
 3921TIP3    H233179   4.187   5.011   2.202  0.0654 -2.0318 -0.7848
 3922TIP3   OH233180   4.202   0.405  11.789  0.1298  0.3268 -0.0746
 3922TIP3    H133181   4.196   0.343  11.717  0.2890 -1.9073  1.7347
 3922TIP3    H233182   4.111   0.428  11.808  0.0409  0.2515 -0.3976
 3923TIP3   OH233183   1.094   3.960  13.665 -0.9623  0.7070  0.5349
 3923TIP3    H133184   1.077   3.874  13.627  2.9651  0.3766 -0.9783
 3923TIP3    H233185   1.049   4.021  13.607  0.9906 -0.0865 -1.9708
 3924TIP3   OH233186   6.277   6.718   1.543  0.2526  0.0394  0.3573
 3924TIP3    H133187   6.187   6.737   1.571 -0.5793 -0.5469 -1.7064
 3924TIP3    H233188   6.313   6.666   1.615 -0.8260  0.8195  1.5162
 3925TIP3   OH233189   2.701   5.902  11.285 -0.6874 -0.0893  0.0647
 3925TIP3    H133190   2.721   5.988  11.250 -2.1086  0.2523  0.0459
 3925TIP3    H233191   2.696   5.845  11.208  0.7204 -0.3179  0.1111
 3926TIP3   OH233192   5.962   3.412  14.280 -0.1813  0.5617 -0.4090
 3926TIP3    H133193   6.008   3.491  14.251  1.0857 -0.7212 -2.1673
 3926TIP3    H233194   6.028   3.364  14.331 -0.6352  0.2267 -0.1324
 3927TIP3   OH233195   0.268   2.537   1.110 -0.1319 -0.3596  0.8300
 3927TIP3    H133196   0.178   2.531   1.077 -0.0814  1.8469  0.0845
 3927TIP3    H233197   0.322   2.548   1.031  0.5891  0.0445  1.3627
 3928TIP3   OH233198   5.340   1.185  13.286  0.4163 -0.0435  0.1945
 3928TIP3    H133199   5.293   1.172  13.368 -1.2340 -1.8139 -0.9271
 3928TIP3    H233200   5.272   1.209  13.223  1.3916 -0.2385 -0.9834
 3929TIP3   OH233201   1.806   3.833   0.436  0.1258 -0.2208  0.1552
 3929TIP3    H133202   1.842   3.744   0.439  0.5607 -0.0942 -0.8280
 3929TIP3    H233203   1.727   3.824   0.383 -0.5731 -0.2560  1.1873
 3930TIP3   OH233204   5.551   1.282   3.583 -0.4844  0.2920 -0.0617
 3930TIP3    H133205   5.646   1.287   3.589 -0.5701  0.5285  1.9566
 3930TIP3    H233206   5.529   1.201   3.630 -1.2186 -0.5352 -1.7551
 3931TIP3   OH233207   4.531   2.938   2.765  0.4881 -0.3819  0.0631
 3931TIP3    H133208   4.545   2.949   2.859  1.2420  0.6889 -0.1574
 3931TIP3    H233209   4.593   2.871   2.738  1.4427  0.4692  0.0642
 3932TIP3   OH233210   4.234   2.879   3.689 -0.0684 -0.2662  0.3784
 3932TIP3    H133211   4.153   2.929   3.683  0.6210  0.7389 -1.0328
 3932TIP3    H233212   4.304   2.943   3.677  0.8796 -1.3552 -0.2023
 3933TIP3   OH233213   3.463   3.314  17.384 -0.1731 -0.0264  0.5170
 3933TIP3    H133214   3.447   3.299  17.291 -0.4182 -0.4550  0.6280
 3933TIP3    H233215   3.540   3.371  17.386 -0.0539 -0.1688  0.0550
 3934TIP3   OH233216   2.808   4.474   2.051 -0.4405 -0.6164 -0.6687
 3934TIP3    H133217   2.751   4.499   2.124 -0.8018  0.6847 -1.3657
 3934TIP3    H233218   2.815   4.379   2.057 -3.0846 -0.8836 -0.8290
 3935TIP3   OH233219   2.314   5.790   5.985 -0.4601  0.4796  0.4706
 3935TIP3    H133220   2.377   5.811   6.054  0.1669  0.7709 -0.1755
 3935TIP3    H233221   2.325   5.696   5.969 -0.8576  0.3366  1.0011
 3936TIP3   OH233222   1.954   3.122  12.858  0.2155  0.3174  0.1886
 3936TIP3    H133223   1.979   3.030  12.845  0.5456 -0.0019  2.6134
 3936TIP3    H233224   2.016   3.172  12.805  0.2279 -0.8154 -0.9287
 3937TIP3   OH233225   0.617   2.308  15.819  0.5343  0.2814  0.4550
 3937TIP3    H133226   0.677   2.372  15.857  0.6904  0.0763  0.5562
 3937TIP3    H233227   0.664   2.225  15.824  0.7831  0.3292 -0.6794
 3938TIP3   OH233228   1.225   3.960  12.517  0.4672  0.2186 -0.4175
 3938TIP3    H133229   1.221   4.054  12.535  0.2738  0.5348 -1.9966
 3938TIP3    H233230   1.255   3.921  12.599  1.5072  1.7494 -0.0401
 3939TIP3   OH233231   2.786   2.930  13.238  0.2212 -0.3607 -0.6770
 3939TIP3    H133232   2.745   2.923  13.325  0.8991  0.5368 -0.2609
 3939TIP3    H233233   2.856   2.864  13.239  0.5532 -0.0163 -0.3310
 3940TIP3   OH233234   0.116   5.729   2.773  0.1633  0.0913 -0.4835
 3940TIP3    H133235   0.021   5.718   2.778  0.1781  0.3889  0.9028
 3940TIP3    H233236   0.129   5.805   2.716 -0.4615  0.4731 -0.1279
 3941TIP3   OH233237   2.278   5.507  12.501  0.0582 -0.7506  0.1436
 3941TIP3    H133238   2.283   5.598  12.473 -0.4845 -1.0168 -0.8926
 3941TIP3    H233239   2.284   5.457  12.419 -1.4468 -1.5796  0.5058
 3942TIP3   OH233240   2.212   5.174  15.982 -0.3021 -0.2134  0.1504
 3942TIP3    H133241   2.144   5.235  16.012  0.8938  1.0343  0.3793
 3942TIP3    H233242   2.194   5.093  16.030 -2.1177 -0.1910 -0.4145
 3943TIP3   OH233243   5.240   5.672  12.996  0.4978 -0.6679  0.1293
 3943TIP3    H133244   5.237   5.759  13.036  2.3041 -0.7285  0.5021
 3943TIP3    H233245   5.189   5.617  13.055 -0.3813  0.0725  0.0746
 3944TIP3   OH233246   6.310   3.298  15.724  0.6182  0.1717 -0.3840
 3944TIP3    H133247   6.247   3.304  15.796  0.3334 -0.7235 -0.5415
 3944TIP3    H233248   6.264   3.248  15.657  1.1768  0.2927 -0.8619
 3945TIP3   OH233249   2.514   2.534   1.510  0.2888  0.0935 -0.2660
 3945TIP3    H133250   2.585   2.587   1.474  0.9802 -0.4985  0.1782
 3945TIP3    H233251   2.487   2.478   1.438  1.1934 -0.5998 -0.0949
 3946TIP3   OH233252   5.854   5.393  15.676  0.3830 -0.1426  1.0389
 3946TIP3    H133253   5.794   5.371  15.605  0.7012  0.2426  0.6502
 3946TIP3    H233254   5.813   5.356  15.754 -0.0409 -0.4391  0.6785
 3947TIP3   OH233255   4.993   4.111  12.141  0.5338 -0.6018  0.2043
 3947TIP3    H133256   5.073   4.109  12.195  0.0850 -2.4980  0.8855
 3947TIP3    H233257   4.943   4.184  12.176  0.8917 -0.9248  1.4503
 3948TIP3   OH233258   5.437   3.282  14.330  0.0011  0.6324 -0.1079
 3948TIP3    H133259   5.521   3.327  14.340  0.3223  0.0085  0.0463
 3948TIP3    H233260   5.457   3.205  14.277 -0.7596  1.2786 -1.4186
 3949TIP3   OH233261   3.811   1.971   0.553 -0.1546 -0.1562  0.2330
 3949TIP3    H133262   3.800   1.890   0.503 -0.3420  0.0201 -0.0155
 3949TIP3    H233263   3.746   2.031   0.516 -0.3564 -0.0500  0.7470
 3950TIP3   OH233264   6.195   6.071  17.073 -0.0774 -0.5515 -0.7536
 3950TIP3    H133265   6.273   6.054  17.020  0.7471 -0.6758  0.4578
 3950TIP3    H233266   6.159   5.984  17.092 -0.4323 -0.5018 -1.1958
 3951TIP3   OH233267   0.313   6.357  16.006 -0.0929 -0.2065 -0.2209
 3951TIP3    H133268   0.396   6.346  16.052 -0.8145 -1.6612  0.8255
 3951TIP3    H233269   0.246   6.339  16.073 -1.2767  1.5000 -0.8706
 3952TIP3   OH233270   2.853   0.281   2.266 -0.4151 -0.5601  0.3268
 3952TIP3    H133271   2.796   0.357   2.262  1.3825  0.9022  0.9197
 3952TIP3    H233272   2.912   0.291   2.192  2.0523  0.6014  2.2651
 3953TIP3   OH233273   2.383   2.041   4.196  0.1145  0.2954  0.0457
 3953TIP3    H133274   2.417   1.979   4.131 -0.7168  0.0316 -0.1520
 3953TIP3    H233275   2.365   1.986   4.273 -0.6501  0.2869 -0.1397
 3954TIP3   OH233276   4.548   6.006  12.895 -0.3467  0.5499 -0.1425
 3954TIP3    H133277   4.488   6.021  12.967 -0.0153  0.1398  0.2253
 3954TIP3    H233278   4.634   5.995  12.936 -0.5290 -2.3994 -0.3050
 3955TIP3   OH233279   6.084   5.573   0.217 -0.1054 -0.4296 -0.5404
 3955TIP3    H133280   6.052   5.663   0.208 -3.3358 -1.4314 -0.4442
 3955TIP3    H233281   6.117   5.567   0.306 -1.0192  0.3659 -0.1325
 3956TIP3   OH233282   3.543   2.184   5.420  0.0755  0.0351 -0.3638
 3956TIP3    H133283   3.464   2.158   5.466 -1.0508  2.4102 -0.7765
 3956TIP3    H233284   3.523   2.170   5.327 -0.5866  2.1650 -0.6020
 3957TIP3   OH233285   3.278   6.138   5.580 -0.2035 -0.3299  0.3527
 3957TIP3    H133286   3.229   6.215   5.608 -1.3904  0.1326 -2.6231
 3957TIP3    H233287   3.213   6.083   5.536  0.5941 -3.1500  2.4320
 3958TIP3   OH233288   3.191   0.874  11.897  0.0681  0.1039 -0.3963
 3958TIP3    H133289   3.117   0.836  11.850 -0.3568 -0.2348  0.5202
 3958TIP3    H233290   3.153   0.911  11.976  1.1413 -2.0704  1.2206
 3959TIP3   OH233291   1.084   3.049  11.390 -0.5626  0.0608 -0.1202
 3959TIP3    H133292   1.013   2.988  11.369 -0.5862  0.0085  0.0995
 3959TIP3    H233293   1.042   3.134  11.394 -0.4264  0.1677 -0.9687
 3960TIP3   OH233294   1.780   0.600   2.147 -0.4406 -0.0938  0.3914
 3960TIP3    H133295   1.807   0.533   2.084 -1.6266 -2.1284  1.9184
 3960TIP3    H233296   1.811   0.567   2.231 -1.9014  0.7741  1.3142
 3961TIP3   OH233297   3.086   4.301  11.714 -0.2699 -0.1602 -0.6308
 3961TIP3    H133298   3.004   4.305  11.763 -0.9368  1.3895 -1.7747
 3961TIP3    H233299   3.102   4.208  11.701 -1.8617 -0.4971 -0.3855
 3962TIP3   OH233300   3.593   0.163  13.911  0.4198  0.1708  0.1602
 3962TIP3    H133301   3.510   0.140  13.868  1.2665 -3.1242  0.0279
 3962TIP3    H233302   3.647   0.198  13.840  0.2818 -0.9627 -0.5307
 3963TIP3   OH233303   0.299   6.099   5.913 -0.2634  0.2868 -0.6171
 3963TIP3    H133304   0.276   6.007   5.927  0.1132 -0.4402 -3.9037
 3963TIP3    H233305   0.330   6.129   5.998 -1.6741 -2.2043  0.9124
 3964TIP3   OH233306   0.485   3.499  14.418 -0.0894  0.5555 -0.0741
 3964TIP3    H133307   0.528   3.576  14.454  0.1887 -0.0848  0.9880
 3964TIP3    H233308   0.485   3.435  14.489 -1.3015 -0.0486 -0.5863
 3965TIP3   OH233309   0.085   1.214  16.882  0.0578 -0.8322 -0.0943
 3965TIP3    H133310   0.155   1.189  16.942 -1.4179  0.1221  2.1246
 3965TIP3    H233311   0.130   1.267  16.815  1.2829  1.3116  2.2588
 3966TIP3   OH233312   4.933   2.216  14.239  0.1677  0.1741  0.1760
 3966TIP3    H133313   4.871   2.263  14.183 -0.3973 -1.6637 -0.8141
 3966TIP3    H233314   4.878   2.164  14.297  0.7806  0.6673  1.2216
 3967TIP3   OH233315   6.209   1.124  13.952 -0.3879  0.0868 -0.0779
 3967TIP3    H133316   6.276   1.109  14.019  2.3699  2.1128 -2.1445
 3967TIP3    H233317   6.228   1.212  13.919 -3.2634  0.1910 -1.7705
 3968TIP3   OH233318   6.644   5.678  14.445  0.3010 -0.2467  0.4292
 3968TIP3    H133319   6.600   5.744  14.392  1.3306  1.9774  2.1749
 3968TIP3    H233320   6.584   5.662  14.518  0.4527 -0.5913  0.4823
 3969TIP3   OH233321   4.133   3.890  14.184  0.3944  0.4250  0.1439
 3969TIP3    H133322   4.076   3.966  14.195  0.0456  0.0859  0.7362
 3969TIP3    H233323   4.116   3.835  14.261 -0.9371 -1.2956 -1.2974
 3970TIP3   OH233324   3.788   2.544   6.187  0.2302  0.4624 -0.2147
 3970TIP3    H133325   3.852   2.614   6.180  0.1140  0.5736 -0.1861
 3970TIP3    H233326   3.762   2.545   6.279 -0.9712  1.4686 -0.5329
 3971TIP3   OH233327   4.997   2.251  12.418  0.8371 -0.1712  0.9749
 3971TIP3    H133328   4.983   2.292  12.332 -0.9733 -1.5234  0.5613
 3971TIP3    H233329   5.089   2.222  12.415  0.6321 -0.8016 -0.8213
 3972TIP3   OH233330   0.678   0.400  13.763 -0.4938  0.0717  0.3516
 3972TIP3    H133331   0.759   0.427  13.720 -0.9290 -1.5220 -1.5773
 3972TIP3    H233332   0.656   0.474  13.820  2.8511  0.1322  1.8133
 3973TIP3   OH233333   1.536   5.312   1.893  0.7294 -0.7827  0.1561
 3973TIP3    H133334   1.549   5.277   1.805 -0.9546 -0.4886 -0.2543
 3973TIP3    H233335   1.597   5.264   1.948  0.1654 -2.6654 -0.7798
 3974TIP3   OH233336   2.745   4.833   3.791  0.0706  0.1116 -0.5049
 3974TIP3    H133337   2.814   4.768   3.799  0.0877  0.2419  0.6935
 3974TIP3    H233338   2.791   4.916   3.780  0.1309  0.2293  0.5340
 3975TIP3   OH233339   5.555   5.644   0.352  0.1402 -0.3896  0.2090
 3975TIP3    H133340   5.548   5.718   0.412 -3.2149  0.0974 -0.5903
 3975TIP3    H233341   5.504   5.575   0.394  0.9478 -1.3426 -0.3350
 3976TIP3   OH233342   3.890   2.933   2.472  0.2741 -0.0791 -0.3539
 3976TIP3    H133343   3.976   2.890   2.474  0.9860  1.3399  0.7628
 3976TIP3    H233344   3.831   2.871   2.515  1.4542  0.3443  2.0169
 3977TIP3   OH233345   2.074   0.182  13.162  0.4152  0.0305 -0.3613
 3977TIP3    H133346   2.045   0.092  13.173  0.2978 -0.0735 -1.3890
 3977TIP3    H233347   2.008   0.234  13.208 -0.0284 -0.3598 -0.5415
 3978TIP3   OH233348   3.406   6.339   3.928  0.0784  0.0013 -0.2233
 3978TIP3    H133349   3.362   6.423   3.911 -1.2613 -0.5358  0.3885
 3978TIP3    H233350   3.377   6.282   3.858 -2.5537 -1.1611  1.6308
 3979TIP3   OH233351   4.583   6.176  17.301  0.4405  0.1567 -0.2607
 3979TIP3    H133352   4.567   6.154  17.209 -0.7996 -2.4143  0.4865
 3979TIP3    H233353   4.609   6.093  17.341 -2.2145  0.4308  2.3608
 3980TIP3   OH233354   0.160   5.631   0.779 -0.0595 -0.0416  0.6415
 3980TIP3    H133355   0.103   5.610   0.852 -0.9570 -0.0263 -0.0320
 3980TIP3    H233356   0.111   5.695   0.727 -0.6895 -2.0972 -1.4803
 3981TIP3   OH233357   6.602   0.470  16.494  0.4382  0.3703  0.4284
 3981TIP3    H133358   6.676   0.456  16.436  0.6681  2.5013  0.1256
 3981TIP3    H233359   6.527   0.434  16.447  1.0574 -0.6284  0.1706
 3982TIP3   OH233360   5.833   2.680  12.811 -0.1605  0.3502  0.1182
 3982TIP3    H133361   5.919   2.697  12.772 -0.2099 -0.8450 -0.5571
 3982TIP3    H233362   5.771   2.718  12.749 -0.1472  0.7931  0.3707
 3983TIP3   OH233363   3.190   5.329  12.724 -0.2716 -0.6180  0.0931
 3983TIP3    H133364   3.125   5.384  12.768  0.9916  1.5225 -0.5425
 3983TIP3    H233365   3.240   5.390  12.669  1.9612 -2.2177  0.1816
 3984TIP3   OH233366   5.166   3.873  15.019 -0.5630 -0.0452 -0.0347
 3984TIP3    H133367   5.086   3.901  14.974 -0.2609  2.2482  0.6960
 3984TIP3    H233368   5.234   3.930  14.983  0.6898 -1.6437 -0.3077
 3985TIP3   OH233369   4.780   1.620   5.769  0.3372  0.2993  0.2602
 3985TIP3    H133370   4.737   1.698   5.734  0.3247  0.1560 -0.0450
 3985TIP3    H233371   4.852   1.654   5.823 -0.3732  0.5505  1.0661
 3986TIP3   OH233372   1.424   3.562  15.349 -0.4716 -0.4195  0.1281
 3986TIP3    H133373   1.395   3.528  15.265  2.3397 -0.5194 -0.9059
 3986TIP3    H233374   1.414   3.488  15.409 -3.6869  0.0063  0.3221
 3987TIP3   OH233375   3.605   1.337  14.863 -0.3054  0.1729  0.3846
 3987TIP3    H133376   3.653   1.375  14.790  0.6124 -2.9333 -0.7765
 3987TIP3    H233377   3.627   1.244  14.861 -1.1320 -0.2532  3.9774
 3988TIP3   OH233378   5.064   3.611   1.856  0.1835  0.2520 -0.3215
 3988TIP3    H133379   5.051   3.686   1.914 -0.3477 -1.3620  1.7422
 3988TIP3    H233380   4.976   3.579   1.837  0.3283  0.8518 -2.2609
 3989TIP3   OH233381   1.115   4.241  14.635 -0.1942  0.2583  0.1279
 3989TIP3    H133382   1.193   4.249  14.581 -0.2272 -1.0957 -0.1469
 3989TIP3    H233383   1.144   4.266  14.723  0.0723  1.5888 -0.3152
 3990TIP3   OH233384   0.459   5.408  16.255 -0.2619  0.4857 -0.2657
 3990TIP3    H133385   0.428   5.421  16.345 -1.9049  1.6840 -0.9535
 3990TIP3    H233386   0.535   5.466  16.248 -0.2922  0.6017  0.2606
 3991TIP3   OH233387   4.253   6.015  14.556 -0.5070  0.2236  0.5631
 3991TIP3    H133388   4.293   5.929  14.548 -0.5939  0.2782 -0.6345
 3991TIP3    H233389   4.247   6.048  14.466 -2.5451  0.5316  0.7603
 3992TIP3   OH233390   5.840   1.698  15.036  0.1086 -0.4526  0.0691
 3992TIP3    H133391   5.804   1.780  15.000  1.2596 -0.3811 -0.9718
 3992TIP3    H233392   5.767   1.636  15.031 -0.8706  0.5529  1.1386
 3993TIP3   OH233393   2.864   3.056   5.577  0.1858  0.2299  0.5559
 3993TIP3    H133394   2.914   3.100   5.645  1.5091 -1.3522  0.7009
 3993TIP3    H233395   2.809   3.124   5.539  1.1078  1.6559  1.6588
 3994TIP3   OH233396   2.125   1.611   3.538  0.8424  0.0723  0.0064
 3994TIP3    H133397   2.133   1.672   3.612  0.6181  0.9179 -0.6497
 3994TIP3    H233398   2.041   1.568   3.551  0.4812  0.7263 -0.1181
 3995TIP3   OH233399   2.183   1.139  12.426 -0.4612 -0.1367 -0.1837
 3995TIP3    H133400   2.227   1.098  12.352  0.4016 -0.7688  0.6696
 3995TIP3    H233401   2.194   1.233  12.411 -0.3596 -0.2575 -0.8871
 3996TIP3   OH233402   1.738   6.180  15.896  0.1699 -0.6575  0.8507
 3996TIP3    H133403   1.766   6.128  15.972  1.5943 -1.6114 -0.2768
 3996TIP3    H233404   1.810   6.241  15.881  0.7616 -1.7047 -0.8129
 3997TIP3   OH233405   3.511   4.426   5.449  0.2673  0.4068  0.1993
 3997TIP3    H133406   3.482   4.500   5.503 -1.9159  0.2486 -0.6453
 3997TIP3    H233407   3.556   4.368   5.510 -1.5322  0.5395  1.7410
 3998TIP3   OH233408   2.545   3.414  16.875  0.7665 -0.2199  0.7019
 3998TIP3    H133409   2.467   3.427  16.929  1.3008  1.4271  1.1127
 3998TIP3    H233410   2.579   3.329  16.904 -0.0538 -0.2798  1.5520
 3999TIP3   OH233411   3.315   4.936  15.749  0.0411 -0.1115  0.5214
 3999TIP3    H133412   3.254   5.009  15.758  1.7231  1.2561  1.3141
 3999TIP3    H233413   3.303   4.884  15.828  0.1460  0.3444  0.8378
 4000TIP3   OH233414   4.790   4.098  14.289 -0.6356 -0.1755  0.0108
 4000TIP3    H133415   4.770   4.059  14.204 -0.9924  0.7887 -0.3619
 4000TIP3    H233416   4.815   4.024  14.344 -0.7985 -0.8613 -0.8165
 4001TIP3   OH233417   0.163   1.265   1.994  0.1095 -0.2435  0.1177
 4001TIP3    H133418   0.206   1.266   2.080 -1.0093  1.5379  0.7133
 4001TIP3    H233419   0.187   1.181   1.956  1.1694 -0.7971  1.9075
 4002TIP3   OH233420   2.256   3.550  14.709 -0.0229  0.0475 -0.2718
 4002TIP3    H133421   2.350   3.559  14.722 -0.1217 -0.4331  0.9345
 4002TIP3    H233422   2.225   3.640  14.697  0.4674  0.3068  0.3300
 4003TIP3   OH233423   3.761   0.732  15.390  0.5934  0.1903 -0.0834
 4003TIP3    H133424   3.848   0.703  15.419 -0.0419  0.4824  2.2572
 4003TIP3    H233425   3.758   0.706  15.298  2.9242 -0.3636 -0.0850
 4004TIP3   OH233426   4.881   3.692  13.887 -0.4487  0.7418  0.2912
 4004TIP3    H133427   4.796   3.712  13.848  0.4042  1.1555 -1.4821
 4004TIP3    H233428   4.902   3.604  13.856  1.1963  1.8704 -2.1594
 4005TIP3   OH233429   1.476   3.631  11.800 -0.2899  0.3812 -0.1913
 4005TIP3    H133430   1.426   3.704  11.762  1.1059  0.9330 -1.0682
 4005TIP3    H233431   1.489   3.571  11.726 -3.1864 -1.8705  0.9490
 4006TIP3   OH233432   5.984   4.713   1.309 -0.0068  0.5991 -0.3383
 4006TIP3    H133433   5.987   4.626   1.270  0.2730  0.7770 -0.7161
 4006TIP3    H233434   5.911   4.709   1.371  0.9000 -0.3600  0.7087
 4007TIP3   OH233435   1.709   2.512  12.057  0.4622 -0.2454 -0.1627
 4007TIP3    H133436   1.667   2.488  11.975 -2.2497  1.9623  0.4163
 4007TIP3    H233437   1.672   2.452  12.122  0.6985 -0.3866 -0.1573
 4008TIP3   OH233438   6.610   3.502   4.147  0.5322  0.0393 -0.0851
 4008TIP3    H133439   6.607   3.499   4.243 -0.1923  2.9238  0.0450
 4008TIP3    H233440   6.600   3.410   4.121  2.4813 -1.0923  2.5873
 4009TIP3   OH233441   0.458   5.318  12.099 -0.0110  0.4559  0.2519
 4009TIP3    H133442   0.404   5.387  12.060 -0.5897 -0.5555 -0.8131
 4009TIP3    H233443   0.409   5.290  12.176 -0.6533  0.0353 -0.3047
 4010TIP3   OH233444   4.023   2.743   6.032  0.4044 -0.0801 -0.2185
 4010TIP3    H133445   4.093   2.796   6.071  0.7099 -0.5704 -0.0878
 4010TIP3    H233446   4.066   2.661   6.007  0.0243 -0.1067 -0.8008
 4011TIP3   OH233447   1.245   5.745   3.961 -0.0500 -0.9794 -0.0183
 4011TIP3    H133448   1.325   5.780   4.001 -0.0202 -0.5933 -0.4034
 4011TIP3    H233449   1.191   5.822   3.943  0.7607 -0.8914 -2.4994
 4012TIP3   OH233450   2.006   3.509  15.446  0.4207  0.5803 -0.6972
 4012TIP3    H133451   1.940   3.518  15.378 -0.3736 -1.5637 -0.3017
 4012TIP3    H233452   2.009   3.415  15.464  0.8696  1.0146  1.9366
 4013TIP3   OH233453   4.706   0.439   3.237  0.5321  0.2232 -0.3099
 4013TIP3    H133454   4.795   0.452   3.268  0.3044  3.0527 -0.5677
 4013TIP3    H233455   4.713   0.442   3.142  0.3290 -1.1054 -0.3806
 4014TIP3   OH233456   5.671   6.546   5.876  0.9120 -0.0156 -0.2462
 4014TIP3    H133457   5.642   6.624   5.922 -0.2252 -0.7625  0.3446
 4014TIP3    H233458   5.766   6.555   5.871  1.1528 -0.1028  2.6457
 4015TIP3   OH233459   5.551   2.427   3.272 -0.1960  0.5314 -0.4130
 4015TIP3    H133460   5.634   2.473   3.284 -0.2133  0.3307  0.5859
 4015TIP3    H233461   5.509   2.472   3.198  0.1674  1.5821 -0.0069
 4016TIP3   OH233462   2.135   2.462  13.484  0.0642 -0.0807 -0.9119
 4016TIP3    H133463   2.046   2.477  13.452  0.4222 -0.4838 -2.1575
 4016TIP3    H233464   2.147   2.527  13.553 -1.6598 -0.8811  0.2161
 4017TIP3   OH233465   1.872   1.197   1.956 -0.2634 -0.1414  0.1530
 4017TIP3    H133466   1.906   1.153   1.878  0.6123 -0.0181  0.4504
 4017TIP3    H233467   1.949   1.207   2.013 -1.1188 -1.3573  1.5687
 4018TIP3   OH233468   2.661   4.489   1.404 -0.0766  0.0916 -0.4739
 4018TIP3    H133469   2.582   4.482   1.350 -1.8179 -0.9717  1.9915
 4018TIP3    H233470   2.704   4.404   1.393 -0.4779 -0.1592 -0.1332
 4019TIP3   OH233471   6.680   5.227  14.880  0.1926 -0.1242  0.5505
 4019TIP3    H133472   6.680   5.255  14.971  1.4806  1.1008  0.2152
 4019TIP3    H233473   6.769   5.244  14.849 -0.0445 -1.0780 -0.7774
 4020TIP3   OH233474   1.171   3.697  14.378 -0.2093  0.6894  0.5603
 4020TIP3    H133475   1.228   3.746  14.319  0.2701  0.1021  0.5311
 4020TIP3    H233476   1.133   3.628  14.324 -0.0522  0.3725  0.8530
 4021TIP3   OH233477   1.100   1.732   2.728 -0.2617 -0.4170  0.7501
 4021TIP3    H133478   1.144   1.799   2.677 -1.7897 -0.2642 -0.4513
 4021TIP3    H233479   1.090   1.658   2.667  1.2414 -1.7109  1.9923
 4022TIP3   OH233480   4.578   1.804  16.998  0.0736 -0.3922  0.0604
 4022TIP3    H133481   4.553   1.847  17.080  1.7010 -0.1340  0.4561
 4022TIP3    H233482   4.518   1.730  16.991 -1.7514  1.0160  0.1613
 4023TIP3   OH233483   3.342   1.188   2.355  0.4151 -0.3201  0.3816
 4023TIP3    H133484   3.357   1.096   2.376  2.2179 -0.0147  0.5723
 4023TIP3    H233485   3.247   1.198   2.360  0.2682 -1.8773  1.5788
 4024TIP3   OH233486   2.567   6.649  15.038 -0.2448  0.0972 -0.2634
 4024TIP3    H133487   2.658   6.622  15.027 -0.1707  0.3294 -0.2102
 4024TIP3    H233488   2.571   6.740  15.067 -0.4780 -0.0992  0.3938
 4025TIP3   OH233489   1.870   2.011   5.182  0.2359  0.5506  0.3601
 4025TIP3    H133490   1.852   2.099   5.150  2.2096  0.8321 -0.1378
 4025TIP3    H233491   1.919   2.025   5.263 -0.5298 -0.1087  0.9415
 4026TIP3   OH233492   5.036   2.542   3.666 -0.0395  0.3362  0.1104
 4026TIP3    H133493   5.119   2.542   3.714 -0.3776 -1.3671  0.7462
 4026TIP3    H233494   4.973   2.580   3.727 -0.1826 -0.5279  0.5151
 4027TIP3   OH233495   1.993   6.479  15.253 -0.3431  0.1171 -0.4205
 4027TIP3    H133496   2.021   6.480  15.162 -1.1196  0.1950 -0.6624
 4027TIP3    H233497   1.902   6.449  15.250  0.0223 -1.1745  0.4344
 4028TIP3   OH233498   1.774   3.579   5.572  0.6251 -0.7464 -0.7479
 4028TIP3    H133499   1.799   3.621   5.490  0.2224  0.4620 -0.2673
 4028TIP3    H233500   1.703   3.520   5.547  1.0019 -0.9500 -1.3799
 4029TIP3   OH233501   3.608   6.694   5.565 -0.2565  0.2366 -0.3103
 4029TIP3    H133502   3.626   6.782   5.598 -0.1966  0.4518 -0.9162
 4029TIP3    H233503   3.637   6.695   5.474  0.8429 -0.7636  0.0039
 4030TIP3   OH233504   2.146   1.223  11.577  0.0297 -0.8164  1.0907
 4030TIP3    H133505   2.089   1.275  11.520  1.2363  0.1792  0.7315
 4030TIP3    H233506   2.127   1.132  11.554 -0.2067 -0.4576 -0.2340
 4031TIP3   OH233507   3.759   5.617  12.411 -0.0346  0.6637 -0.1204
 4031TIP3    H133508   3.741   5.701  12.454  1.6931  0.3855  1.2316
 4031TIP3    H233509   3.674   5.590  12.375 -0.8783  2.3917  0.4705
 4032TIP3   OH233510   3.234   4.848  10.750  0.4229 -0.0231  0.6560
 4032TIP3    H133511   3.209   4.920  10.808  0.1702  0.0291  0.4868
 4032TIP3    H233512   3.243   4.772  10.807 -0.3821 -0.1019  0.6921
 4033TIP3   OH233513   0.984   5.554   4.518  0.1591 -0.2796 -0.1165
 4033TIP3    H133514   0.945   5.597   4.594  1.7927  0.3149  0.4427
 4033TIP3    H233515   1.026   5.475   4.553  0.3387 -0.3614 -0.5049
 4034TIP3   OH233516   0.113   5.215   5.293 -0.0727 -0.1983  0.3060
 4034TIP3    H133517   0.125   5.286   5.230  0.6354  0.9880  1.7180
 4034TIP3    H233518   0.018   5.208   5.304 -0.2126 -0.4733 -0.9043
 4035TIP3   OH233519   1.272   2.558   1.638  0.8402 -0.0323 -0.0866
 4035TIP3    H133520   1.336   2.496   1.601  0.0118 -0.6144 -0.5707
 4035TIP3    H233521   1.303   2.573   1.727  2.3444  0.6539 -0.6871
 4036TIP3   OH233522   0.089   0.205  11.015 -0.1254  0.2503 -0.4098
 4036TIP3    H133523   0.022   0.257  11.060 -0.1854 -0.5305  0.4409
 4036TIP3    H233524   0.162   0.265  11.002 -0.4172  0.7059  0.0270
 4037TIP3   OH233525   1.387   4.175   3.939 -0.4869  0.6350  0.5730
 4037TIP3    H133526   1.445   4.192   3.865 -0.0558  0.5557  0.8878
 4037TIP3    H233527   1.325   4.109   3.906  0.5340 -0.4190  0.6777
 4038TIP3   OH233528   2.610   0.489  15.654 -0.1294  0.6922 -0.3923
 4038TIP3    H133529   2.535   0.539  15.686  0.0552  0.5392  0.3170
 4038TIP3    H233530   2.641   0.537  15.578 -0.9558  0.7471 -0.6981
 4039TIP3   OH233531   4.895   3.854   2.455 -0.7872 -0.0456  0.0870
 4039TIP3    H133532   4.982   3.881   2.486  1.0392 -3.1080 -1.8918
 4039TIP3    H233533   4.838   3.865   2.531  1.3905  1.6648  1.5960
 4040TIP3   OH233534   2.914   4.349   1.402  0.3113 -0.2337  0.9082
 4040TIP3    H133535   2.990   4.391   1.361 -1.3627  1.6934 -0.4186
 4040TIP3    H233536   2.915   4.380   1.493  0.6801  0.4300  0.6828
 4041TIP3   OH233537   4.282   5.289  15.913 -0.2628  0.4380  0.3537
 4041TIP3    H133538   4.273   5.197  15.937 -0.3119  0.4719  0.4662
 4041TIP3    H233539   4.195   5.326  15.928 -0.4245  0.3540 -0.3380
 4042TIP3   OH233540   5.370   4.098   4.712 -0.1923 -0.0196  0.3597
 4042TIP3    H133541   5.307   4.072   4.780  0.2199  0.1296  0.8087
 4042TIP3    H233542   5.316   4.121   4.637 -0.6177 -1.0167  0.3469
 4043TIP3   OH233543   5.889   3.650   1.108  0.0437  0.5652 -0.1984
 4043TIP3    H133544   5.837   3.722   1.144  0.9070  1.3261 -0.4175
 4043TIP3    H233545   5.979   3.674   1.128  0.2997 -0.9150  0.5094
 4044TIP3   OH233546   1.832   0.594  11.018 -0.1349 -0.2599 -0.4819
 4044TIP3    H133547   1.912   0.647  11.017 -0.0971 -0.2210  1.0982
 4044TIP3    H233548   1.761   0.657  11.032 -0.0816 -0.5570  1.5049
 4045TIP3   OH233549   0.482   5.496   2.411  0.4837 -0.3471  0.1533
 4045TIP3    H133550   0.557   5.527   2.360  0.9718  0.4842  1.3364
 4045TIP3    H233551   0.420   5.569   2.409  0.4824 -0.3310  0.6896
 4046TIP3   OH233552   2.255   4.092   1.123 -0.0027  0.1043 -0.2325
 4046TIP3    H133553   2.235   4.000   1.112  0.4810  0.1227 -1.3588
 4046TIP3    H233554   2.273   4.101   1.217 -1.3098 -0.6660  0.1138
 4047TIP3   OH233555   3.850   5.676   4.720 -0.1337 -0.2780  0.0029
 4047TIP3    H133556   3.899   5.609   4.766 -0.6354 -0.9336 -0.4013
 4047TIP3    H233557   3.787   5.709   4.785  0.5687  0.2876  0.4026
 4048TIP3   OH233558   3.701   0.645   1.165 -0.5328 -0.2834  0.3600
 4048TIP3    H133559   3.758   0.607   1.233  1.5119  1.4857 -0.2432
 4048TIP3    H233560   3.642   0.703   1.213  1.1881  1.2958  0.6806
 4049TIP3   OH233561   0.695   0.950  13.776 -0.1294  0.0221  0.5420
 4049TIP3    H133562   0.727   0.952  13.686 -0.1262 -1.8454  0.4763
 4049TIP3    H233563   0.763   0.902  13.825 -0.5779  0.1934  1.3513
 4050TIP3   OH233564   1.139   0.604   0.728  0.1806  0.4830 -0.0882
 4050TIP3    H133565   1.104   0.632   0.644 -2.8988 -0.1400  0.8387
 4050TIP3    H233566   1.163   0.513   0.715  0.6536  0.6741 -0.5491
 4051TIP3   OH233567   2.840   3.471  13.814  0.0897 -0.2893 -0.2684
 4051TIP3    H133568   2.906   3.414  13.854  1.3008  1.3571  0.1964
 4051TIP3    H233569   2.891   3.533  13.762 -1.3060 -0.9222 -2.5691
 4052TIP3   OH233570   2.365   3.926  14.266 -0.0195 -0.5682 -0.3036
 4052TIP3    H133571   2.317   3.882  14.195 -0.1080  0.8207 -1.1343
 4052TIP3    H233572   2.414   3.855  14.308  2.6293 -1.0580 -3.8043
 4053TIP3   OH233573   3.357   4.765   2.417  0.5097  0.5867  0.7289
 4053TIP3    H133574   3.305   4.832   2.374  0.3228 -0.1969 -0.3227
 4053TIP3    H233575   3.437   4.810   2.446  1.1772  0.9485 -1.4895
 4054TIP3   OH233576   6.673   5.826  13.717 -0.0195 -0.1336 -0.4699
 4054TIP3    H133577   6.669   5.921  13.710  1.5677  0.1111  1.3275
 4054TIP3    H233578   6.740   5.801  13.653  2.8053  0.4830  2.0467
 4055TIP3   OH233579   4.773   6.315  14.745 -0.0600  0.1721 -0.0097
 4055TIP3    H133580   4.720   6.247  14.703 -0.5417  0.9200 -0.6552
 4055TIP3    H233581   4.863   6.294  14.722 -0.2244 -0.1366 -0.3802
 4056TIP3   OH233582   1.407   4.429   5.054  0.5844 -0.4770  0.1523
 4056TIP3    H133583   1.388   4.522   5.039  0.5032 -0.2957  1.2702
 4056TIP3    H233584   1.415   4.422   5.149  0.7347 -1.5941  0.0644
 4057TIP3   OH233585   6.562   4.539  17.027  0.1374 -0.1567 -0.2753
 4057TIP3    H133586   6.625   4.611  17.019  0.8480 -0.8304 -1.0063
 4057TIP3    H233587   6.597   4.470  16.970 -1.8898 -0.1285 -1.6462
 4058TIP3   OH233588   5.697   3.509   2.999  0.6377  0.1171  0.2955
 4058TIP3    H133589   5.615   3.539   3.038  1.0488  0.3077  1.0292
 4058TIP3    H233590   5.683   3.516   2.904 -0.3003 -0.1553  0.4092
 4059TIP3   OH233591   4.753   0.836   1.518  0.2274  0.4159 -0.0427
 4059TIP3    H133592   4.817   0.783   1.471  0.2369 -0.4041  0.8629
 4059TIP3    H233593   4.795   0.856   1.602 -0.3150  0.6978  0.1658
 4060TIP3   OH233594   6.353   5.530   2.110 -0.1481 -0.2792  0.2739
 4060TIP3    H133595   6.366   5.608   2.163 -0.9672 -0.3288  0.5638
 4060TIP3    H233596   6.258   5.521   2.103 -0.1257 -1.9921  1.3917
 4061TIP3   OH233597   4.301   4.644   2.538 -0.2010  0.4675 -0.1058
 4061TIP3    H133598   4.328   4.655   2.629  0.2748 -0.1459 -0.1691
 4061TIP3    H233599   4.342   4.717   2.492  2.5258 -1.1572 -0.4354
 4062TIP3   OH233600   4.700   4.571  12.983 -0.0826  0.2226 -0.7522
 4062TIP3    H133601   4.711   4.574  12.888  1.0009  2.3081 -0.6219
 4062TIP3    H233602   4.621   4.623  13.000  0.1254  0.4527 -0.4738
 4063TIP3   OH233603   3.852   6.361   5.709  0.4343  0.3907  0.1985
 4063TIP3    H133604   3.915   6.431   5.728  0.0660  0.5225  0.9705
 4063TIP3    H233605   3.906   6.282   5.701  0.8785  0.7748 -0.8938
 4064TIP3   OH233606   0.470   3.724   1.416 -0.1424  0.4762  0.2006
 4064TIP3    H133607   0.412   3.739   1.490  0.8798 -1.7165  1.5453
 4064TIP3    H233608   0.416   3.678   1.351 -0.1077 -1.1469  1.2566
 4065TIP3   OH233609   3.870   1.698  16.261  0.3343  0.2817 -0.0643
 4065TIP3    H133610   3.779   1.680  16.238 -0.3441  1.4655  1.5120
 4065TIP3    H233611   3.878   1.793  16.259  0.6810  0.3881  2.6187
 4066TIP3   OH233612   0.156   3.759   2.766 -0.1194 -0.1206  0.6581
 4066TIP3    H133613   0.182   3.836   2.715 -0.3272  0.4880  1.4597
 4066TIP3    H233614   0.194   3.685   2.718  0.1898  0.4868 -0.0523
 4067TIP3   OH233615   2.991   4.979   5.153  0.3768  0.2751 -0.2601
 4067TIP3    H133616   3.043   5.049   5.190  0.2221  0.1742  0.1579
 4067TIP3    H233617   3.054   4.915   5.122  0.5175  0.5878 -0.6246
 4068TIP3   OH233618   4.619   1.796   4.202 -0.0972  0.3341 -0.4364
 4068TIP3    H133619   4.652   1.806   4.112 -1.3708  0.6913 -0.8787
 4068TIP3    H233620   4.542   1.853   4.206 -0.9867 -0.8837  0.3940
 4069TIP3   OH233621   3.291   6.037   2.045  0.8508  0.9839 -0.3136
 4069TIP3    H133622   3.245   6.114   2.081  0.0196  0.5025 -0.3232
 4069TIP3    H233623   3.268   6.038   1.952 -2.5638 -1.5193  0.3241
 4070TIP3   OH233624   4.366   5.689  12.558 -0.2147  0.0965  0.1778
 4070TIP3    H133625   4.402   5.723  12.640 -0.0605 -2.0336  1.0681
 4070TIP3    H233626   4.371   5.594  12.567 -0.0204 -0.2205 -2.3975
 4071TIP3   OH233627   3.202   1.725   1.565 -0.2123 -0.4148 -0.3211
 4071TIP3    H133628   3.130   1.786   1.582  0.3685  0.7382 -1.7733
 4071TIP3    H233629   3.172   1.641   1.601 -1.5009  0.4603  0.7136
 4072TIP3   OH233630   0.613   4.569   6.105 -0.1134  0.1689 -0.0059
 4072TIP3    H133631   0.545   4.516   6.064 -0.2373  1.1254 -1.1209
 4072TIP3    H233632   0.615   4.541   6.196 -1.8660 -0.0269  0.0054
 4073TIP3   OH233633   1.244   5.935  12.733 -0.5243 -0.4083  0.0957
 4073TIP3    H133634   1.243   6.009  12.793 -0.9587 -0.3426  0.0109
 4073TIP3    H233635   1.276   5.971  12.650 -1.8386 -0.0455 -0.2801
 4074TIP3   OH233636   5.481   2.788   3.006  0.7080  0.4185  0.0147
 4074TIP3    H133637   5.546   2.828   3.064  0.1261 -0.4854  1.3126
 4074TIP3    H233638   5.527   2.713   2.967  0.7848  0.4267  0.0878
 4075TIP3   OH233639   1.924   5.070   4.427 -0.3226  0.1371 -0.3792
 4075TIP3    H133640   1.856   5.004   4.438 -1.1970  1.1954  1.1377
 4075TIP3    H233641   1.985   5.055   4.500 -1.3884  1.8957  0.9668
 4076TIP3   OH233642   6.136   4.598  16.098  0.2604  0.5280 -0.7871
 4076TIP3    H133643   6.075   4.555  16.039 -0.4245 -0.2813  0.4643
 4076TIP3    H233644   6.089   4.604  16.181  2.6065 -2.2127  0.9268
 4077TIP3   OH233645   4.786   3.983   3.258 -0.1801 -0.2601 -0.2934
 4077TIP3    H133646   4.791   4.015   3.348  0.1699 -1.5759  0.1705
 4077TIP3    H233647   4.706   3.931   3.256 -0.4453  0.1602 -0.8859
 4078TIP3   OH233648   3.374   2.494  11.947  0.2649 -0.6890  0.2577
 4078TIP3    H133649   3.288   2.530  11.969  0.1146  0.9311 -2.4958
 4078TIP3    H233650   3.416   2.562  11.894  3.4858 -1.2270  1.8200
 4079TIP3   OH233651   4.912   5.684   4.526  0.1647  0.4237 -1.1635
 4079TIP3    H133652   4.822   5.695   4.556  1.1489  0.6336  2.0598
 4079TIP3    H233653   4.966   5.727   4.592  2.6709  0.5455 -3.1121
 4080TIP3   OH233654   2.932   4.136  11.039 -0.0545 -0.1669 -0.4583
 4080TIP3    H133655   2.877   4.073  10.993  0.0128 -0.1728 -0.5313
 4080TIP3    H233656   3.020   4.100  11.033  0.1926  0.5564 -1.6005
 4081TIP3   OH233657   5.206   2.232  17.455 -0.4959 -0.1360  0.0371
 4081TIP3    H133658   5.184   2.323  17.477  1.6809  0.1277  1.3745
 4081TIP3    H233659   5.247   2.238  17.369  0.7877  0.3612  0.6586
 4082TIP3   OH233660   6.283   5.416  15.344 -0.0394 -0.1648  0.3029
 4082TIP3    H133661   6.343   5.350  15.312 -0.7496 -0.7827  0.2192
 4082TIP3    H233662   6.318   5.439  15.431  1.1521  0.5844 -0.3496
 4083TIP3   OH233663   6.224   2.535   5.470  0.2143 -0.1259 -0.5268
 4083TIP3    H133664   6.207   2.603   5.534 -0.5216 -0.9244  0.1436
 4083TIP3    H233665   6.205   2.453   5.515 -1.3373 -0.6680 -2.0518
 4084TIP3   OH233666   1.498   4.445   2.136 -0.1239  0.1486 -0.5352
 4084TIP3    H133667   1.417   4.440   2.085 -0.1523 -2.0788 -0.3624
 4084TIP3    H233668   1.470   4.438   2.227  0.1279  1.6264 -0.3154
 4085TIP3   OH233669   6.084   0.197   1.445  0.7389  0.0441 -0.3966
 4085TIP3    H133670   6.067   0.138   1.372  2.1832  0.5101 -1.1389
 4085TIP3    H233671   6.054   0.282   1.415 -0.5685 -0.1110  0.3632
 4086TIP3   OH233672   2.354   5.553  17.424 -0.2933 -0.0807 -0.6644
 4086TIP3    H133673   2.432   5.553  17.480 -0.1249  0.1915 -0.8995
 4086TIP3    H233674   2.290   5.605  17.473 -1.4279 -2.8958  1.0408
 4087TIP3   OH233675   1.210   1.153  16.396 -0.3444  0.7590  1.0060
 4087TIP3    H133676   1.135   1.155  16.454 -1.4378  3.3460 -0.2832
 4087TIP3    H233677   1.284   1.130  16.452 -2.0446 -2.2354  2.2484
 4088TIP3   OH233678   5.907   2.800  15.824 -0.1034  0.4052 -0.6879
 4088TIP3    H133679   5.886   2.865  15.757  0.0393  2.0980  0.8419
 4088TIP3    H233680   5.826   2.788  15.873  0.1764  0.3354 -0.2281
 4089TIP3   OH233681   5.376   1.579   4.244 -0.7079  0.3343 -0.4314
 4089TIP3    H133682   5.377   1.483   4.254  0.4330  0.3077 -0.6634
 4089TIP3    H233683   5.338   1.611   4.326  1.0904 -0.2353  0.6884
 4090TIP3   OH233684   2.614   5.257   1.335  0.1636  0.9423  0.7559
 4090TIP3    H133685   2.669   5.273   1.258 -1.0201  1.1433 -0.0770
 4090TIP3    H233686   2.645   5.320   1.400  0.1685  1.8267 -0.0842
 4091TIP3   OH233687   6.214   2.054  13.283 -0.0498 -0.3779 -0.2859
 4091TIP3    H133688   6.240   2.094  13.366  0.8847 -1.0068 -0.2598
 4091TIP3    H233689   6.221   2.125  13.219 -1.2375  0.2380  0.2256
 4092TIP3   OH233690   1.434   3.327  13.904 -0.2273 -0.3607  0.4680
 4092TIP3    H133691   1.520   3.285  13.898  0.7984  1.7337 -0.8654
 4092TIP3    H233692   1.408   3.315  13.995 -0.4202 -4.3887  0.0667
 4093TIP3   OH233693   5.945   4.263  16.988 -0.3792 -0.4031  0.3675
 4093TIP3    H133694   6.018   4.325  16.985 -0.4879 -0.2223  1.1497
 4093TIP3    H233695   5.971   4.193  16.929  0.0104  0.1038 -0.0792
 4094TIP3   OH233696   6.510   6.570   0.814 -0.4477  0.0691 -0.0335
 4094TIP3    H133697   6.605   6.568   0.817 -0.4430 -1.2466 -0.4087
 4094TIP3    H233698   6.483   6.495   0.867 -1.3682  1.8396  2.1842
 4095TIP3   OH233699   3.963   2.526   5.049 -0.4501  0.2720  0.0213
 4095TIP3    H133700   4.047   2.507   5.006 -1.2387 -0.7822 -1.1084
 4095TIP3    H233701   3.924   2.595   4.996 -1.5987 -1.2952 -1.2521
 4096TIP3   OH233702   6.553   0.787  14.472  0.2142  0.0716 -0.4156
 4096TIP3    H133703   6.631   0.769  14.419 -0.2337  0.8674 -1.4070
 4096TIP3    H233704   6.480   0.772  14.412 -0.4735 -1.4806  0.7334
 4097TIP3   OH233705   0.558   6.449   0.251 -0.3054  0.3097 -0.3365
 4097TIP3    H133706   0.559   6.405   0.336  0.4636  0.3639 -0.3146
 4097TIP3    H233707   0.592   6.384   0.189 -3.9003 -0.9335 -1.2414
 4098TIP3   OH233708   0.949   6.327   3.747 -0.0221  0.3491  0.2793
 4098TIP3    H133709   0.925   6.407   3.794 -0.7985 -0.8826  2.1090
 4098TIP3    H233710   0.883   6.318   3.679 -2.2639 -0.6116  2.4066
 4099TIP3   OH233711   3.898   1.238  12.542 -0.3028  0.5850  0.5270
 4099TIP3    H133712   3.936   1.154  12.516 -0.8211  0.6372 -0.4606
 4099TIP3    H233713   3.812   1.215  12.576 -0.5821  0.7337 -0.0617
 4100TIP3   OH233714   6.588   3.085  11.995  0.3413  0.3716  0.2431
 4100TIP3    H133715   6.683   3.100  11.990  0.2643  1.0401  0.6891
 4100TIP3    H233716   6.580   2.996  12.028  0.8104 -0.1504 -0.9713
 4101TIP3   OH233717   3.193   3.727  14.767 -0.1728 -0.4984  0.0299
 4101TIP3    H133718   3.268   3.752  14.822 -1.1782  2.5260  0.2539
 4101TIP3    H233719   3.119   3.772  14.807 -1.2593  0.4564 -2.8116
 4102TIP3   OH233720   1.321   4.571   3.575 -0.6953 -0.8825  0.7300
 4102TIP3    H133721   1.244   4.617   3.540  0.3255 -0.0356 -0.4762
 4102TIP3    H233722   1.287   4.485   3.601 -1.6286 -1.4549 -2.0441
 4103TIP3   OH233723   2.236   2.366   4.914 -0.4308 -0.4651  0.0224
 4103TIP3    H133724   2.282   2.408   4.841 -0.7140  0.3752  0.3122
 4103TIP3    H233725   2.228   2.435   4.980 -2.1670 -0.5527 -0.0492
 4104TIP3   OH233726   5.859   1.404  10.800  0.8856 -0.2471 -0.0587
 4104TIP3    H133727   5.801   1.473  10.770  0.6261  0.4979  1.9848
 4104TIP3    H233728   5.828   1.325  10.755 -1.9924  0.0422  1.2002
 4105TIP3   OH233729   1.272   3.957  14.610 -0.1660 -0.1146  0.1373
 4105TIP3    H133730   1.252   4.009  14.532 -1.0706 -0.2189  0.2910
 4105TIP3    H233731   1.366   3.971  14.624  0.3408 -1.1773 -1.7714
 4106TIP3   OH233732   3.313   4.395   5.246 -0.3156 -0.2762  0.1336
 4106TIP3    H133733   3.364   4.417   5.324  0.2141 -1.3327  0.0992
 4106TIP3    H233734   3.253   4.469   5.235  0.5494  0.5307  0.7361
 4107TIP3   OH233735   6.057   5.056   1.333  0.2097 -0.5680 -0.1463
 4107TIP3    H133736   6.094   5.139   1.304 -0.1096 -0.4077 -0.1093
 4107TIP3    H233737   6.074   5.053   1.427 -2.9696  1.2268  0.6560
 4108TIP3   OH233738   4.992   1.467   1.116  0.0519  0.1678  0.2029
 4108TIP3    H133739   5.016   1.445   1.025 -0.3076 -0.0326  0.1531
 4108TIP3    H233740   5.055   1.534   1.142 -0.6456  1.1781 -0.6413
 4109TIP3   OH233741   3.823   0.370  17.362  0.1845  0.4462 -0.0692
 4109TIP3    H133742   3.749   0.328  17.406  0.9482 -0.3142  0.5420
 4109TIP3    H233743   3.892   0.371  17.429  0.6214  1.4342 -0.5251
 4110TIP3   OH233744   6.198   2.690  14.523 -0.0912 -0.0685 -0.1759
 4110TIP3    H133745   6.277   2.636  14.516 -0.8444 -1.1219 -0.8558
 4110TIP3    H233746   6.126   2.629  14.510 -1.0624  0.7799  1.0141
 4111TIP3   OH233747   5.553   0.585   2.733 -0.2246 -0.3475 -0.1559
 4111TIP3    H133748   5.539   0.506   2.785 -1.3162 -0.1544 -0.1379
 4111TIP3    H233749   5.571   0.654   2.798 -0.5548 -0.3178 -0.0965
 4112TIP3   OH233750   2.262   1.452  14.785  0.0433  0.1775 -0.2672
 4112TIP3    H133751   2.340   1.451  14.730  0.7682  0.7276  0.6949
 4112TIP3    H233752   2.278   1.384  14.850  0.2717  1.0578  0.6265
 4113TIP3   OH233753   2.582   2.009  16.526  0.0213  0.1847  0.0848
 4113TIP3    H133754   2.592   1.958  16.607 -1.0504  1.4673  1.0853
 4113TIP3    H233755   2.610   1.950  16.457  0.6816 -1.0759  1.3640
 4114TIP3   OH233756   5.047   4.224  15.102 -0.2245  0.1191  0.0263
 4114TIP3    H133757   5.002   4.245  15.020 -1.4482 -0.3735  0.5573
 4114TIP3    H233758   4.978   4.190  15.160  0.9108 -1.1280  0.7000
 4115TIP3   OH233759   2.942   3.771   6.125  1.0490 -0.0334  0.0177
 4115TIP3    H133760   3.028   3.739   6.151  1.2136  0.7073  0.4015
 4115TIP3    H233761   2.891   3.771   6.206  0.8623  0.0741 -0.0986
 4116TIP3   OH233762   4.002   1.322  13.993  0.6190 -0.2201  0.0684
 4116TIP3    H133763   4.025   1.273  14.072 -0.2061  0.3160  0.6615
 4116TIP3    H233764   4.010   1.414  14.018 -0.7943 -0.0243 -0.0802
 4117TIP3   OH233765   6.296   0.685  11.231 -0.0264  0.3016 -0.2552
 4117TIP3    H133766   6.351   0.750  11.275 -0.5800  0.5547  0.0724
 4117TIP3    H233767   6.293   0.714  11.139  0.1267  0.4684 -0.2077
 4118TIP3   OH233768   1.277   5.636  11.784  0.1969 -0.8321  0.0566
 4118TIP3    H133769   1.256   5.545  11.765 -1.7730 -0.7829  1.6003
 4118TIP3    H233770   1.192   5.679  11.793  1.0684  1.2159 -0.7676
 4119TIP3   OH233771   3.041   4.566   0.335 -0.0900  0.5147  0.3091
 4119TIP3    H133772   2.947   4.554   0.325  0.2553 -1.7782 -1.2074
 4119TIP3    H233773   3.062   4.641   0.279 -0.8218 -0.1541 -0.9133
 4120TIP3   OH233774   2.430   5.529  16.373  0.7677  0.7242  0.2088
 4120TIP3    H133775   2.457   5.560  16.287 -0.8739  1.3815 -0.0926
 4120TIP3    H233776   2.365   5.593  16.403  1.0488  0.3274  1.7989
 4121TIP3   OH233777   5.459   3.849   2.013  0.3560 -0.6854 -0.4262
 4121TIP3    H133778   5.482   3.892   1.931 -1.0840  1.9311  0.4414
 4121TIP3    H233779   5.453   3.920   2.077 -1.6392 -2.2199  1.2299
 4122TIP3   OH233780   1.696   6.144   6.247  0.2320 -0.3982 -0.1337
 4122TIP3    H133781   1.778   6.192   6.237  1.5293 -2.1214  1.3092
 4122TIP3    H233782   1.654   6.183   6.324  0.1119 -0.0431 -0.3812
 4123TIP3   OH233783   0.750   6.461  15.662  0.1787  0.1057  0.0421
 4123TIP3    H133784   0.756   6.518  15.586 -1.4090 -0.5622 -0.6259
 4123TIP3    H233785   0.732   6.521  15.735 -1.7468  0.4895 -0.6910
 4124TIP3   OH233786   3.805   4.842   3.461  0.4337 -0.4280  0.0800
 4124TIP3    H133787   3.726   4.896   3.463 -0.2025 -1.3447  0.9220
 4124TIP3    H233788   3.847   4.857   3.546  1.5324  0.5568 -0.6192
 4125TIP3   OH233789   1.946   4.926  15.932 -0.2957 -0.1940  0.3733
 4125TIP3    H133790   2.003   4.853  15.959 -0.2720 -0.6290 -0.8008
 4125TIP3    H233791   1.990   4.964  15.856  0.5456  2.1263  1.9106
 4126TIP3   OH233792   4.000   0.203  12.114 -0.3459 -0.4290 -0.1989
 4126TIP3    H133793   4.010   0.132  12.177 -0.5092 -1.8871 -1.7347
 4126TIP3    H233794   3.931   0.259  12.150 -0.3497 -1.1615  0.9443
 4127TIP3   OH233795   2.241   2.946  14.081 -0.0014  0.1206 -0.0455
 4127TIP3    H133796   2.224   3.025  14.131  0.1957  1.2121 -1.6276
 4127TIP3    H233797   2.239   2.974  13.990  1.3102 -1.4387 -0.6168
 4128TIP3   OH233798   4.797   1.273  16.723 -0.1676  0.1969 -0.8245
 4128TIP3    H133799   4.832   1.185  16.738 -0.9509 -0.0874 -0.6150
 4128TIP3    H233800   4.709   1.270  16.760 -0.4704  0.8506 -1.4793
 4129TIP3   OH233801   6.061   0.826   2.944 -0.1022 -0.0081  0.8518
 4129TIP3    H133802   6.025   0.848   2.858 -0.4643  0.4595  1.1183
 4129TIP3    H233803   5.990   0.779   2.988  0.1622 -0.4459  0.8160
 4130TIP3   OH233804   5.619   0.476   0.071  0.0299 -0.0054  0.0795
 4130TIP3    H133805   5.677   0.412   0.112 -1.0057  0.1690  1.9578
 4130TIP3    H233806   5.614   0.547   0.134 -1.1836  0.5661 -0.6185
 4131TIP3   OH233807   1.629   0.827   5.305 -0.7407 -0.0722  0.5090
 4131TIP3    H133808   1.675   0.894   5.355  1.5935 -1.4948  0.3770
 4131TIP3    H233809   1.552   0.806   5.358 -1.3118  2.3699  0.7338
 4132TIP3   OH233810   1.672   2.695   4.735 -0.2580  0.4904  0.0734
 4132TIP3    H133811   1.606   2.688   4.666  1.0068  1.4340 -1.3066
 4132TIP3    H233812   1.626   2.734   4.809 -1.0583  2.0167 -1.1724
 4133TIP3   OH233813   5.200   3.870  12.531  0.0858 -0.2521 -0.5075
 4133TIP3    H133814   5.136   3.804  12.506  2.4872 -3.0468  0.1619
 4133TIP3    H233815   5.242   3.894  12.448  0.3354 -0.8864 -0.5740
 4134TIP3   OH233816   1.576   0.078   5.199 -0.1129  0.1445  0.4194
 4134TIP3    H133817   1.626   0.068   5.279  0.3858 -0.9158 -0.0124
 4134TIP3    H233818   1.642   0.082   5.129 -0.5454 -3.3977 -0.3991
 4135TIP3   OH233819   4.611   6.474   0.306  0.3392  0.1473  0.1084
 4135TIP3    H133820   4.563   6.450   0.227  0.1686  0.0511  0.2414
 4135TIP3    H233821   4.564   6.430   0.377 -0.1949  1.1455  0.3987
 4136TIP3   OH233822   4.203   0.135  13.306 -0.2445  0.1068 -0.4298
 4136TIP3    H133823   4.212   0.078  13.229 -0.0361 -0.3245 -0.0883
 4136TIP3    H233824   4.194   0.075  13.380  0.4119  0.5126 -0.0120
 4137TIP3   OH233825   6.324   4.667   2.361 -0.4249 -0.4652 -0.4709
 4137TIP3    H133826   6.348   4.651   2.452 -2.0719  1.1311  0.2945
 4137TIP3    H233827   6.233   4.637   2.354 -0.5211 -0.0107 -1.4197
 4138TIP3   OH233828   0.109   0.275  14.899 -0.5716 -0.1412  0.1671
 4138TIP3    H133829   0.110   0.365  14.867  1.1216  0.3417  1.4352
 4138TIP3    H233830   0.202   0.252  14.911 -0.9169 -2.3311 -0.8294
 4139TIP3   OH233831   2.481   2.032   2.343  0.0247  0.3542 -0.4879
 4139TIP3    H133832   2.417   2.025   2.413 -1.5384 -0.3486 -1.9189
 4139TIP3    H233833   2.500   2.125   2.336  2.2045  0.2795  2.5064
 4140TIP3   OH233834   0.246   5.966   3.417 -0.3785  0.0205  0.4423
 4140TIP3    H133835   0.273   6.029   3.483 -0.4959  0.6986 -0.1392
 4140TIP3    H233836   0.274   6.004   3.334  0.8426 -1.3712  0.1614
 4141TIP3   OH233837   3.625   5.380   6.026  0.1864  1.1667 -0.2311
 4141TIP3    H133838   3.646   5.318   5.956 -0.4530  1.0431 -0.3247
 4141TIP3    H233839   3.561   5.334   6.080  0.8389  1.1838  0.5695
 4142TIP3   OH233840   2.594   3.819  12.927  0.7683 -0.4746  0.6628
 4142TIP3    H133841   2.648   3.894  12.902 -1.3770  0.5556 -1.2786
 4142TIP3    H233842   2.561   3.842  13.014 -0.5583  1.3545 -0.2494
 4143TIP3   OH233843   1.858   2.658  13.871 -0.3159  0.0580 -0.0894
 4143TIP3    H133844   1.896   2.726  13.928 -0.7735  0.9654 -0.8301
 4143TIP3    H233845   1.891   2.576  13.907 -0.0165  0.6476  1.0495
 4144TIP3   OH233846   2.912   1.301  12.368 -0.0189 -0.4527 -0.1389
 4144TIP3    H133847   2.829   1.304  12.319 -0.4415  1.1950  0.5881
 4144TIP3    H233848   2.890   1.255  12.449 -0.1676 -0.2445 -0.0593
 4145TIP3   OH233849   2.342   0.970  15.062 -0.1622  0.7337  0.2344
 4145TIP3    H133850   2.293   0.911  15.119  1.2270 -1.2861 -0.5522
 4145TIP3    H233851   2.301   0.960  14.976 -0.3984  1.5333  0.2443
 4146TIP3   OH233852   6.289   0.251  14.715 -0.1946  0.3613 -0.0849
 4146TIP3    H133853   6.368   0.213  14.677 -0.1881  1.5342 -1.3171
 4146TIP3    H233854   6.321   0.314  14.780 -0.1441  0.3536 -0.1024
 4147TIP3   OH233855   1.185   1.707  15.549 -0.0345  0.9122 -0.0620
 4147TIP3    H133856   1.276   1.724  15.528 -0.1117  0.1898 -1.0331
 4147TIP3    H233857   1.136   1.767  15.492 -0.1966  0.0880 -0.8229
 4148TIP3   OH233858   4.723   0.037   3.703  0.3834  0.0586 -0.2681
 4148TIP3    H133859   4.772  -0.045   3.699 -0.6440 -0.7055  1.6804
 4148TIP3    H233860   4.637   0.016   3.666  0.5183  0.5969 -0.9069
 4149TIP3   OH233861   3.642   6.414  14.383 -0.2536 -0.3404 -0.0113
 4149TIP3    H133862   3.726   6.367  14.380  0.7807  1.3345  0.8331
 4149TIP3    H233863   3.576   6.345  14.391  1.0376 -1.7104 -0.6841
 4150TIP3   OH233864   4.503   3.685   6.621  0.0164 -0.1586  0.0721
 4150TIP3    H133865   4.554   3.749   6.573 -1.7120 -0.2547 -2.0780
 4150TIP3    H233866   4.499   3.609   6.563 -1.4274 -0.6250  0.7267
 4151TIP3   OH233867   1.674   3.916  13.545  0.0122 -0.0003 -0.7222
 4151TIP3    H133868   1.705   4.000  13.578  0.6969 -0.4186 -0.2821
 4151TIP3    H233869   1.587   3.935  13.510 -0.1853  0.7268  0.1275
 4152TIP3   OH233870   4.324   6.157   4.570  0.1622  0.9250  0.1447
 4152TIP3    H133871   4.245   6.119   4.608 -0.4071  2.6320  0.7361
 4152TIP3    H233872   4.394   6.128   4.629  0.3525 -2.1056 -1.3663
 4153TIP3   OH233873   2.642   0.914  16.050 -0.0104 -0.1861  0.0068
 4153TIP3    H133874   2.559   0.959  16.071  0.4874  1.1998 -0.8584
 4153TIP3    H233875   2.666   0.948  15.964  1.8865  0.0954  0.6011
 4154TIP3   OH233876   4.662   1.267   4.765 -0.3321 -0.6331 -0.2500
 4154TIP3    H133877   4.711   1.349   4.755 -0.7140 -0.5342 -1.5549
 4154TIP3    H233878   4.712   1.217   4.830  0.7831 -0.0133 -0.5926
 4155TIP3   OH233879   2.245   0.597   1.503  0.2701  0.6197 -0.4064
 4155TIP3    H133880   2.274   0.582   1.412  1.2552  2.3105 -0.4126
 4155TIP3    H233881   2.170   0.656   1.495 -1.5142 -1.4953 -0.2222
 4156TIP3   OH233882   1.154   4.351  12.771 -0.3474  0.0835  0.0836
 4156TIP3    H133883   1.103   4.418  12.725 -0.5146  0.0626  0.2350
 4156TIP3    H233884   1.189   4.396  12.847  1.7683  0.7173 -1.1834
 4157TIP3   OH233885   4.509   0.717   6.195  0.5134  0.2770 -0.0211
 4157TIP3    H133886   4.555   0.753   6.119 -1.0926  1.3961 -0.5026
 4157TIP3    H233887   4.519   0.785   6.262 -0.0855  0.3416  0.0025
 4158TIP3   OH233888   3.446   6.575  16.952  0.0157 -0.4900  0.3015
 4158TIP3    H133889   3.374   6.566  17.014 -2.7047 -0.2500 -2.5804
 4158TIP3    H233890   3.474   6.666  16.962  0.1606 -0.6483  1.6045
 4159TIP3   OH233891   2.956   1.234  15.308 -0.2155 -0.4072  0.3990
 4159TIP3    H133892   2.984   1.144  15.321  1.2684  0.1820  1.5172
 4159TIP3    H233893   2.860   1.230  15.310 -0.1656 -1.8583  1.1163
 4160TIP3   OH233894   3.729   5.367  16.909 -0.4381 -0.0124 -0.1901
 4160TIP3    H133895   3.644   5.411  16.912 -1.6289 -2.2529  0.5928
 4160TIP3    H233896   3.747   5.341  16.999  1.0138  0.2433 -0.3658
 4161TIP3   OH233897   3.135   0.638   5.119  0.1541  0.2691 -0.5413
 4161TIP3    H133898   3.149   0.609   5.209 -1.0645 -0.2627 -0.5019
 4161TIP3    H233899   3.176   0.570   5.065  1.2067  0.7722 -0.4050
 4162TIP3   OH233900   1.346   2.963   4.779 -0.1828 -0.4105  0.1399
 4162TIP3    H133901   1.411   2.908   4.822  0.1078 -0.0648  0.1445
 4162TIP3    H233902   1.317   3.023   4.847  0.4984  0.3378 -0.2177
 4163TIP3   OH233903   0.444   2.971  15.731 -0.6429 -0.0307 -0.3928
 4163TIP3    H133904   0.497   2.894  15.751  0.7223  1.4115  2.1082
 4163TIP3    H233905   0.484   3.009  15.654 -1.3217 -1.7380 -1.6550
 4164TIP3   OH233906   0.423   4.712  15.415 -0.5243 -0.2048 -0.3530
 4164TIP3    H133907   0.370   4.778  15.460 -0.0256 -0.1840  0.2153
 4164TIP3    H233908   0.360   4.648  15.384 -0.9945  0.4091 -0.6966
 4165TIP3   OH233909   0.292   4.057   5.925 -0.3444 -0.3935 -0.5765
 4165TIP3    H133910   0.303   3.966   5.951  0.0313  0.3463  2.2239
 4165TIP3    H233911   0.361   4.073   5.861  0.9704 -1.5395  0.5098
 4166TIP3   OH233912   1.291   5.680   0.670 -0.5977 -0.5380  0.2566
 4166TIP3    H133913   1.345   5.621   0.617 -1.1938 -1.5798  0.7559
 4166TIP3    H233914   1.208   5.633   0.680 -1.3950  0.7815 -0.0233
 4167TIP3   OH233915   0.953   2.585  13.405  0.1098  0.0074  0.2684
 4167TIP3    H133916   0.861   2.611  13.411  0.1204  0.0579  0.2146
 4167TIP3    H233917   0.998   2.642  13.467 -0.0289 -0.6700  1.0179
 4168TIP3   OH233918   5.097   5.633   4.045  0.0434  0.1992  0.0529
 4168TIP3    H133919   5.095   5.674   3.959 -1.1689  1.8739  0.8263
 4168TIP3    H233920   5.125   5.543   4.028  1.9680  1.0652 -1.8226
 4169TIP3   OH233921   4.291   3.896   3.774  0.4930  0.0151 -0.1063
 4169TIP3    H133922   4.254   3.820   3.818 -0.9462  0.5024 -0.4280
 4169TIP3    H233923   4.228   3.917   3.705  1.1967  1.0905 -0.4486
 4170TIP3   OH233924   2.448   5.275  16.839  0.0001 -0.0398 -0.3866
 4170TIP3    H133925   2.440   5.345  16.774  1.2344 -0.9946 -1.6305
 4170TIP3    H233926   2.538   5.242  16.829 -0.8694 -2.5538 -0.6517
 4171TIP3   OH233927   1.508   1.089   5.949  0.2344 -0.2461  0.0322
 4171TIP3    H133928   1.512   1.080   5.854 -0.3382  0.1594 -0.0366
 4171TIP3    H233929   1.594   1.061   5.980 -0.2450 -2.3863 -0.4241
 4172TIP3   OH233930   3.107   2.705  15.690 -0.1959 -0.2511  0.1419
 4172TIP3    H133931   3.101   2.781  15.748 -3.9001  0.7556 -1.2673
 4172TIP3    H233932   3.082   2.631  15.745  2.0153 -0.3332  1.1551
 4173TIP3   OH233933   4.603   2.503   1.810  0.3249 -0.1692  0.0381
 4173TIP3    H133934   4.548   2.570   1.769 -0.8862 -1.3153 -0.2693
 4173TIP3    H233935   4.626   2.539   1.895 -0.5290  0.5147 -0.0096
 4174TIP3   OH233936   5.514   2.559  15.742  0.2309 -1.0122 -0.0985
 4174TIP3    H133937   5.544   2.594  15.658 -0.8011 -1.4201 -0.6495
 4174TIP3    H233938   5.431   2.516  15.722 -0.2426 -0.7479  1.2098
 4175TIP3   OH233939   5.367   2.974  13.246 -0.1284  0.0753  0.6525
 4175TIP3    H133940   5.421   2.898  13.267 -0.7708 -0.4663  0.3894
 4175TIP3    H233941   5.277   2.943  13.255 -0.4062  0.5861 -0.2119
 4176TIP3   OH233942   4.977   4.889   6.616 -0.1299  0.8436  0.4468
 4176TIP3    H133943   4.986   4.959   6.681  1.4170 -0.6293  1.9205
 4176TIP3    H233944   5.049   4.829   6.634 -0.2723 -0.1918 -1.9970
 4177TIP3   OH233945   1.813   0.995  13.369 -0.0673  0.2393  0.0988
 4177TIP3    H133946   1.896   0.997  13.416  0.9175  0.6836 -1.5742
 4177TIP3    H233947   1.784   1.086  13.367  0.4321  0.3969 -0.9919
 4178TIP3   OH233948   3.554   5.603  13.853 -0.5049  0.0743 -0.0013
 4178TIP3    H133949   3.536   5.536  13.918 -1.6432  1.4906  1.2313
 4178TIP3    H233950   3.472   5.612  13.804 -0.3075  0.4340 -0.2746
 4179TIP3   OH233951   2.095   2.027   4.220 -0.4246  0.1744  0.0501
 4179TIP3    H133952   2.074   2.082   4.295  1.9687  1.0505  0.1737
 4179TIP3    H233953   2.174   2.066   4.183 -0.6949 -1.1044 -2.0578
 4180TIP3   OH233954   5.374   5.552   6.598 -0.0863  0.1351  0.3252
 4180TIP3    H133955   5.285   5.553   6.563  1.0368 -2.6449 -3.1872
 4180TIP3    H233956   5.419   5.622   6.550 -0.3030  1.6658  2.2308
 4181TIP3   OH233957   2.292   2.197   0.284  0.1437 -0.0626  0.5909
 4181TIP3    H133958   2.285   2.153   0.200  0.0221  0.3843  0.3624
 4181TIP3    H233959   2.274   2.289   0.264  0.9898  0.1923  0.9556
 4182TIP3   OH233960   1.086   4.759  15.961  0.1758 -0.1459  0.7108
 4182TIP3    H133961   1.114   4.786  16.048  1.1714 -0.1536  0.4058
 4182TIP3    H233962   1.007   4.811  15.944 -0.4215 -0.6195  1.8644
 4183TIP3   OH233963   3.994   5.086  15.072 -0.1599 -0.4541 -0.1542
 4183TIP3    H133964   4.015   5.062  14.982  0.9796 -1.3087  0.3107
 4183TIP3    H233965   3.904   5.057  15.084 -0.6569  0.5512 -1.3020
 4184TIP3   OH233966   3.814   3.924  15.097  0.0747 -0.1528 -0.1213
 4184TIP3    H133967   3.724   3.947  15.119 -1.0551 -2.6688 -1.5573
 4184TIP3    H233968   3.866   3.999  15.124 -2.4203  1.3235  0.9304
 4185TIP3   OH233969   5.667   4.102   2.650  0.5843 -0.1669 -0.2375
 4185TIP3    H133970   5.694   4.117   2.741  0.7152 -0.9976 -0.1375
 4185TIP3    H233971   5.728   4.154   2.599  0.5658  0.2380  0.1364
 4186TIP3   OH233972   1.165   1.472   1.416 -0.0224 -0.1517  0.2775
 4186TIP3    H133973   1.145   1.397   1.361 -0.6923  0.8006 -0.8135
 4186TIP3    H233974   1.261   1.479   1.413  0.1123 -1.3758  0.9908
 4187TIP3   OH233975   2.928   6.451   0.365  0.4555 -0.3997 -0.4346
 4187TIP3    H133976   3.010   6.440   0.411  0.1735  1.7445  0.7325
 4187TIP3    H233977   2.945   6.420   0.276  1.7742 -2.2037  0.3923
 4188TIP3   OH233978   4.395   0.401  14.933  0.1696 -0.1881  0.0921
 4188TIP3    H133979   4.404   0.307  14.919 -0.7942 -0.3359  0.3972
 4188TIP3    H233980   4.303   0.420  14.913  0.2595  0.6238  0.3874
 4189TIP3   OH233981   5.826   0.664   5.550  0.7631  0.8802 -0.0583
 4189TIP3    H133982   5.768   0.601   5.507  1.0745 -2.9879  4.3739
 4189TIP3    H233983   5.903   0.668   5.494  0.9271 -3.2494 -0.4154
 4190TIP3   OH233984   2.568   2.320  15.211 -0.3249  0.2418 -0.3791
 4190TIP3    H133985   2.542   2.384  15.145 -0.4590  1.1010  0.4763
 4190TIP3    H233986   2.516   2.343  15.288 -0.3839 -0.9127 -0.0432
 4191TIP3   OH233987   2.042   1.328   1.132 -0.8701  0.4732 -0.0324
 4191TIP3    H133988   2.110   1.261   1.126 -1.7553 -0.7309  2.2107
 4191TIP3    H233989   2.089   1.409   1.149  0.0832 -0.0342 -0.2135
 4192TIP3   OH233990   1.815   1.502  11.258 -0.6112  0.5292 -0.1730
 4192TIP3    H133991   1.803   1.563  11.185  1.3814  1.8387  0.4883
 4192TIP3    H233992   1.734   1.508  11.308 -1.5255  0.5178 -1.6120
 4193TIP3   OH233993   3.095   4.050  15.115  0.4150 -0.8176  0.1188
 4193TIP3    H133994   3.160   3.981  15.129 -1.4080 -2.4864  0.8159
 4193TIP3    H233995   3.024   4.006  15.068  0.3318  1.2802 -1.8761
 4194TIP3   OH233996   0.609   1.178  15.438 -0.5058 -0.0861  0.2563
 4194TIP3    H133997   0.687   1.216  15.398  0.4333 -1.3286  0.8617
 4194TIP3    H233998   0.550   1.162  15.365 -0.5218  1.5333 -0.1315
 4195TIP3   OH233999   2.630   3.386   2.023  0.1775  0.3126 -0.3271
 4195TIP3    H134000   2.591   3.472   2.004 -2.6490 -0.6483  0.5756
 4195TIP3    H234001   2.706   3.381   1.965 -0.9923  2.4445 -2.2306
 4196TIP3   OH234002   1.252   6.459  12.364 -0.2134  0.3477  0.2128
 4196TIP3    H134003   1.314   6.531  12.353 -1.1154  0.9035 -1.7418
 4196TIP3    H234004   1.203   6.458  12.282 -1.7400 -1.0664  1.0954
 4197TIP3   OH234005   0.921   1.273   3.243 -0.6170  0.1970  0.6142
 4197TIP3    H134006   0.986   1.319   3.296  0.2381  0.6870 -0.8125
 4197TIP3    H234007   0.837   1.307   3.273 -0.0680  1.6619  0.5449
 4198TIP3   OH234008   2.597   0.654  13.365  0.6483 -0.3458  0.4796
 4198TIP3    H134009   2.577   0.583  13.304  0.9285  1.0670 -1.3087
 4198TIP3    H234010   2.583   0.734  13.315 -2.6933  1.0975  3.2762
 4199TIP3   OH234011   6.211   6.698   0.014  0.5780  0.5539  0.2261
 4199TIP3    H134012   6.229   6.606   0.032  0.1271  0.1131 -1.4728
 4199TIP3    H234013   6.298   6.739   0.008  0.7675  0.5240  2.1832
 4200TIP3   OH234014   1.268   4.161  15.760 -0.3537  0.6074 -1.0858
 4200TIP3    H134015   1.261   4.100  15.686 -1.8455 -1.1225  0.3836
 4200TIP3    H234016   1.177   4.180  15.784  0.0455  3.3628 -1.3672
 4201TIP3   OH234017   1.219   4.333   3.658  0.2305  0.7977  0.1345
 4201TIP3    H134018   1.215   4.257   3.715 -1.3666 -1.3834 -2.6393
 4201TIP3    H234019   1.129   4.367   3.656  1.0035  3.2514  1.7620
 4202TIP3   OH234020   0.905   3.788  13.902 -0.1509  0.4930 -0.1124
 4202TIP3    H134021   0.993   3.823  13.916 -0.9507  2.0839  1.3632
 4202TIP3    H234022   0.876   3.827  13.820  0.6959 -0.5305 -0.9393
 4203TIP3   OH234023   1.204   1.586  13.669  0.0475  0.2028 -0.3585
 4203TIP3    H134024   1.230   1.670  13.707  0.9280 -0.4796  0.6005
 4203TIP3    H234025   1.122   1.564  13.714  0.1326  0.2627 -0.1733
 4204TIP3   OH234026   4.614   0.885  11.355  0.3483  0.3625 -0.2443
 4204TIP3    H134027   4.603   0.923  11.267  0.2273 -0.8340 -0.7663
 4204TIP3    H234028   4.692   0.927  11.390  0.2612  1.0325 -0.8264
 4205TIP3   OH234029   2.579   6.405   2.229 -1.1386  0.1374  0.2024
 4205TIP3    H134030   2.541   6.466   2.166 -1.7773 -1.6206 -1.2012
 4205TIP3    H234031   2.616   6.335   2.175 -0.1822 -0.5868  1.7404
 4206TIP3   OH234032   4.389   3.924  15.491 -0.1581  0.6862 -0.4463
 4206TIP3    H134033   4.317   3.973  15.531  0.4958  1.4151 -0.1286
 4206TIP3    H234034   4.388   3.949  15.399  0.4807  1.7042 -0.1875
 4207TIP3   OH234035   2.858   5.524  15.195  0.2059  0.3919  0.2762
 4207TIP3    H134036   2.831   5.464  15.126  1.8815 -1.5443  1.1925
 4207TIP3    H234037   2.797   5.506  15.267 -0.1608  0.8335  0.0850
 4208TIP3   OH234038   0.388   0.707  13.713  0.2199 -0.1578 -0.1520
 4208TIP3    H134039   0.432   0.732  13.632 -0.5266  0.9186 -0.2459
 4208TIP3    H234040   0.454   0.657  13.761  1.1192  0.3441 -0.8236
 4209TIP3   OH234041   2.779   6.113  12.904  0.0972  0.0601 -0.0177
 4209TIP3    H134042   2.836   6.136  12.977  0.7420  2.4895 -1.1970
 4209TIP3    H234043   2.714   6.183  12.901 -0.8099 -0.7970 -0.8767
 4210TIP3   OH234044   3.632   0.319  12.907 -0.0087 -0.0768 -0.7038
 4210TIP3    H134045   3.723   0.316  12.878  0.5764  0.5733  0.9863
 4210TIP3    H234046   3.633   0.284  12.996 -0.9844  2.2436  0.3103
 4211TIP3   OH234047   4.395   0.344  16.983 -0.3198 -0.2120 -0.4154
 4211TIP3    H134048   4.403   0.249  16.997 -1.5741 -0.0274  2.0527
 4211TIP3    H234049   4.332   0.352  16.912  0.6086 -1.2037 -1.4025
 4212TIP3   OH234050   2.204   4.404  12.465 -0.1215 -0.2522  0.2060
 4212TIP3    H134051   2.206   4.319  12.508 -0.6458 -0.3779 -0.0133
 4212TIP3    H234052   2.243   4.389  12.379 -0.2809 -0.2849  0.1401
 4213TIP3   OH234053   2.560   2.490  12.638 -0.5067 -0.3619 -0.1993
 4213TIP3    H134054   2.531   2.415  12.586  0.6489  0.0267 -1.4310
 4213TIP3    H234055   2.576   2.453  12.726 -2.5127 -1.0111 -0.0533
 4214TIP3   OH234056   6.136   3.326  14.460  0.1375 -1.0672  0.1875
 4214TIP3    H134057   6.158   3.258  14.524  0.7781 -1.0991 -0.0619
 4214TIP3    H234058   6.171   3.406  14.497  0.6100 -1.1033 -0.1696
 4215TIP3   OH234059   1.527   5.695  17.465 -0.1891 -0.0807  0.4335
 4215TIP3    H134060   1.459   5.742  17.514 -0.5787 -0.7517  0.5450
 4215TIP3    H234061   1.517   5.727  17.375  0.0960  0.6641  0.6616
 4216TIP3   OH234062   6.370   1.936  15.626  0.1684 -0.4217  0.0629
 4216TIP3    H134063   6.293   1.989  15.643 -0.5270 -1.5179  0.4730
 4216TIP3    H234064   6.376   1.878  15.702  1.7797  0.0847  0.3455
 4217TIP3   OH234065   0.456   4.427  12.728 -0.3264 -0.1701  0.0688
 4217TIP3    H134066   0.467   4.514  12.689  0.3633 -0.3315 -0.1079
 4217TIP3    H234067   0.392   4.383  12.671  1.5216 -0.8204 -1.6340
 4218TIP3   OH234068   5.419   5.666   0.110  0.0390 -0.2008  0.7695
 4218TIP3    H134069   5.325   5.679   0.122 -0.1268 -0.7375  0.1717
 4218TIP3    H234070   5.452   5.645   0.197 -0.1356  1.4253  1.2467
 4219TIP3   OH234071   3.350   0.167  13.760  0.4710 -0.4279 -0.1646
 4219TIP3    H134072   3.358   0.261  13.777 -0.6036  0.1838 -2.6349
 4219TIP3    H234073   3.310   0.132  13.840  0.8854  1.1912  0.8085
 4220TIP3   OH234074   2.245   4.983  11.609  0.2296 -0.1369  0.2730
 4220TIP3    H134075   2.174   4.920  11.620  0.6814 -1.0132 -1.5478
 4220TIP3    H234076   2.291   4.982  11.693 -1.6402  0.1773  1.3724
 4221TIP3   OH234077   6.173   6.106  14.669 -0.3950 -0.0743 -0.1683
 4221TIP3    H134078   6.139   6.100  14.580 -0.7485  0.4468 -0.0734
 4221TIP3    H234079   6.101   6.074  14.724 -1.1537  1.9773  0.1117
 4222TIP3   OH234080   2.568   5.474   3.290  0.5339 -0.4606 -0.6734
 4222TIP3    H134081   2.505   5.505   3.224 -0.3527  1.7228  1.0665
 4222TIP3    H234082   2.619   5.552   3.313 -1.0119 -0.3582  3.1065
 4223TIP3   OH234083   1.998   3.281  13.214 -0.4680  0.0190 -0.1151
 4223TIP3    H134084   1.911   3.311  13.190 -0.8914 -0.6902  0.5000
 4223TIP3    H234085   1.983   3.208  13.274  0.5530  0.2529  0.4484
 4224TIP3   OH234086   1.345   0.741  14.792 -0.0832 -0.5443  0.2841
 4224TIP3    H134087   1.441   0.747  14.786 -0.1462  0.9376  0.2884
 4224TIP3    H234088   1.320   0.682  14.721  0.7006  0.7616 -1.1546
 4225TIP3   OH234089   3.617   4.209   3.306  0.1387  0.1170 -0.6674
 4225TIP3    H134090   3.618   4.122   3.346  0.4378  0.6705  0.5797
 4225TIP3    H234091   3.603   4.269   3.379 -0.3331  1.1105 -1.5386
 4226TIP3   OH234092   4.459   4.491  12.426 -0.2900 -0.1438 -0.0580
 4226TIP3    H134093   4.467   4.587  12.426  1.1413 -0.2307  0.5502
 4226TIP3    H234094   4.492   4.465  12.340 -0.2937 -0.1071 -0.0707
 4227TIP3   OH234095   3.477   3.929   3.372  0.2792 -0.2218 -0.5378
 4227TIP3    H134096   3.531   3.953   3.448 -0.7037  0.6740 -0.1079
 4227TIP3    H234097   3.541   3.916   3.301  1.0835  0.5778  0.0140
 4228TIP3   OH234098   0.234   6.491   6.168 -0.1332  0.3236  0.6979
 4228TIP3    H134099   0.191   6.464   6.249  1.9204 -0.7841  1.4749
 4228TIP3    H234100   0.222   6.416   6.109  2.3871 -0.9240  1.6220
 4229TIP3   OH234101   4.061   2.852   1.650  0.0653 -0.7757  0.5974
 4229TIP3    H134102   3.968   2.844   1.666 -0.0927 -0.6302 -0.2001
 4229TIP3    H234103   4.089   2.765   1.620  0.3821 -1.0827  1.7398
 4230TIP3   OH234104   3.337   0.882   2.100 -0.1955 -0.1238  0.1176
 4230TIP3    H134105   3.249   0.914   2.117 -0.8430 -1.0129 -1.3405
 4230TIP3    H234106   3.360   0.918   2.014  2.0770  2.4667  1.6234
 4231TIP3   OH234107   4.163   6.108  15.885  0.0200 -0.2064  0.3725
 4231TIP3    H134108   4.180   6.042  15.953  0.6757 -0.0066  0.4179
 4231TIP3    H234109   4.115   6.062  15.817 -0.3183 -0.5026  0.8097
 4232TIP3   OH234110   2.153   3.833   2.499 -0.4586 -0.1594  0.2351
 4232TIP3    H134111   2.081   3.862   2.442 -2.5866 -1.1133  2.2720
 4232TIP3    H234112   2.213   3.788   2.440 -1.3079  1.0146 -1.6208
 4233TIP3   OH234113   5.517   6.129   1.844 -0.3140 -0.6408  0.8994
 4233TIP3    H134114   5.424   6.147   1.859 -0.5696 -2.6935  2.2603
 4233TIP3    H234115   5.537   6.058   1.905  0.9146 -3.6083 -2.5840
 4234TIP3   OH234116   3.410   2.078  14.949  0.0994 -0.4302 -0.4072
 4234TIP3    H134117   3.334   2.135  14.957  0.4535  0.1333 -0.9388
 4234TIP3    H234118   3.426   2.047  15.038 -0.6311 -0.3967 -0.2601
 4235TIP3   OH234119   3.539   1.042  16.573 -0.2714  0.4082 -0.5479
 4235TIP3    H134120   3.627   1.045  16.611  1.6452 -2.0461 -4.1468
 4235TIP3    H234121   3.515   0.949  16.577 -0.8265  0.3595 -3.1362
 4236TIP3   OH234122   5.288   6.243  15.172 -0.8412 -0.2209  0.2818
 4236TIP3    H134123   5.303   6.306  15.102  0.4060  0.4155  1.0795
 4236TIP3    H234124   5.343   6.168  15.149  0.0227  0.2237  0.8508
 4237TIP3   OH234125   6.388   3.941  15.332  0.2087  0.0233 -0.2856
 4237TIP3    H134126   6.301   3.900  15.327 -0.0983  0.6322 -0.0297
 4237TIP3    H234127   6.370   4.035  15.331  0.9456  0.1816 -1.6959
 4238TIP3   OH234128   6.139   1.093   2.746 -0.1330  0.3300 -0.0763
 4238TIP3    H134129   6.070   1.032   2.719 -0.9078  0.9994  0.3389
 4238TIP3    H234130   6.151   1.150   2.671 -0.3028  0.4410 -0.0214
 4239TIP3   OH234131   4.067   0.572   2.443 -0.8989  0.6719 -0.0633
 4239TIP3    H134132   3.988   0.562   2.497 -1.1224 -0.7731 -0.6315
 4239TIP3    H234133   4.117   0.491   2.457  0.5253  1.5729  0.3189
 4240TIP3   OH234134   4.973   4.910   4.601 -0.7407 -0.1176  0.0073
 4240TIP3    H134135   4.906   4.962   4.557 -1.5300 -1.7105 -0.7428
 4240TIP3    H234136   4.925   4.837   4.640  0.3943 -0.5528  0.6412
 4241TIP3   OH234137   4.575   4.277  12.953  0.1658  0.3543 -0.0436
 4241TIP3    H134138   4.558   4.237  13.038  0.2674  0.6150  0.1011
 4241TIP3    H234139   4.669   4.294  12.952  0.0762  0.8865  0.0355
 4242TIP3   OH234140   0.101   3.916  13.159 -0.5340  0.0561 -0.7851
 4242TIP3    H134141   0.012   3.920  13.195  0.2532  2.5536  1.2007
 4242TIP3    H234142   0.154   3.968  13.220  1.9133  0.3580 -2.9901
 4243TIP3   OH234143   5.074   1.821   6.307  0.1709  0.0344 -0.3026
 4243TIP3    H134144   5.047   1.824   6.399  0.6969  0.2643 -0.1517
 4243TIP3    H234145   5.170   1.823   6.310  0.1889  0.2300 -0.8607
 4244TIP3   OH234146   1.738   4.490   4.966 -0.1701 -0.2341  0.2168
 4244TIP3    H134147   1.776   4.506   5.052 -0.7773  0.1695  0.4193
 4244TIP3    H234148   1.662   4.435   4.983 -0.0725 -0.4725 -0.1058
 4245TIP3   OH234149   1.618   1.770  16.922 -0.0895  0.4226  0.4127
 4245TIP3    H134150   1.534   1.770  16.876 -0.5758  0.2253  1.2824
 4245TIP3    H234151   1.632   1.678  16.946 -0.4176  0.6789  1.6591
 4246TIP3   OH234152   3.211   4.779   4.321  0.2179  0.2186 -0.2963
 4246TIP3    H134153   3.202   4.863   4.365  0.1048 -0.1946  0.4849
 4246TIP3    H234154   3.170   4.792   4.236 -0.4315  0.7453  0.0905
 4247TIP3   OH234155   0.088   1.395   1.713  0.0177  0.0986  0.5268
 4247TIP3    H134156   0.091   1.377   1.807 -0.2590  2.1396  0.9838
 4247TIP3    H234157  -0.004   1.413   1.695  0.0734 -0.2614 -0.1323
 4248TIP3   OH234158   0.855   2.806   3.546 -0.0459  0.2075  0.0231
 4248TIP3    H134159   0.944   2.839   3.560  0.2212 -1.0544  1.5189
 4248TIP3    H234160   0.823   2.855   3.470  2.1445  0.2595 -0.9469
 4249TIP3   OH234161   2.091   4.635  17.171 -0.1213  0.3694 -0.5580
 4249TIP3    H134162   2.176   4.678  17.178  0.6554 -1.1529 -0.0965
 4249TIP3    H234163   2.047   4.681  17.100  0.5824  1.9836 -0.0057
 4250TIP3   OH234164   2.040   5.038   4.651 -0.4769  0.5256 -0.0238
 4250TIP3    H134165   2.084   5.058   4.734  1.5293 -1.6507 -0.4869
 4250TIP3    H234166   2.027   4.944   4.652 -1.7619  0.6381 -1.5857
 4251TIP3   OH234167   4.254   6.203   0.290  0.1804  0.0673  0.7554
 4251TIP3    H134168   4.312   6.262   0.337 -0.2004 -0.6800  2.2145
 4251TIP3    H234169   4.299   6.187   0.207  0.6862  1.7034  0.6802
 4252TIP3   OH234170   5.561   5.861   1.880 -0.0002  0.1373  0.0440
 4252TIP3    H134171   5.556   5.861   1.784  1.1184  1.0725 -0.0464
 4252TIP3    H234172   5.475   5.832   1.908 -0.5236  0.3366 -1.2478
 4253TIP3   OH234173   4.962   5.991   1.575  0.3169 -0.2266  0.0891
 4253TIP3    H134174   4.912   5.914   1.546  0.5882 -0.6317  0.6669
 4253TIP3    H234175   5.052   5.973   1.546  1.0220 -1.5721  2.7672
 4254TIP3   OH234176   1.220   4.460   0.952 -0.3144 -0.8554 -0.1888
 4254TIP3    H134177   1.169   4.387   0.988 -2.4238  1.2643  1.4109
 4254TIP3    H234178   1.214   4.529   1.018  0.8411  1.1170 -2.0057
 4255TIP3   OH234179   1.264   3.187  12.014  0.5897 -0.2762  0.0714
 4255TIP3    H134180   1.213   3.168  11.936  1.2416  0.6852 -0.6145
 4255TIP3    H234181   1.210   3.249  12.063 -1.8737 -4.0816  2.6723
 4256TIP3   OH234182   3.498   4.378  14.709  0.1635  0.0519  0.1436
 4256TIP3    H134183   3.551   4.455  14.731  1.2058 -0.5868 -0.0339
 4256TIP3    H234184   3.525   4.355  14.620 -1.1341  0.2758 -0.3270
 4257TIP3   OH234185   2.774   2.296  10.500 -0.0224  0.0407 -0.2591
 4257TIP3    H134186   2.867   2.315  10.504  0.3180 -0.1617 -4.0509
 4257TIP3    H234187   2.769   2.200  10.505  0.0592  0.0150 -0.6094
 4258TIP3   OH234188   3.392   2.424   4.763  0.6600  0.5121 -0.2617
 4258TIP3    H134189   3.420   2.332   4.764  2.3321  0.9487 -1.7995
 4258TIP3    H234190   3.323   2.427   4.698 -0.1272  0.1750  0.5426
 4259TIP3   OH234191   6.564   2.921   1.554 -0.3902  0.0059  0.6843
 4259TIP3    H134192   6.647   2.925   1.506 -0.8055 -0.8859 -0.1456
 4259TIP3    H234193   6.534   3.012   1.557  0.2878  0.2471  0.4152
 4260TIP3   OH234194   2.777   4.192   3.765 -0.3615  0.4001  0.5826
 4260TIP3    H134195   2.709   4.194   3.832 -1.2192  0.4731 -0.2787
 4260TIP3    H234196   2.812   4.103   3.769  0.4498  0.7424  1.9460
 4261TIP3   OH234197   3.915   6.618  15.409  0.2728 -0.1880 -0.0454
 4261TIP3    H134198   3.866   6.683  15.459  1.7307  0.6032  0.4086
 4261TIP3    H234199   3.911   6.650  15.319 -1.2133 -0.8977 -0.2665
 4262TIP3   OH234200   5.766   2.203  16.308 -0.3781 -0.3000 -0.0796
 4262TIP3    H134201   5.772   2.163  16.395  0.7056 -0.2374 -0.1103
 4262TIP3    H234202   5.836   2.162  16.258  0.0602  0.8416 -0.4302
 4263TIP3   OH234203   1.348   5.671  16.658 -0.1192  0.0631 -0.6093
 4263TIP3    H134204   1.402   5.626  16.592  0.0693  1.1813 -1.2357
 4263TIP3    H234205   1.306   5.742  16.609 -2.0994 -0.7104 -0.1243
 4264TIP3   OH234206   3.259   0.310  13.231 -0.4540 -0.3204  0.2083
 4264TIP3    H134207   3.251   0.250  13.157 -2.4843 -0.2839  0.3530
 4264TIP3    H234208   3.193   0.281  13.294 -2.3765  2.6560 -0.1939
 4265TIP3   OH234209   6.438   6.725  16.604  0.3812 -0.0875  0.4794
 4265TIP3    H134210   6.449   6.636  16.570 -1.7665  0.1057 -0.8908
 4265TIP3    H234211   6.526   6.752  16.628  1.0938 -2.6207  1.0717
 4266TIP3   OH234212   3.512   4.271  11.099 -0.0311 -0.0779 -0.0185
 4266TIP3    H134213   3.472   4.188  11.073 -0.3586  0.9384 -3.1864
 4266TIP3    H234214   3.447   4.337  11.076  1.7399  1.3115 -1.3054
 4267TIP3   OH234215   6.593   6.515  14.283 -0.4229 -0.0603  0.3777
 4267TIP3    H134216   6.687   6.524  14.298 -0.5530  0.3963  0.9631
 4267TIP3    H234217   6.570   6.589  14.228 -0.5262  0.1065  0.6445
 4268TIP3   OH234218   4.423   0.113   0.644  0.5824 -0.5976  0.1677
 4268TIP3    H134219   4.430   0.052   0.718 -1.5503 -0.1573  0.8002
 4268TIP3    H234220   4.382   0.191   0.681 -0.9104 -0.5144 -1.5302
 4269TIP3   OH234221   3.021   0.627  14.142  0.2993 -0.9271  0.1692
 4269TIP3    H134222   3.043   0.589  14.057 -0.9370 -1.7028  0.1717
 4269TIP3    H234223   2.930   0.601  14.157  0.3171 -0.3112  1.4678
 4270TIP3   OH234224   2.158   2.244   3.186  0.0126  0.1633 -0.0265
 4270TIP3    H134225   2.197   2.244   3.098 -0.9564  0.0297 -0.4782
 4270TIP3    H234226   2.225   2.282   3.242  2.4006 -3.6238 -0.0016
 4271TIP3   OH234227   1.693   3.949  17.359 -0.4806  0.0059 -0.0053
 4271TIP3    H134228   1.775   3.983  17.393 -0.0150  0.1354 -1.2006
 4271TIP3    H234229   1.710   3.857  17.341 -0.8179 -0.1393  0.4089
 4272TIP3   OH234230   2.665   4.866  16.583  0.1098  0.4768 -0.1481
 4272TIP3    H134231   2.700   4.823  16.660 -0.2910  0.2521 -0.0853
 4272TIP3    H234232   2.729   4.933  16.561  0.0123  0.8381  0.6397
 4273TIP3   OH234233   5.929   6.429   2.489 -0.2906  0.1114  0.5228
 4273TIP3    H134234   6.001   6.462   2.543 -0.6842  0.8038  0.6381
 4273TIP3    H234235   5.924   6.336   2.511  1.1676 -0.1555 -0.1894
 4274TIP3   OH234236   1.657   6.118   2.334  0.1070  0.3333  0.6135
 4274TIP3    H134237   1.628   6.034   2.298  2.4837  0.5901 -2.3204
 4274TIP3    H234238   1.586   6.179   2.314 -0.6325 -0.5067  0.6194
 4275TIP3   OH234239   0.405   3.006  11.848  0.2743 -0.3204  0.4317
 4275TIP3    H134240   0.380   2.915  11.831  1.6308 -0.5526 -0.4565
 4275TIP3    H234241   0.489   3.000  11.893  0.3227  0.4933  0.4711
 4276TIP3   OH234242   4.209   1.709  13.731 -0.3051  0.0516  0.3404
 4276TIP3    H134243   4.249   1.713  13.818 -0.3366  0.5552  0.3368
 4276TIP3    H234244   4.266   1.763  13.676 -1.3292  1.3395  0.4816
 4277TIP3   OH234245   1.546   4.996  15.355 -0.5893  0.3725 -0.7758
 4277TIP3    H134246   1.577   5.056  15.287 -0.4986  0.7539 -0.4058
 4277TIP3    H234247   1.579   5.034  15.437  1.4221 -1.3632 -0.6859
 4278TIP3   OH234248   5.053   0.502   0.306 -0.3749 -0.2584  0.3950
 4278TIP3    H134249   4.991   0.446   0.352  0.9096 -1.8600  0.2635
 4278TIP3    H234250   5.048   0.475   0.214  2.6703 -2.7371  0.7722
 4279TIP3   OH234251   3.411   1.191   4.493  0.2047  0.4262 -0.1920
 4279TIP3    H134252   3.436   1.260   4.554 -0.4960  0.4937  0.0318
 4279TIP3    H234253   3.324   1.163   4.523  0.2534 -0.1843 -0.5993
 4280TIP3   OH234254   1.759   5.738  17.036  0.0901 -0.1176  0.2909
 4280TIP3    H134255   1.830   5.675  17.045  0.7421  0.2193 -1.7986
 4280TIP3    H234256   1.695   5.694  16.980 -0.3341  0.3793  0.3757
 4281TIP3   OH234257   1.677   5.991  16.854  0.3609  0.3729  0.4222
 4281TIP3    H134258   1.703   5.905  16.821 -2.5942 -0.6906  0.5773
 4281TIP3    H234259   1.633   6.033  16.780  1.6160  1.7255  0.4023
 4282TIP3   OH234260   6.464   3.484   4.652 -0.0129  0.6997  0.0318
 4282TIP3    H134261   6.460   3.570   4.612  2.0485  0.7876 -0.0957
 4282TIP3    H234262   6.404   3.430   4.601 -0.1107  1.6720 -0.9101
 4283TIP3   OH234263   4.140   5.586   2.111  0.3337 -0.2400 -0.1891
 4283TIP3    H134264   4.121   5.623   2.024  1.5232  1.0797  0.0829
 4283TIP3    H234265   4.126   5.659   2.172 -0.8921 -1.2601  0.8115
 4284TIP3   OH234266   6.397   4.127  15.119  0.3686  0.2106  0.3602
 4284TIP3    H134267   6.426   4.043  15.156 -0.7670  0.1948  1.2578
 4284TIP3    H234268   6.344   4.167  15.188  1.4797  2.0285  0.2462
 4285TIP3   OH234269   2.764   2.280   1.338 -0.2234 -0.2930  0.4243
 4285TIP3    H134270   2.831   2.341   1.305  1.1853 -0.7877  2.2129
 4285TIP3    H234271   2.707   2.335   1.393 -1.7349  0.2491 -1.5630
 4286TIP3   OH234272   1.765   3.656  11.188  0.0562 -0.0641 -0.1673
 4286TIP3    H134273   1.776   3.729  11.127  0.1034 -0.3028 -0.4512
 4286TIP3    H234274   1.730   3.585  11.133 -1.6267  0.2580  0.4379
 4287TIP3   OH234275   5.675   0.416  14.862 -0.5191  1.0524 -0.4824
 4287TIP3    H134276   5.724   0.474  14.920 -1.7456  3.0301 -1.3324
 4287TIP3    H234277   5.741   0.376  14.806  0.3810  1.4389  0.2674
 4288TIP3   OH234278   6.389   1.002  14.146  0.4856 -0.2770 -0.2656
 4288TIP3    H134279   6.436   0.919  14.143  0.9666  0.0135 -1.6111
 4288TIP3    H234280   6.457   1.069  14.137  0.0625  0.2448  0.3604
 4289TIP3   OH234281   6.075   6.176  16.273  0.1425  0.1628  0.4043
 4289TIP3    H134282   6.092   6.264  16.307 -0.4927  0.5009 -0.1218
 4289TIP3    H234283   5.981   6.163  16.287 -0.4215  0.7824 -2.1831
 4290TIP3   OH234284   4.309   5.131   6.496 -0.4014  0.4186 -0.1524
 4290TIP3    H134285   4.214   5.130   6.483 -0.5731  1.2489  0.9068
 4290TIP3    H234286   4.326   5.212   6.544  0.7978  0.0706  0.0482
 4291TIP3   OH234287   2.155   5.090   3.074 -0.4401  0.0355  0.3742
 4291TIP3    H134288   2.185   5.075   2.984 -0.5230 -1.4313  0.5737
 4291TIP3    H234289   2.115   5.007   3.100  0.2106  0.2066  2.0112
 4292TIP3   OH234290   1.452   5.834  15.200  0.1130  0.5630 -0.2415
 4292TIP3    H134291   1.426   5.926  15.201 -1.4891  0.2397 -2.7995
 4292TIP3    H234292   1.377   5.788  15.238 -0.7851  0.1000 -2.3867
 4293TIP3   OH234293   3.256   6.181   0.827 -0.4307  0.1523  0.1177
 4293TIP3    H134294   3.240   6.238   0.752 -0.6872 -1.8721 -1.4302
 4293TIP3    H234295   3.307   6.108   0.792 -0.1144 -0.5949  2.0275
 4294TIP3   OH234296   1.971   6.429   4.617  0.0435 -0.0004  0.3782
 4294TIP3    H134297   2.045   6.424   4.677  0.5619 -0.3326 -0.2724
 4294TIP3    H234298   1.985   6.356   4.556 -0.1307  0.6949 -0.5114
 4295TIP3   OH234299   5.998   3.807  17.473  0.1995 -0.3441  0.2375
 4295TIP3    H134300   5.982   3.890  17.429  1.4490 -0.3860 -0.3198
 4295TIP3    H234301   5.923   3.796  17.532  0.0037  1.1481  0.2882
 4296TIP3   OH234302   0.300   6.142   3.613 -0.3887  0.2539 -0.4169
 4296TIP3    H134303   0.335   6.124   3.700 -0.2343 -0.0600 -0.5437
 4296TIP3    H234304   0.217   6.186   3.629  1.7685  4.7698 -0.0274
 4297TIP3   OH234305   0.322   2.136  15.366 -0.3720 -0.1191  0.0661
 4297TIP3    H134306   0.375   2.216  15.362  0.9746 -0.9580  0.3258
 4297TIP3    H234307   0.369   2.080  15.428 -1.9435 -0.6631  0.8235
 4298TIP3   OH234308   0.482   2.960  17.328  0.1534  0.0920  0.4156
 4298TIP3    H134309   0.528   2.978  17.246  1.4803 -3.4695  0.1922
 4298TIP3    H234310   0.392   2.941  17.302  0.2151  0.3794 -0.0204
 4299TIP3   OH234311   1.037   2.700  15.668 -0.1073 -0.1473  0.5002
 4299TIP3    H134312   1.094   2.658  15.604 -0.3495  1.5750 -0.9091
 4299TIP3    H234313   1.043   2.644  15.745  2.5400 -0.6775  0.0080
 4300TIP3   OH234314   5.630   6.010   6.241 -0.0401 -0.1350  0.4546
 4300TIP3    H134315   5.632   6.070   6.316  1.5728  0.6919 -0.1913
 4300TIP3    H234316   5.555   6.038   6.189 -1.8892 -1.4359  2.2561
 4301TIP3   OH234317   1.506   0.010   4.809 -0.0533  0.0934  0.1399
 4301TIP3    H134318   1.464   0.084   4.854  1.0132  1.0949 -0.4411
 4301TIP3    H234319   1.528   0.045   4.722  1.8527 -0.4002  0.3819
 4302TIP3   OH234320   3.461   4.606  11.513 -0.1491 -0.0012  0.0035
 4302TIP3    H134321   3.373   4.572  11.531 -1.5101  2.8345 -0.6660
 4302TIP3    H234322   3.473   4.594  11.419  0.4995 -0.9803  0.1974
 4303TIP3   OH234323   1.352   5.707   0.929 -0.2542 -0.4527 -0.4890
 4303TIP3    H134324   1.345   5.721   0.835  1.1498  1.7444 -0.3424
 4303TIP3    H234325   1.271   5.742   0.964 -0.9266 -1.5795 -0.8862
 4304TIP3   OH234326   5.887   3.614  12.211  0.1405  0.0852 -0.4482
 4304TIP3    H134327   5.953   3.545  12.221  0.0989  0.3050  2.1784
 4304TIP3    H234328   5.823   3.579  12.150  1.5926 -0.9975 -1.4040
 4305TIP3   OH234329   5.071   5.318  17.107  0.1399 -0.2691  0.4130
 4305TIP3    H134330   5.022   5.248  17.152  0.1963 -0.2299  0.5371
 4305TIP3    H234331   5.068   5.295  17.015  0.1798 -0.4486  0.4568
 4306TIP3   OH234332   1.659   0.369  13.087  0.1813  0.2738 -0.0204
 4306TIP3    H134333   1.673   0.359  12.993  0.2982  2.3072 -0.2668
 4306TIP3    H234334   1.565   0.389  13.095  0.6060  2.4918  0.0088
 4307TIP3   OH234335   1.370   0.010   2.758  0.4232  0.2597  0.1848
 4307TIP3    H134336   1.384  -0.077   2.721  1.7177 -0.3501  1.9679
 4307TIP3    H234337   1.310  -0.003   2.831 -0.8948  1.2021 -0.6847
 4308TIP3   OH234338   1.535   3.025  15.421 -0.8351 -0.8882  0.1416
 4308TIP3    H134339   1.523   3.119  15.411  1.1139 -0.5417  0.6073
 4308TIP3    H234340   1.630   3.012  15.419 -1.0353 -2.7986  0.4589
 4309TIP3   OH234341   6.193   3.905   5.853 -0.3635 -0.0407 -0.2490
 4309TIP3    H134342   6.104   3.923   5.885 -1.3147  1.7157 -3.3911
 4309TIP3    H234343   6.219   3.986   5.808  2.1073 -1.1215 -0.9347
 4310TIP3   OH234344   0.426   0.754  17.066  0.1034 -0.3459 -0.2864
 4310TIP3    H134345   0.364   0.692  17.029  0.8575 -1.4591  0.2702
 4310TIP3    H234346   0.478   0.703  17.128  1.1159  0.7119 -0.2185
 4311TIP3   OH234347   4.579   1.776   0.318 -0.6512  0.8572 -0.2957
 4311TIP3    H134348   4.530   1.698   0.345 -2.7305  1.4424 -2.1094
 4311TIP3    H234349   4.653   1.741   0.267  0.8541 -0.0258  2.3071
 4312TIP3   OH234350   3.756   2.950  11.542  0.2677 -0.0439  0.3731
 4312TIP3    H134351   3.837   2.906  11.518 -0.5488 -2.5056  1.8454
 4312TIP3    H234352   3.774   3.043  11.526  3.3524 -0.4989  0.6125
 4313TIP3   OH234353   1.580   1.012  14.868  0.3606 -0.4586  0.0906
 4313TIP3    H134354   1.645   1.037  14.934 -0.9320 -1.1778  1.7225
 4313TIP3    H234355   1.593   0.918  14.856  1.6551 -0.0666 -1.9657
 4314TIP3   OH234356   2.056   1.932   1.520 -0.2178 -0.0875 -0.4093
 4314TIP3    H134357   2.146   1.902   1.531 -0.1208  0.3502  0.0496
 4314TIP3    H234358   2.041   1.929   1.425  0.3899  0.1470 -0.5168
 4315TIP3   OH234359   0.899   3.978  11.707  0.0852 -0.2010 -0.2443
 4315TIP3    H134360   0.852   3.907  11.751  0.2834  0.5440  1.2386
 4315TIP3    H234361   0.896   4.050  11.769  1.9698  0.3229 -0.7209
 4316TIP3   OH234362   1.172   1.570  16.243  0.4712 -0.1749  0.3526
 4316TIP3    H134363   1.202   1.479  16.245  0.9948 -0.0175 -0.1662
 4316TIP3    H234364   1.246   1.618  16.206 -0.2037  0.3162 -0.3605
 4317TIP3   OH234365   6.142   2.632  16.450 -0.6123  0.1115  0.2359
 4317TIP3    H134366   6.223   2.587  16.473  0.1722 -0.1324 -2.6051
 4317TIP3    H234367   6.076   2.563  16.447 -0.7206  0.1396  1.5251
 4318TIP3   OH234368   3.945   1.237   2.412 -0.1522 -0.1221  0.5085
 4318TIP3    H134369   3.884   1.311   2.414  1.0961  1.0089  3.5928
 4318TIP3    H234370   4.011   1.262   2.347 -1.1445  0.2360 -0.3777
 4319TIP3   OH234371   2.512   0.141  14.546 -0.2849 -0.0217 -0.5225
 4319TIP3    H134372   2.578   0.072  14.537 -1.1120 -0.7184 -1.4260
 4319TIP3    H234373   2.468   0.121  14.629  0.4535  0.3042 -0.0378
 4320TIP3   OH234374   1.565   6.231   2.762 -0.1513  0.3167  0.3920
 4320TIP3    H134375   1.577   6.139   2.739  0.4361  0.1947  1.1605
 4320TIP3    H234376   1.617   6.278   2.696 -2.3767  0.2759 -1.5127
 4321TIP3   OH234377   2.923   4.497   0.036  0.4987 -0.2606  0.0129
 4321TIP3    H134378   2.995   4.500  -0.027  1.0120 -0.6348  0.5694
 4321TIP3    H234379   2.902   4.589   0.052 -1.5109 -0.1054 -2.7587
 4322TIP3   OH234380   5.894   4.681   4.256 -0.5920  0.1456  0.5139
 4322TIP3    H134381   5.963   4.737   4.292 -1.5909  0.7745  1.4792
 4322TIP3    H234382   5.871   4.722   4.173  1.2751 -0.9588 -0.6273
 4323TIP3   OH234383   1.373   1.034  16.580 -0.1221 -0.0617  0.4349
 4323TIP3    H134384   1.355   0.941  16.568  1.1373 -0.0922 -1.9604
 4323TIP3    H234385   1.381   1.046  16.674  0.9630 -2.6448  0.7410
 4324TIP3   OH234386   3.765   4.863  12.981 -0.0421  0.2629 -0.6211
 4324TIP3    H134387   3.822   4.899  13.050  2.1368  0.8765 -2.6048
 4324TIP3    H234388   3.772   4.768  12.993 -0.6358  0.3517  0.6634
 4325TIP3   OH234389   2.599   6.341   5.617 -0.0202 -0.1750  0.2502
 4325TIP3    H134390   2.519   6.300   5.585  0.5892  0.1953 -1.9424
 4325TIP3    H234391   2.588   6.345   5.712 -1.3867 -2.5988  0.2741
 4326TIP3   OH234392   3.729   0.728   1.645  0.4689 -0.5447  0.0578
 4326TIP3    H134393   3.814   0.719   1.601  0.9138  0.7937  0.6068
 4326TIP3    H234394   3.734   0.665   1.717  1.7027  0.6594  1.0936
 4327TIP3   OH234395   4.410   6.549  15.049  0.1502  0.3499  0.0621
 4327TIP3    H134396   4.396   6.532  14.956 -1.5670 -0.4177  0.4262
 4327TIP3    H234397   4.483   6.492  15.073  0.3610  0.2814 -0.7235
 4328TIP3   OH234398   3.801   3.249  13.106  0.1304  0.2163 -0.0426
 4328TIP3    H134399   3.783   3.175  13.163  0.3150 -0.2446 -0.5708
 4328TIP3    H234400   3.756   3.228  13.024  0.5389  0.4776 -0.3412
 4329TIP3   OH234401   5.513   2.991   3.399  0.2935 -0.4454  0.1160
 4329TIP3    H134402   5.579   3.041   3.446  0.2652  0.3258 -0.6477
 4329TIP3    H234403   5.457   3.057   3.359 -0.3281 -1.0923 -0.0956
 4330TIP3   OH234404   2.098   4.001   4.557 -0.2073  0.0389  0.2312
 4330TIP3    H134405   2.117   3.915   4.594  0.2783  0.1746  0.3020
 4330TIP3    H234406   2.012   4.024   4.592 -1.0370 -1.0712 -0.9493
 4331TIP3   OH234407   5.504   5.081   1.150 -0.0435  0.3475  0.3566
 4331TIP3    H134408   5.508   5.048   1.060 -0.7564  0.9311  0.1032
 4331TIP3    H234409   5.596   5.096   1.174  0.2631 -1.1650  0.2531
 4332TIP3   OH234410   2.788   2.126  16.982  0.3137  0.4479 -0.1555
 4332TIP3    H134411   2.813   2.060  16.917  1.2057 -1.0049  1.5727
 4332TIP3    H234412   2.713   2.088  17.027  1.8946 -0.2779  2.0321
 4333TIP3   OH234413   6.643   0.195   1.658 -0.2001 -0.0532 -0.0275
 4333TIP3    H134414   6.591   0.168   1.583  0.1067 -0.6490 -0.0301
 4333TIP3    H234415   6.676   0.282   1.635 -0.6984  0.0761 -0.2734
 4334TIP3   OH234416   4.113   4.192  10.996 -0.0049 -0.0496  0.3384
 4334TIP3    H134417   4.117   4.218  11.088 -2.8649 -2.7358  1.3877
 4334TIP3    H234418   4.067   4.108  10.996 -0.7034  0.1144 -3.6299
 4335TIP3   OH234419   3.140   5.961  14.729  0.2550 -0.3324 -0.6131
 4335TIP3    H134420   3.076   6.019  14.771  0.3442 -0.6479 -0.0297
 4335TIP3    H234421   3.115   5.960  14.636  0.1453  0.4962 -0.5990
 4336TIP3   OH234422   3.016   6.546   3.736  0.1138  0.5724  0.2110
 4336TIP3    H134423   2.946   6.598   3.773 -0.9318  0.1031 -1.0336
 4336TIP3    H234424   2.991   6.455   3.754  2.2761  0.3867  3.0258
 4337TIP3   OH234425   5.598   2.283  15.514 -0.4949  0.1759 -0.1185
 4337TIP3    H134426   5.654   2.279  15.436  0.4745  0.0303  0.5636
 4337TIP3    H234427   5.610   2.371  15.548  1.0182 -0.5013  1.2202
 4338TIP3   OH234428   0.183   5.109   4.134  0.2479  0.5437  0.4284
 4338TIP3    H134429   0.247   5.052   4.093  0.7839  0.4628  1.3468
 4338TIP3    H234430   0.208   5.110   4.227 -2.0601 -0.8457  1.1496
 4339TIP3   OH234431   4.507   2.440   4.851 -0.3708 -0.2274 -0.3985
 4339TIP3    H134432   4.538   2.386   4.779  0.5998 -0.2967  0.0624
 4339TIP3    H234433   4.564   2.418   4.924 -0.7079  0.5796  0.1194
 4340TIP3   OH234434   6.048   2.553   2.498 -0.0634  0.1162  0.4430
 4340TIP3    H134435   6.090   2.555   2.584  0.5876 -1.3941  0.1930
 4340TIP3    H234436   6.079   2.472   2.458 -1.3536  0.1681 -0.7285
 4341TIP3   OH234437   5.497   4.670   4.666  0.0999 -0.5869 -0.2231
 4341TIP3    H134438   5.482   4.578   4.689  0.7272 -0.8929 -0.9986
 4341TIP3    H234439   5.582   4.670   4.623 -0.4828  0.1496 -1.4126
 4342TIP3   OH234440   4.199   0.478   4.640  0.3551 -0.9366 -0.4505
 4342TIP3    H134441   4.194   0.573   4.625  1.9469 -0.5464  1.1657
 4342TIP3    H234442   4.118   0.457   4.686  1.0757  0.1691  1.4468
 4343TIP3   OH234443   3.554   6.216  10.903  0.6642  0.3752  0.5832
 4343TIP3    H134444   3.562   6.159  10.827 -1.3710  1.9546 -0.9205
 4343TIP3    H234445   3.608   6.292  10.882  2.0295 -0.1902  1.8444
 4344TIP3   OH234446   0.096   1.538   2.014 -0.6438 -0.2077  0.1734
 4344TIP3    H134447   0.126   1.455   1.977  1.7478  0.5916  0.1457
 4344TIP3    H234448   0.126   1.535   2.105  1.3820  1.4198 -0.3691
 4345TIP3   OH234449   5.669   6.725  15.355  0.0643 -0.2122  0.4454
 4345TIP3    H134450   5.749   6.672  15.356  0.8611  0.7524 -2.2340
 4345TIP3    H234451   5.683   6.791  15.424  0.7968 -1.0948  1.1637
 4346TIP3   OH234452   2.771   4.058   1.228  0.6004  0.2763 -0.5152
 4346TIP3    H134453   2.768   4.101   1.314  0.6439  1.2744 -1.0111
 4346TIP3    H234454   2.697   4.094   1.180  1.6748  1.1394 -1.5632
 4347TIP3   OH234455   6.185   1.706   3.021 -0.2165 -0.3555 -0.3766
 4347TIP3    H134456   6.244   1.634   3.002  0.5306 -0.4377  1.8811
 4347TIP3    H234457   6.166   1.745   2.936  1.7939 -1.3321 -1.3495
 4348TIP3   OH234458   1.149   5.784  15.879  0.0267  0.0068 -0.3754
 4348TIP3    H134459   1.166   5.872  15.911 -0.5505  0.9700 -2.5606
 4348TIP3    H234460   1.233   5.738  15.889  0.5345  1.0073  0.1215
 4349TIP3   OH234461   2.907   3.456  12.483 -0.2438  0.1129 -0.0689
 4349TIP3    H134462   2.884   3.547  12.463  1.7314  0.6085 -0.3082
 4349TIP3    H234463   2.826   3.418  12.518 -0.5828  2.5661  2.1623
 4350TIP3   OH234464   2.973   5.213   6.121 -0.1874 -0.0697  0.7072
 4350TIP3    H134465   3.037   5.211   6.191 -1.2099  0.0640  1.6785
 4350TIP3    H234466   2.976   5.126   6.082  0.2818 -0.1936  1.0165
 4351TIP3   OH234467   2.537   5.262   5.090  0.1077 -0.4773  0.1175
 4351TIP3    H134468   2.615   5.213   5.064  0.2973  0.5890 -1.5149
 4351TIP3    H234469   2.464   5.206   5.065  0.3243 -1.3506  1.3751
 4352TIP3   OH234470   2.952   4.223   6.901  0.3188  0.2674 -0.2970
 4352TIP3    H134471   2.932   4.316   6.892 -0.4759  0.0462 -0.9437
 4352TIP3    H234472   3.027   4.209   6.842 -0.4505  0.2282 -1.2839
 4353TIP3   OH234473   5.107   5.582   5.226  0.0388  0.2690 -0.6642
 4353TIP3    H134474   5.107   5.677   5.220  0.8419  0.4803  1.6174
 4353TIP3    H234475   5.037   5.554   5.168 -0.5223  2.2720 -1.0287
 4354TIP3   OH234476   3.371   5.176  15.439 -0.0405 -0.1983  0.1266
 4354TIP3    H134477   3.432   5.224  15.383  0.3054  1.2982  1.7239
 4354TIP3    H234478   3.423   5.151  15.515 -0.8879 -0.8339  0.5096
 4355TIP3   OH234479   2.197   5.614   2.691 -0.2867 -0.1377 -0.0367
 4355TIP3    H134480   2.176   5.521   2.696  1.2862 -0.4942  0.6121
 4355TIP3    H234481   2.193   5.635   2.597 -0.4648 -0.8965 -0.2038
 4356TIP3   OH234482   6.208   5.215   5.168  0.0786  0.0161 -0.0488
 4356TIP3    H134483   6.224   5.120   5.169  0.9301 -0.0883 -4.1242
 4356TIP3    H234484   6.285   5.251   5.124  0.3797  2.8799  2.5271
 4357TIP3   OH234485   5.187   5.480   5.992 -0.7515  0.5566  0.5288
 4357TIP3    H134486   5.254   5.490   5.925  0.0700  0.8334  1.3628
 4357TIP3    H234487   5.125   5.418   5.955  0.7482 -0.8840  0.2937
 4358TIP3   OH234488   1.965   0.858   3.328 -0.2304 -0.1261  0.4289
 4358TIP3    H134489   2.001   0.946   3.322  0.2709 -0.4136 -1.2054
 4358TIP3    H234490   1.958   0.841   3.422  1.4420  0.9314  0.7844
 4359TIP3   OH234491   1.547   5.317  16.932  0.0942  0.3535  0.5054
 4359TIP3    H134492   1.611   5.251  16.905 -1.9200 -1.4970 -0.0978
 4359TIP3    H234493   1.575   5.343  17.020  1.2846 -0.8928  0.5300
 4360TIP3   OH234494   3.911   3.506  16.074 -0.1304  0.2080 -0.0014
 4360TIP3    H134495   3.844   3.517  16.006  0.3449  0.5378 -0.4247
 4360TIP3    H234496   3.931   3.595  16.102  1.4520  0.2697 -1.1928
 4361TIP3   OH234497   2.677   3.871   2.025  0.2392  0.9314 -0.4842
 4361TIP3    H134498   2.720   3.865   2.111 -1.7392 -3.5160  0.4682
 4361TIP3    H234499   2.589   3.904   2.045 -0.1349  0.1448 -0.7691
 4362TIP3   OH234500   0.072   4.250  11.114 -0.3231 -0.0860  0.4257
 4362TIP3    H134501   0.049   4.266  11.022  0.8923 -1.6902 -0.1972
 4362TIP3    H234502   0.133   4.321  11.136 -1.2540  0.7825  0.2803
 4363TIP3   OH234503   3.532   3.008  12.129  0.3303 -0.4856  0.4122
 4363TIP3    H134504   3.488   3.084  12.166  2.2050  0.5229  0.7490
 4363TIP3    H234505   3.491   2.933  12.170 -1.2457  0.3640  0.4449
 4364TIP3   OH234506   4.069   4.505   2.475  0.4062  0.8196  0.0772
 4364TIP3    H134507   4.153   4.551   2.481  1.0806 -0.2849 -0.5758
 4364TIP3    H234508   4.092   4.412   2.475 -0.8132  0.4945 -0.2644
 4365TIP3   OH234509   2.067   2.457  16.970  0.0146 -0.5619 -0.4778
 4365TIP3    H134510   2.121   2.513  17.026 -0.3619  0.6040 -1.2396
 4365TIP3    H234511   2.057   2.507  16.889 -0.4107 -1.7080 -1.1572
 4366TIP3   OH234512   0.463   4.392   3.428  0.1123 -0.3646  0.6759
 4366TIP3    H134513   0.472   4.325   3.497  1.7758 -1.6164 -0.6611
 4366TIP3    H234514   0.459   4.342   3.347 -0.5052  1.1306 -0.2538
 4367TIP3   OH234515   5.180   5.240   1.679 -0.5562 -0.0083  0.2695
 4367TIP3    H134516   5.228   5.270   1.756 -1.7627 -0.8993  1.4240
 4367TIP3    H234517   5.247   5.227   1.612  0.6038  0.2414  1.3437
 4368TIP3   OH234518   3.377   3.297  14.187  0.0482 -0.4196 -0.2463
 4368TIP3    H134519   3.404   3.217  14.233 -0.6715 -0.7023 -0.3002
 4368TIP3    H234520   3.458   3.332  14.150  0.7157  0.0136  1.5117
 4369TIP3   OH234521   0.997   1.367   3.909 -0.4671  0.1480 -0.3752
 4369TIP3    H134522   1.019   1.276   3.889  0.6372  0.9570 -3.3768
 4369TIP3    H234523   0.902   1.371   3.900 -0.7071 -0.9286  1.1833
 4370TIP3   OH234524   2.029   5.050   3.444 -0.1992  0.2765  0.6200
 4370TIP3    H134525   2.049   5.035   3.536  1.8861 -0.6029  0.0805
 4370TIP3    H234526   1.954   5.109   3.445 -0.1174  0.4199  2.8685
 4371TIP3   OH234527   3.703   3.244  12.799 -0.2447 -0.1060  0.1817
 4371TIP3    H134528   3.705   3.177  12.731 -0.7203  1.0591 -1.0181
 4371TIP3    H234529   3.793   3.277  12.802 -0.0118 -0.7491  0.7674
 4372TIP3   OH234530   6.203   5.420  11.098  0.0434 -0.2091  0.6592
 4372TIP3    H134531   6.256   5.490  11.136  0.4142  0.6936 -1.3698
 4372TIP3    H234532   6.172   5.456  11.015 -1.1817 -1.8647  0.3409
 4373TIP3   OH234533   1.687   3.934   4.541 -0.1387  0.3347 -0.7500
 4373TIP3    H134534   1.733   3.883   4.474  1.8939  1.3964 -0.2429
 4373TIP3    H234535   1.715   4.024   4.525  0.2643  0.6367  1.3855
 4374TIP3   OH234536   4.229   6.542   5.154  1.2351 -0.3566 -0.0389
 4374TIP3    H134537   4.263   6.457   5.124 -1.1482 -0.6134 -2.3274
 4374TIP3    H234538   4.271   6.606   5.097  2.2905 -0.0281  1.0541
 4375TIP3   OH234539   4.312   6.634   1.475 -0.0075 -0.2224 -0.3343
 4375TIP3    H134540   4.392   6.654   1.426  0.4113  1.3376  0.9083
 4375TIP3    H234541   4.246   6.692   1.437 -0.0366 -0.0446 -0.0108
 4376TIP3   OH234542   3.889   1.865  12.774  0.3852  0.0889  0.4757
 4376TIP3    H134543   3.957   1.931  12.768  1.4043 -1.0669 -3.6328
 4376TIP3    H234544   3.932   1.791  12.818  0.9852  0.2892  0.2387
 4377TIP3   OH234545   2.392   5.945   6.461 -0.5820 -0.6623 -0.3028
 4377TIP3    H134546   2.393   5.880   6.531 -0.9089 -0.0020  0.3276
 4377TIP3    H234547   2.479   5.984   6.463 -0.2261 -1.3961 -0.9947
 4378TIP3   OH234548   6.436   6.130   2.992  0.6977  0.2979  0.4196
 4378TIP3    H134549   6.376   6.140   3.065  1.1027 -1.9988  1.1361
 4378TIP3    H234550   6.502   6.198   3.006 -0.4275  1.3167  0.9196
 4379TIP3   OH234551   1.959   3.234  13.992 -0.3531  0.7304 -0.2423
 4379TIP3    H134552   2.003   3.315  13.966  1.3002  0.1981  0.7055
 4379TIP3    H234553   1.989   3.169  13.929 -0.0122  0.4305  0.2191
 4380TIP3   OH234554   3.538   6.116   4.777  0.0384  0.0357  0.0211
 4380TIP3    H134555   3.482   6.096   4.702 -0.2591  0.0479  0.2383
 4380TIP3    H234556   3.623   6.140   4.739 -0.2016  0.3359 -0.3210
 4381TIP3   OH234557   1.618   1.208  12.397  0.3967  0.7391 -0.1502
 4381TIP3    H134558   1.689   1.272  12.393 -0.7262  1.9701 -1.8140
 4381TIP3    H234559   1.575   1.226  12.481  1.4355  0.6155  0.4326
 4382TIP3   OH234560   1.546   1.198   1.243 -0.6188  0.2976  0.0955
 4382TIP3    H134561   1.526   1.125   1.184 -2.1941  0.5080  0.3093
 4382TIP3    H234562   1.638   1.218   1.227 -0.8078 -0.1368 -1.7638
 4383TIP3   OH234563   1.212   2.995   5.691  0.3742 -0.0289  0.4980
 4383TIP3    H134564   1.286   2.939   5.713 -0.4993 -2.1160 -1.4554
 4383TIP3    H234565   1.192   2.974   5.600 -1.3189  2.0178  0.3110
 4384TIP3   OH234566   1.424   6.520   6.178 -0.5382 -0.6348 -0.4137
 4384TIP3    H134567   1.472   6.540   6.097 -0.8918 -0.4265 -0.5799
 4384TIP3    H234568   1.460   6.580   6.243 -1.4038  0.3783 -0.8438
 4385TIP3   OH234569   4.570   4.235   6.323  0.1163  0.3883 -0.2010
 4385TIP3    H134570   4.598   4.223   6.413  0.2312  0.5442 -0.2163
 4385TIP3    H234571   4.545   4.327   6.317  2.8624  1.1839 -1.0644
 4386TIP3   OH234572   0.286   5.699  15.405  0.0410  0.3633  0.1677
 4386TIP3    H134573   0.308   5.791  15.403 -0.8494  0.6258  1.4656
 4386TIP3    H234574   0.293   5.671  15.313 -1.8290  2.2616 -0.6494
 4387TIP3   OH234575   1.803   5.308  11.384  0.2696 -0.4365  0.5631
 4387TIP3    H134576   1.872   5.356  11.432  0.0994 -1.0988  1.5042
 4387TIP3    H234577   1.841   5.292  11.298  0.6420  0.6689  0.4956
 4388TIP3   OH234578   6.722   0.174  17.192  0.1149  0.3732 -0.2947
 4388TIP3    H134579   6.757   0.131  17.270 -0.8664 -1.5327 -0.8410
 4388TIP3    H234580   6.797   0.221  17.154  0.3103  2.6580  2.5403
 4389TIP3   OH234581   6.043   0.198   3.832  0.5125  0.0898 -0.1705
 4389TIP3    H134582   6.103   0.267   3.858 -0.5686  0.1008  2.6317
 4389TIP3    H234583   6.006   0.228   3.749  0.7956  2.4246  0.4725
 4390TIP3   OH234584   4.812   5.118   3.686 -0.2055 -0.1614  0.1301
 4390TIP3    H134585   4.855   5.033   3.680  0.4261  0.2011 -0.7777
 4390TIP3    H234586   4.814   5.153   3.597  1.1641  1.5709  0.7745
 4391TIP3   OH234587   0.083   1.427   3.764 -0.5579  0.0745  0.1446
 4391TIP3    H134588  -0.004   1.403   3.734 -0.7970  0.2125  0.7231
 4391TIP3    H234589   0.105   1.361   3.829 -0.1039 -0.1346 -0.2160
 4392TIP3   OH234590   2.292   2.147   5.088 -0.0695 -0.1727 -0.1301
 4392TIP3    H134591   2.223   2.082   5.069 -0.1500  0.3558 -1.8003
 4392TIP3    H234592   2.268   2.223   5.036  1.2654  0.3766  0.0242
 4393TIP3   OH234593   5.416   0.367  14.978  0.0293 -0.6285 -0.1302
 4393TIP3    H134594   5.510   0.385  14.972  0.2004 -0.8347  1.5011
 4393TIP3    H234595   5.410   0.287  15.031 -1.1112  0.4630  1.5131
 4394TIP3   OH234596   0.302   4.918   4.006  0.0392 -0.1931  0.0178
 4394TIP3    H134597   0.291   4.961   3.921 -2.1044  1.1399  0.9119
 4394TIP3    H234598   0.390   4.880   4.001  0.9721  1.9522 -1.8493
 4395TIP3   OH234599   4.408   4.966  12.642  0.5505 -0.5836 -0.6335
 4395TIP3    H134600   4.375   4.885  12.683 -0.1372 -0.5865 -1.1894
 4395TIP3    H234601   4.437   4.939  12.555  1.2776 -0.4196 -0.4509
 4396TIP3   OH234602   0.496   1.271   5.372 -0.3560 -0.1800 -0.1262
 4396TIP3    H134603   0.515   1.297   5.463 -2.3826 -1.4887  0.7509
 4396TIP3    H234604   0.557   1.200   5.354  0.9057  0.9158 -0.2622
 4397TIP3   OH234605   0.641   0.736   1.795 -0.5954 -0.1031  0.0169
 4397TIP3    H134606   0.629   0.642   1.807 -0.3267 -0.0970  0.3383
 4397TIP3    H234607   0.706   0.743   1.725 -1.9195 -0.1380 -1.2934
 4398TIP3   OH234608   0.078   0.678  15.239  0.1483  0.6282  0.4381
 4398TIP3    H134609   0.053   0.589  15.264 -0.0478  0.9241  1.3697
 4398TIP3    H234610   0.159   0.668  15.189 -1.2135 -0.2694 -1.7038
 4399TIP3   OH234611   6.678   4.770   5.785 -0.3116  0.0565  0.2936
 4399TIP3    H134612   6.707   4.701   5.726  0.5573 -0.8042  1.6748
 4399TIP3    H234613   6.629   4.831   5.729 -1.5704 -1.9304 -0.8656
 4400TIP3   OH234614   5.247   1.222   0.594  0.0878 -0.5904 -0.6615
 4400TIP3    H134615   5.188   1.193   0.524 -0.0369  0.5760 -1.0651
 4400TIP3    H234616   5.239   1.155   0.662 -2.4848  0.0130 -0.2722
 4401TIP3   OH234617   4.796   6.390   2.938  0.7254  0.0921 -0.1404
 4401TIP3    H134618   4.764   6.390   2.848  2.2893  3.2287 -0.8496
 4401TIP3    H234619   4.883   6.349   2.933 -0.1359 -1.9402  0.4749
 4402TIP3   OH234620   2.513   0.276   6.748 -0.0133 -0.3477  0.1926
 4402TIP3    H134621   2.606   0.270   6.768  0.4486  1.6217 -1.0323
 4402TIP3    H234622   2.483   0.185   6.743  1.9550 -1.0344  0.0775
 4403TIP3   OH234623   2.679   4.899   6.172  0.0712 -0.5394 -0.5194
 4403TIP3    H134624   2.704   4.816   6.212  4.0975  0.3463 -0.7369
 4403TIP3    H234625   2.695   4.965   6.240  0.3201  0.3631 -1.4162
 4404TIP3   OH234626   1.024   4.063   4.265 -0.5641  0.4444  0.7864
 4404TIP3    H134627   1.041   4.116   4.187 -2.9761  1.2692  0.7245
 4404TIP3    H234628   0.979   3.985   4.232 -2.1167  1.0575  1.3175
 4405TIP3   OH234629   0.650   6.717   0.256 -0.0948  0.0315  0.4401
 4405TIP3    H134630   0.569   6.766   0.263 -0.3251 -0.4535  1.4067
 4405TIP3    H234631   0.625   6.634   0.214 -0.1216 -0.1598  0.8311
 4406TIP3   OH234632   5.598   3.838  16.859  0.2582  0.0135  0.0254
 4406TIP3    H134633   5.655   3.899  16.906  0.5617 -0.0046 -0.3152
 4406TIP3    H234634   5.583   3.880  16.775  1.5602 -0.9775 -0.7383
 4407TIP3   OH234635   1.910   1.376  15.536 -0.4620  0.1484  0.3291
 4407TIP3    H134636   1.905   1.282  15.555  1.0309 -0.1218 -0.4580
 4407TIP3    H234637   1.980   1.408  15.592  1.5098  0.0437 -1.9220
 4408TIP3   OH234638   5.075   4.102  16.272 -1.3890  0.1276 -1.0707
 4408TIP3    H134639   5.152   4.101  16.215 -1.9569  0.3038 -1.8592
 4408TIP3    H234640   5.009   4.151  16.222 -2.0424 -0.1045 -0.4493
 4409TIP3   OH234641   2.133   1.998  17.345  0.7087 -0.3438  0.1422
 4409TIP3    H134642   2.152   1.905  17.354 -1.4552 -0.8040  0.3172
 4409TIP3    H234643   2.182   2.025  17.268  2.2786 -1.3261  0.7427
 4410TIP3   OH234644   0.830   6.198   3.532 -0.1239  0.8043  0.2322
 4410TIP3    H134645   0.893   6.131   3.506  0.2591  0.5093  1.7858
 4410TIP3    H234646   0.786   6.223   3.451  1.2818  0.2857 -0.7286
 4411TIP3   OH234647   4.294   3.200  13.427  0.1207 -0.8945  0.2771
 4411TIP3    H134648   4.224   3.154  13.381  0.9274 -1.1780 -0.6983
 4411TIP3    H234649   4.304   3.153  13.509  0.6957 -2.2818 -0.5565
 4412TIP3   OH234650   3.889   2.662  12.612  0.4586 -0.0847 -0.1789
 4412TIP3    H134651   3.845   2.697  12.690  1.5627  1.0384 -0.0196
 4412TIP3    H234652   3.874   2.729  12.545  1.8781  0.3373 -0.1161
 4413TIP3   OH234653   4.998   3.997  11.867  0.2198 -0.3603 -0.2110
 4413TIP3    H134654   4.997   3.987  11.962  1.0846 -1.4042 -0.2882
 4413TIP3    H234655   4.960   4.084  11.851  3.3014  1.4288  1.2922
 4414TIP3   OH234656   2.708   2.135  15.046  0.4977 -0.3465  0.5419
 4414TIP3    H134657   2.749   2.064  15.095  0.9953 -0.0367  0.5773
 4414TIP3    H234658   2.672   2.193  15.113  1.3510  0.1800  0.5549
 4415TIP3   OH234659   2.562   4.454   0.482 -0.2933 -0.6451  0.4414
 4415TIP3    H134660   2.607   4.474   0.400 -2.1335 -0.1808 -0.5071
 4415TIP3    H234661   2.543   4.361   0.477 -0.5240 -0.5890  0.2861
 4416TIP3   OH234662   0.073   0.983   2.718  0.9030 -0.0875 -0.1349
 4416TIP3    H134663   0.089   1.003   2.810 -0.6376 -2.0680  0.6481
 4416TIP3    H234664   0.147   0.929   2.691  1.3244  0.4461 -0.0656
 4417TIP3   OH234665   6.465   5.824   6.712  0.2373  1.0719  0.4417
 4417TIP3    H134666   6.477   5.849   6.620  1.1174  0.0567  0.2573
 4417TIP3    H234667   6.550   5.839   6.753  1.7048 -3.5767 -0.2258
 4418TIP3   OH234668   4.838   5.980  13.684  0.1006  0.0934  0.3548
 4418TIP3    H134669   4.869   6.066  13.655  2.2796 -0.0123  2.1151
 4418TIP3    H234670   4.856   5.922  13.609  0.1747  0.8575 -0.2290
 4419TIP3   OH234671   2.980   0.038  11.838 -0.1671 -0.5006 -0.2110
 4419TIP3    H134672   2.904   0.027  11.895 -0.5345  1.6938 -0.1816
 4419TIP3    H234673   3.037   0.100  11.884  1.7804 -2.2327 -0.1444
 4420TIP3   OH234674   0.187   2.427  12.760 -0.4944 -0.5510 -0.6178
 4420TIP3    H134675   0.229   2.478  12.829 -1.4883 -0.4565 -0.0661
 4420TIP3    H234676   0.249   2.429  12.687 -0.6149  1.6586 -0.7171
 4421TIP3   OH234677   1.602   0.423  17.193 -0.1072 -0.2821  0.1724
 4421TIP3    H134678   1.639   0.351  17.246  0.4944 -0.5235 -0.5558
 4421TIP3    H234679   1.592   0.385  17.106 -3.6294 -0.7397  0.6391
 4422TIP3   OH234680   4.944   3.236   3.785  0.2572  0.3821 -0.1958
 4422TIP3    H134681   5.005   3.284   3.842 -1.0633 -0.0302  1.6872
 4422TIP3    H234682   4.907   3.302   3.727  0.1929  1.2267  0.7832
 4423TIP3   OH234683   2.307   1.865   1.242  0.1711  0.2131  0.4816
 4423TIP3    H134684   2.345   1.928   1.303 -1.4921 -0.0986  1.9104
 4423TIP3    H234685   2.218   1.897   1.227 -0.3323 -1.1803  0.3512
 4424TIP3   OH234686   6.354   6.641   4.042 -1.1197  0.3477  0.1884
 4424TIP3    H134687   6.421   6.573   4.036  0.3857  1.7577  0.0900
 4424TIP3    H234688   6.396   6.719   4.006 -2.3730  1.6137  1.3280
 4425TIP3   OH234689   2.364   1.896   2.547 -0.1039 -0.1067 -0.5624
 4425TIP3    H134690   2.322   1.815   2.576  0.8843  0.0356  1.4746
 4425TIP3    H234691   2.314   1.966   2.590  0.5473  0.2023 -0.2896
 4426TIP3   OH234692   2.026   1.813  15.034  0.1677 -0.0335 -0.1465
 4426TIP3    H134693   1.949   1.757  15.040 -0.1725  0.5366  0.9271
 4426TIP3    H234694   2.083   1.768  14.972 -0.4959 -1.0868 -0.0136
 4427TIP3   OH234695   4.966   3.231  16.930  0.1531  0.0100  0.7803
 4427TIP3    H134696   5.032   3.205  16.866 -0.8800 -0.4801 -0.1138
 4427TIP3    H234697   4.929   3.148  16.961 -0.9672  0.3147  0.2743
 4428TIP3   OH234698   5.310   1.868  16.765 -0.3322 -0.4537 -0.5981
 4428TIP3    H134699   5.264   1.947  16.792  0.3486 -0.7771  1.7167
 4428TIP3    H234700   5.249   1.797  16.783  0.9004 -0.8840  2.4734
 4429TIP3   OH234701   1.220   1.242   0.530  0.2372 -0.4590  0.2635
 4429TIP3    H134702   1.216   1.165   0.587  0.9227  1.2785  2.8640
 4429TIP3    H234703   1.166   1.219   0.454 -1.1140 -2.7847  1.7896
 4430TIP3   OH234704   1.512   2.095  17.206  0.1593  0.1536 -1.0962
 4430TIP3    H134705   1.478   2.024  17.261 -0.5054  1.3503  0.1229
 4430TIP3    H234706   1.565   2.051  17.139 -0.3712 -1.4823 -0.4970
 4431TIP3   OH234707   4.692   4.103  16.020 -0.4451 -0.1996 -0.0341
 4431TIP3    H134708   4.767   4.140  15.975 -0.2437 -0.2684  0.2400
 4431TIP3    H234709   4.627   4.174  16.021  0.4815  0.7076  1.8218
 4432TIP3   OH234710   5.410   0.033  12.097  0.0214  0.1266 -0.1140
 4432TIP3    H134711   5.482  -0.026  12.117 -0.0210  0.4242  0.9879
 4432TIP3    H234712   5.365  -0.008  12.024  0.4217 -0.8299  0.1591
 4433TIP3   OH234713   0.539   0.673  12.292  0.2528 -0.3313 -0.1033
 4433TIP3    H134714   0.581   0.647  12.210  0.9789 -2.2740  0.8346
 4433TIP3    H234715   0.514   0.764  12.277  1.8720 -0.0998 -1.8879
 4434TIP3   OH234716   2.255   4.205   4.602 -0.2067  0.5457  0.2682
 4434TIP3    H134717   2.214   4.121   4.579  0.4311  0.1480  0.5694
 4434TIP3    H234718   2.188   4.270   4.581 -0.7757 -0.0494  0.1940
 4435TIP3   OH234719   0.928   4.520   2.189 -0.2086  0.1501  0.1867
 4435TIP3    H134720   0.849   4.567   2.162 -0.7661 -0.0706  1.3841
 4435TIP3    H234721   0.990   4.588   2.211 -0.1338  0.3240 -0.5305
 4436TIP3   OH234722   5.149   2.919   4.267  0.1001 -0.0483 -0.0111
 4436TIP3    H134723   5.129   2.878   4.183 -0.7160 -0.7175  0.4970
 4436TIP3    H234724   5.097   2.871   4.331  2.3695 -1.0075  1.2166
 4437TIP3   OH234725   2.675   6.199  16.396  0.2246  0.1125 -0.4038
 4437TIP3    H134726   2.611   6.164  16.334  0.0974 -1.4448  0.5680
 4437TIP3    H234727   2.625   6.260  16.450 -0.2099 -0.3367 -0.2950
 4438TIP3   OH234728   6.295   1.532  13.367  0.3016 -0.1672 -0.0063
 4438TIP3    H134729   6.313   1.483  13.287 -0.6241  2.4026 -1.9156
 4438TIP3    H234730   6.381   1.546  13.407  1.0319  0.1947 -1.6408
 4439TIP3   OH234731   1.418   2.052  13.190  0.3237  0.0813 -0.3234
 4439TIP3    H134732   1.451   2.042  13.100 -1.0169 -0.7345 -0.7504
 4439TIP3    H234733   1.481   2.111  13.232  0.9435  0.5293 -1.8165
 4440TIP3   OH234734   0.828   2.353   4.122  0.7799 -0.1739 -0.4776
 4440TIP3    H134735   0.753   2.368   4.064  1.0657  1.8858 -0.3751
 4440TIP3    H234736   0.899   2.405   4.084  1.7136 -0.8373  0.3079
 4441TIP3   OH234737   4.968   5.531   0.850  0.0747 -0.0763 -0.2474
 4441TIP3    H134738   5.031   5.566   0.787  1.1011  0.7127  1.1539
 4441TIP3    H234739   4.891   5.509   0.798  0.7443  0.9050 -1.7071
 4442TIP3   OH234740   1.953   3.993  17.158  0.1582  0.2218 -0.2788
 4442TIP3    H134741   1.937   4.034  17.243  1.2509  0.6676 -0.2749
 4442TIP3    H234742   2.006   4.057  17.111  0.5855 -0.5477 -0.8464
 4443TIP3   OH234743   2.185   4.849   2.758  0.4336  0.1504  0.2729
 4443TIP3    H134744   2.110   4.823   2.811 -0.5979 -0.0387 -1.2111
 4443TIP3    H234745   2.148   4.866   2.671  2.4348 -2.3328 -1.1889
 4444TIP3   OH234746   1.812   6.636  14.555  0.6654 -0.7055 -0.3775
 4444TIP3    H134747   1.738   6.621  14.615 -0.5014  1.4016 -1.1992
 4444TIP3    H234748   1.790   6.584  14.478  0.6893 -1.0722 -0.1445
 4445TIP3   OH234749   0.182   2.839  17.507 -0.3263 -0.1162 -0.1180
 4445TIP3    H134750   0.101   2.790  17.523  0.9221 -2.1311  0.4414
 4445TIP3    H234751   0.251   2.773  17.512  1.2109  1.1792 -2.5915
 4446TIP3   OH234752   4.584   0.881   0.977  0.1588  0.3291 -0.0615
 4446TIP3    H134753   4.625   0.892   1.063 -1.3774  0.8272  0.6481
 4446TIP3    H234754   4.526   0.806   0.988 -0.9182  1.1107 -0.2892
 4447TIP3   OH234755   2.445   1.783  14.628 -0.4535 -0.0558 -0.3992
 4447TIP3    H134756   2.475   1.692  14.623  0.3845  0.1303  0.6864
 4447TIP3    H234757   2.511   1.833  14.579 -0.0554  0.1265  0.3023
 4448TIP3   OH234758   0.518   0.151   2.846 -0.0007  0.6582 -0.4700
 4448TIP3    H134759   0.521   0.105   2.762  2.1212 -1.1310  0.4836
 4448TIP3    H234760   0.593   0.211   2.844 -1.0452  2.0148 -0.5484
 4449TIP3   OH234761   1.131   5.432   0.271 -0.0491 -0.4818  0.0220
 4449TIP3    H134762   1.139   5.434   0.366  1.6939  2.0951 -0.0933
 4449TIP3    H234763   1.199   5.371   0.242  0.5039 -0.0371  0.3699
 4450TIP3   OH234764   0.602   4.042  14.445  0.4850  0.4898 -0.3929
 4450TIP3    H134765   0.585   4.114  14.384 -0.6498  0.3473 -0.2765
 4450TIP3    H234766   0.694   4.051  14.469  0.5368  1.4752 -0.9237
 4451TIP3   OH234767   4.956   6.225   1.867  0.4093 -0.0501  0.2571
 4451TIP3    H134768   4.957   6.278   1.947 -0.9804  2.2139 -1.1351
 4451TIP3    H234769   5.013   6.272   1.807 -0.7552 -0.1717 -0.9832
 4452TIP3   OH234770   6.480   4.254   4.932 -0.3241 -0.1913 -0.4551
 4452TIP3    H134771   6.493   4.202   4.853  0.5202  0.3554 -0.6844
 4452TIP3    H234772   6.534   4.212   4.998 -0.7088 -0.4035 -0.2703
 4453TIP3   OH234773   0.247   3.407  13.372  0.3715 -0.3221 -0.5652
 4453TIP3    H134774   0.246   3.319  13.335  2.3919 -1.2052  1.2938
 4453TIP3    H234775   0.336   3.418  13.407  0.2099  2.4834 -0.7574
 4454TIP3   OH234776   2.042   4.768   1.128  0.0653 -0.5240  0.3391
 4454TIP3    H134777   2.115   4.814   1.170 -0.2352 -0.0894  0.3899
 4454TIP3    H234778   2.009   4.709   1.196  0.7542 -1.1809  0.1265
 4455TIP3   OH234779   1.720   2.829   5.802  0.5760  0.3431 -0.5751
 4455TIP3    H134780   1.713   2.803   5.710  0.9996 -0.3333 -0.4230
 4455TIP3    H234781   1.735   2.747   5.849 -1.2171  0.4722  0.2865
 4456TIP3   OH234782   6.246   1.537  14.320 -0.2646 -0.0556  0.0413
 4456TIP3    H134783   6.197   1.468  14.276 -0.7389 -0.4587  1.1736
 4456TIP3    H234784   6.241   1.515  14.413  0.2630  1.0684  0.3546
 4457TIP3   OH234785   5.434   0.029   1.644 -0.1522 -0.1685  0.0122
 4457TIP3    H134786   5.508  -0.025   1.673  0.2711  0.2582 -0.2654
 4457TIP3    H234787   5.405   0.072   1.724 -1.1273 -1.5337  0.4397
 4458TIP3   OH234788   1.215   2.007  17.509  0.1440  0.3357  0.1142
 4458TIP3    H134789   1.214   2.093  17.552  1.4254  0.7670 -0.6659
 4458TIP3    H234790   1.288   1.961  17.550  0.4507  0.2081 -0.5742
 4459TIP3   OH234791   1.545   5.883   2.212 -0.6700  0.2684  0.0782
 4459TIP3    H134792   1.618   5.897   2.152 -0.0907 -1.8260  0.2104
 4459TIP3    H234793   1.545   5.789   2.227 -2.7295  0.3702  0.9597
 4460TIP3   OH234794   2.554   5.388   1.783  0.5861 -0.2550  0.1878
 4460TIP3    H134795   2.471   5.381   1.830  0.8374  2.1418  1.0871
 4460TIP3    H234796   2.615   5.334   1.834  0.0544 -0.4332  0.6511
 4461TIP3   OH234797   0.383   1.840   2.723 -0.1670 -0.0676 -0.0732
 4461TIP3    H134798   0.476   1.854   2.704 -0.1143 -1.3200 -0.8923
 4461TIP3    H234799   0.337   1.904   2.669  0.2068  0.4479  0.2132
 4462TIP3   OH234800   0.113   2.140   4.095  0.3973 -0.4790  0.4363
 4462TIP3    H134801   0.097   2.047   4.079  1.0415 -0.7172  1.1139
 4462TIP3    H234802   0.100   2.151   4.189 -3.1214  0.8565 -0.0401
 4463TIP3   OH234803   2.398   3.960   2.333  0.1204  0.1793  0.5410
 4463TIP3    H134804   2.491   3.938   2.332 -0.1683 -1.7800 -3.4414
 4463TIP3    H234805   2.353   3.875   2.326 -1.8217  1.2080 -0.3721
 4464TIP3   OH234806   5.075   2.967   6.438  0.4372  0.3036  0.1856
 4464TIP3    H134807   5.157   2.939   6.477  0.2613  0.5471  0.7440
 4464TIP3    H234808   5.093   3.054   6.403  0.6420  0.0133 -0.4318
 4465TIP3   OH234809   3.385   5.191   1.686 -0.2626 -0.2665  0.6340
 4465TIP3    H134810   3.376   5.270   1.632 -2.3067  0.3647  1.7806
 4465TIP3    H234811   3.456   5.212   1.746  0.2495  0.0786 -0.0722
 4466TIP3   OH234812   4.789   5.747   2.797  0.0402  0.0199  0.7918
 4466TIP3    H134813   4.720   5.699   2.843  0.2338  0.6430  1.7643
 4466TIP3    H234814   4.825   5.806   2.863  0.4035  0.8689 -0.1410
 4467TIP3   OH234815   4.690   6.660   0.520 -0.2627  0.0525 -0.3501
 4467TIP3    H134816   4.621   6.646   0.585  0.5805 -0.7318  0.4064
 4467TIP3    H234817   4.663   6.608   0.445 -0.1710 -0.8124  0.2019
 4468TIP3   OH234818   3.593   0.182  13.430 -0.2346  0.0847 -0.3764
 4468TIP3    H134819   3.582   0.113  13.496  1.7693 -2.0108 -2.0445
 4468TIP3    H234820   3.645   0.249  13.475 -1.6305  0.2528  1.0833
 4469TIP3   OH234821   2.374   6.300  15.175 -0.0217  0.2681  0.1724
 4469TIP3    H134822   2.331   6.368  15.123 -0.0167  0.4387  0.3949
 4469TIP3    H234823   2.445   6.269  15.119 -0.4842 -0.0796 -0.2370
 4470TIP3   OH234824   1.709   3.759  13.315  0.1074 -0.1148  0.7802
 4470TIP3    H134825   1.615   3.743  13.303 -0.0469  2.1295 -1.9968
 4470TIP3    H234826   1.715   3.811  13.396 -1.1226  0.2172  0.6731
 4471TIP3   OH234827   5.468   4.938   5.549 -0.0378 -0.0536 -0.6960
 4471TIP3    H134828   5.415   4.861   5.570  1.3150 -1.2117 -1.3650
 4471TIP3    H234829   5.412   4.991   5.493 -0.5825 -1.1159 -1.1825
 4472TIP3   OH234830   1.395   5.918   6.010  0.0350  0.4786 -0.1411
 4472TIP3    H134831   1.326   5.959   6.061 -0.1972 -1.1462  0.9150
 4472TIP3    H234832   1.476   5.959   6.041 -0.3019  1.2322 -0.2325
 4473TIP3   OH234833   0.614   4.511  13.659  0.0429 -0.1648  0.5214
 4473TIP3    H134834   0.556   4.443  13.694 -0.3184  0.4722  1.1756
 4473TIP3    H234835   0.607   4.583  13.721  0.3406  0.5201 -0.2273
 4474TIP3   OH234836   6.515   2.010  13.714  0.0996  0.5425 -0.1273
 4474TIP3    H134837   6.513   2.002  13.619 -1.4338  2.1597 -0.2725
 4474TIP3    H234838   6.558   2.093  13.731 -1.4996  1.2892  0.4748
 4475TIP3   OH234839   5.398   4.717   6.180  0.0587  0.0560 -0.6328
 4475TIP3    H134840   5.362   4.712   6.269  1.9576 -1.3300  0.1417
 4475TIP3    H234841   5.467   4.783   6.187  1.0135 -0.9056 -0.7253
 4476TIP3   OH234842   2.020   6.630  13.118  0.2354  0.1980 -0.3079
 4476TIP3    H134843   2.055   6.614  13.031 -1.5086  1.5070 -1.3280
 4476TIP3    H234844   1.934   6.586  13.118  0.1284  0.3717  0.6867
 4477TIP3   OH234845   5.953   3.665  13.294 -0.1115  0.5775 -0.1661
 4477TIP3    H134846   5.879   3.620  13.254  1.1726 -2.3142  0.4319
 4477TIP3    H234847   6.017   3.672  13.223 -0.1017  0.9737 -0.1172
 4478TIP3   OH234848   3.768   0.222  16.872 -0.1514 -0.2655 -0.0928
 4478TIP3    H134849   3.700   0.197  16.810 -1.6205  1.8300  0.5649
 4478TIP3    H234850   3.761   0.159  16.943  0.7574 -1.9628 -1.4294
 4479TIP3   OH234851   0.622   1.730  11.401  0.1319 -0.2410  0.3057
 4479TIP3    H134852   0.645   1.721  11.494 -1.0257 -1.9529  0.4543
 4479TIP3    H234853   0.527   1.722  11.399 -0.1409  2.2528 -0.8044
 4480TIP3   OH234854   5.424   1.264   4.666 -0.0710 -0.6958  0.3653
 4480TIP3    H134855   5.372   1.229   4.739 -0.2990  2.5533  1.9546
 4480TIP3    H234856   5.496   1.311   4.709 -0.5611  1.8809 -1.4164
 4481TIP3   OH234857   2.666   2.465  13.701  0.0480  0.2368 -0.1334
 4481TIP3    H134858   2.643   2.435  13.789  1.3778  0.4744  0.3202
 4481TIP3    H234859   2.706   2.389  13.660  0.0827  0.3294 -0.2715
 4482TIP3   OH234860   6.496   0.545   4.753  0.3170  0.6509  0.1193
 4482TIP3    H134861   6.562   0.603   4.717 -2.3833  2.4316 -2.3612
 4482TIP3    H234862   6.529   0.457   4.736  1.7788  1.4760 -1.5476
 4483TIP3   OH234863   2.383   4.192  15.205  0.2478  0.0541  0.4390
 4483TIP3    H134864   2.387   4.184  15.300  0.9489  1.3019  0.5335
 4483TIP3    H234865   2.452   4.255  15.183 -0.4283  0.3936 -0.8194
 4484TIP3   OH234866   2.277   1.274   4.604 -0.3866  0.0035 -0.0262
 4484TIP3    H134867   2.290   1.368   4.593  0.0887 -0.1077 -0.5100
 4484TIP3    H234868   2.215   1.266   4.676  1.6732  0.6038  1.9000
 4485TIP3   OH234869   4.733   3.872   2.019  0.1941  0.1119  0.2352
 4485TIP3    H134870   4.658   3.859   2.077 -0.4744  2.3040 -0.0366
 4485TIP3    H234871   4.771   3.785   2.009 -0.6680 -0.6096  2.5843
 4486TIP3   OH234872   5.160   4.443  16.247  0.5882  0.0122  0.5025
 4486TIP3    H134873   5.086   4.500  16.226  0.5837 -0.7501 -1.8525
 4486TIP3    H234874   5.150   4.369  16.187  2.1295 -1.1135  1.5761
 4487TIP3   OH234875   1.725   1.999  17.038  0.0776  0.0135 -0.0579
 4487TIP3    H134876   1.788   2.047  16.985 -1.5094  1.8218 -0.4331
 4487TIP3    H234877   1.692   1.930  16.980 -1.1935  1.5921 -1.3026
 4488TIP3   OH234878   5.251   3.289  15.991  0.1546 -0.7990 -0.7111
 4488TIP3    H134879   5.243   3.377  15.953  1.7362 -1.0151 -1.6309
 4488TIP3    H234880   5.161   3.255  15.990 -0.5722  0.9824  0.1697
 4489TIP3   OH234881   1.577   3.287   3.099 -0.1325  0.3423 -0.0444
 4489TIP3    H134882   1.603   3.310   3.010 -1.9528  1.5964 -0.3023
 4489TIP3    H234883   1.650   3.234   3.133  2.2048  2.7175 -1.0319
 4490TIP3   OH234884   4.518   5.268   3.733 -0.3165 -0.7371 -0.4893
 4490TIP3    H134885   4.513   5.257   3.638 -1.2315 -0.6244 -0.4637
 4490TIP3    H234886   4.602   5.228   3.758  1.8161  2.4931 -1.7870
 4491TIP3   OH234887   6.286   4.000   2.783  0.3644 -0.2993  0.7385
 4491TIP3    H134888   6.257   3.921   2.738  1.8672  0.6106 -2.0459
 4491TIP3    H234889   6.362   4.030   2.733  0.1414  2.6607  1.9718
 4492TIP3   OH234890   1.565   2.228  14.453 -0.3251  0.2722 -0.0051
 4492TIP3    H134891   1.563   2.284  14.531  1.2821  1.2637 -0.6141
 4492TIP3    H234892   1.548   2.140  14.487 -1.0806  0.8558  1.2452
 4493TIP3   OH234893   3.945   5.402   1.973 -0.2925 -0.2112  0.1569
 4493TIP3    H134894   3.962   5.308   1.976  1.6037  0.0625 -0.3566
 4493TIP3    H234895   3.937   5.429   2.064 -0.0881 -0.7535  0.3365
 4494TIP3   OH234896   3.985   3.261  16.181  0.2343 -0.5709  0.3084
 4494TIP3    H134897   3.900   3.231  16.213  1.2815 -0.5257  3.4724
 4494TIP3    H234898   3.971   3.354  16.161 -0.4400 -0.5182  0.9726
 4495TIP3   OH234899   5.860   3.108   4.802  0.0323 -0.1897 -0.3765
 4495TIP3    H134900   5.816   3.029   4.770 -0.4220 -0.3715  0.6598
 4495TIP3    H234901   5.805   3.180   4.772 -1.1477 -0.4268  1.1024
 4496TIP3   OH234902   1.324   4.945   3.350 -0.1327 -0.4394 -0.4518
 4496TIP3    H134903   1.405   4.954   3.299 -0.7972  0.4533 -1.3968
 4496TIP3    H234904   1.279   4.870   3.311 -0.9696  0.6650 -1.7095
 4497TIP3   OH234905   1.694   4.677   1.265  0.3801 -0.0538  0.1970
 4497TIP3    H134906   1.657   4.608   1.209  0.2941  0.9413 -1.0240
 4497TIP3    H234907   1.675   4.649   1.354 -1.0663 -0.8191 -0.3263
 4498TIP3   OH234908   1.953   2.839  11.422 -0.2286  0.1858 -0.2113
 4498TIP3    H134909   1.879   2.791  11.459  0.5580 -0.0029  1.1860
 4498TIP3    H234910   1.967   2.911  11.483  1.0690 -0.0882 -0.1711
 4499TIP3   OH234911   0.192   2.476   4.976 -0.0970  0.2250  0.1566
 4499TIP3    H134912   0.193   2.393   4.928 -1.6265  1.0121 -1.3506
 4499TIP3    H234913   0.149   2.454   5.059 -1.7227 -0.2797 -0.7658
 4500TIP3   OH234914   5.230   0.458  15.269 -0.4325 -0.4135 -0.2302
 4500TIP3    H134915   5.294   0.397  15.233  0.3873 -0.1601  0.7457
 4500TIP3    H234916   5.151   0.443  15.217 -0.2639 -2.3010 -0.0269
 4501TIP3   OH234917   4.556   5.799  16.193  0.1203  0.1920  0.4657
 4501TIP3    H134918   4.607   5.874  16.224  0.8610 -0.1429  0.0825
 4501TIP3    H234919   4.578   5.728  16.254 -0.3290  0.1990  0.6366
 4502TIP3   OH234920   2.919   5.820  16.242 -0.0221 -0.1934  0.4184
 4502TIP3    H134921   2.998   5.798  16.291  0.5481  0.8981  0.0334
 4502TIP3    H234922   2.861   5.745  16.254  1.4045 -1.4254 -0.0279
 4503TIP3   OH234923   2.740   4.841  17.238 -0.5773 -0.1611  0.4730
 4503TIP3    H134924   2.694   4.762  17.267 -0.9872  0.0652  0.4376
 4503TIP3    H234925   2.748   4.895  17.316  1.3473 -1.0183  0.9373
 4504TIP3   OH234926   2.565   3.797   4.928 -0.1079  0.1773 -0.4673
 4504TIP3    H134927   2.533   3.838   5.009 -0.5278 -1.7889  0.4126
 4504TIP3    H234928   2.509   3.833   4.859 -0.7556  0.7261  0.3236
 4505TIP3   OH234929   4.497   0.114  14.882  0.1972 -0.3815 -0.2623
 4505TIP3    H134930   4.540   0.115  14.968  0.5789 -1.7484 -0.4195
 4505TIP3    H234931   4.567   0.095  14.820  0.2365  2.1825 -1.1145
 4506TIP3   OH234932   6.183   5.584   6.257 -0.4231  0.1504  0.0820
 4506TIP3    H134933   6.212   5.669   6.223 -0.1888  0.3338  0.7248
 4506TIP3    H234934   6.087   5.592   6.262 -0.3082  0.9047  1.4754
 4507TIP3   OH234935   6.508   3.928  15.814  0.3350  0.7387  0.2696
 4507TIP3    H134936   6.574   3.927  15.744 -1.3907 -1.1140 -1.4773
 4507TIP3    H234937   6.526   3.848  15.865  0.7022  1.3368  1.0975
 4508TIP3   OH234938   0.419   6.511   1.253  0.4742  0.0749  0.2690
 4508TIP3    H134939   0.363   6.441   1.218  1.0961  1.1581 -3.3061
 4508TIP3    H234940   0.360   6.586   1.264  0.8499  0.7734 -2.0529
 4509TIP3   OH234941   1.797   1.250  10.606  0.1639  0.5712 -0.5611
 4509TIP3    H134942   1.862   1.313  10.639  0.3789 -0.8683  2.0366
 4509TIP3    H234943   1.839   1.165  10.614 -2.3330 -0.5785  2.4986
 4510TIP3   OH234944   2.409   1.348  13.518 -0.0470 -0.1566  0.7621
 4510TIP3    H134945   2.329   1.308  13.484 -0.2001 -0.1813  1.1475
 4510TIP3    H234946   2.427   1.299  13.598 -0.2155  0.5291  1.2213
 4511TIP3   OH234947   2.618   1.184   2.856 -0.6105  0.5093  0.0332
 4511TIP3    H134948   2.604   1.279   2.862  0.1408  0.6321 -0.0405
 4511TIP3    H234949   2.596   1.162   2.766 -1.5362  0.4784  0.2584
 4512TIP3   OH234950   3.544   6.633   0.904  0.6553 -0.8184  0.3044
 4512TIP3    H134951   3.503   6.641   0.990  0.8262 -0.1660  0.3289
 4512TIP3    H234952   3.484   6.578   0.853 -0.8708  1.0919 -0.0541
 4513TIP3   OH234953   3.280   2.667  16.792 -0.4451 -0.4556 -0.4485
 4513TIP3    H134954   3.320   2.675  16.879  0.0766 -1.5470 -0.5856
 4513TIP3    H234955   3.339   2.611  16.743 -0.4657  0.5602 -1.6959
 4514TIP3   OH234956   5.852   3.504  14.685  0.2541 -0.2359 -0.4321
 4514TIP3    H134957   5.870   3.508  14.591  0.7628  0.9581 -0.3049
 4514TIP3    H234958   5.923   3.451  14.721 -1.0967 -2.5415 -0.9496
 4515TIP3   OH234959   3.013   4.499  15.282 -0.0095 -0.5057 -0.4596
 4515TIP3    H134960   3.088   4.559  15.275  0.2494 -0.7673 -0.0100
 4515TIP3    H234961   3.052   4.412  15.279 -0.4640 -0.6812 -1.9838
 4516TIP3   OH234962   3.523   6.623  11.716  0.0038  0.6596 -0.4720
 4516TIP3    H134963   3.588   6.632  11.646  0.9956  0.9242  0.4541
 4516TIP3    H234964   3.568   6.654  11.795 -0.7044 -0.6547  0.4975
 4517TIP3   OH234965   1.424   1.047  15.138  0.6876  0.0400 -0.3557
 4517TIP3    H134966   1.499   1.091  15.098  2.5288 -2.9333 -0.4490
 4517TIP3    H234967   1.429   1.070  15.230  1.5383  0.1348 -0.4167
 4518TIP3   OH234968   2.803   5.700   2.157  0.7279  0.0192 -0.1421
 4518TIP3    H134969   2.819   5.651   2.076 -0.2977  0.6681 -0.7604
 4518TIP3    H234970   2.808   5.634   2.226 -0.5867 -0.9718 -0.9485
 4519TIP3   OH234971   0.681   1.019  15.013  0.2455  0.2700 -0.3564
 4519TIP3    H134972   0.737   0.978  15.079  0.6464  1.2013 -0.1125
 4519TIP3    H234973   0.605   1.050  15.062 -0.3320 -0.6806 -0.6332
 4520TIP3   OH234974   3.713   5.462  12.805  0.1907  0.3491 -0.4367
 4520TIP3    H134975   3.720   5.428  12.716  0.6292  0.4792 -0.4551
 4520TIP3    H234976   3.756   5.396  12.859  2.7372  1.6600 -0.6735
 4521TIP3   OH234977   2.232   4.331   5.508  0.2005 -0.1151 -0.1222
 4521TIP3    H134978   2.180   4.411   5.508 -1.3974 -1.0993 -1.5376
 4521TIP3    H234979   2.223   4.296   5.597  0.1698  0.7945  0.2379
 4522TIP3   OH234980   2.502   4.629   0.727  0.5094 -0.2073 -0.1998
 4522TIP3    H134981   2.521   4.601   0.637  1.4495  1.3260 -0.5214
 4522TIP3    H234982   2.425   4.577   0.753  0.2685 -0.7373 -1.8581
 4523TIP3   OH234983   6.485   6.363   4.101 -0.4296  0.3478 -0.6042
 4523TIP3    H134984   6.553   6.321   4.154  0.1526  1.9438 -0.0005
 4523TIP3    H234985   6.413   6.301   4.100  0.4410 -0.7179  0.0930
 4524TIP3   OH234986   1.495   4.175  17.082  0.3144 -0.5469  0.0135
 4524TIP3    H134987   1.502   4.103  17.020 -1.3686 -0.1377 -0.7134
 4524TIP3    H234988   1.586   4.204  17.096  1.2899 -4.0059  1.8943
 4525TIP3   OH234989   3.348   4.864   1.830  0.3809 -0.7864 -0.0040
 4525TIP3    H134990   3.422   4.905   1.875  0.6710  0.1402 -1.2786
 4525TIP3    H234991   3.361   4.885   1.738 -1.5844 -0.4169 -0.2444
 4526TIP3   OH234992   0.791   6.504   4.643  0.0047  0.1087 -0.7950
 4526TIP3    H134993   0.734   6.570   4.682 -2.3939 -2.6899  0.9521
 4526TIP3    H234994   0.830   6.459   4.718  0.6919 -1.1187 -1.8590
 4527TIP3   OH234995   6.052   2.036  17.447  0.3724  0.5245  0.3010
 4527TIP3    H134996   6.052   2.125  17.411 -0.0054  0.9575  1.3323
 4527TIP3    H234997   5.962   2.022  17.478 -0.5406 -1.5000 -2.8351
 4528TIP3   OH234998   3.665   0.479  10.651 -0.1832  0.3036  0.5000
 4528TIP3    H134999   3.677   0.485  10.556 -0.0115 -1.0922  0.4004
 4528TIP3    H235000   3.733   0.536  10.687 -0.4636  1.1041 -0.2163
 4529TIP3   OH235001   6.359   6.466  17.191 -0.7921  0.5177  0.2395
 4529TIP3    H135002   6.347   6.493  17.100 -3.2460  1.5377  0.7986
 4529TIP3    H235003   6.449   6.492  17.211 -0.0998  0.0495 -1.9191
 4530TIP3   OH235004   6.546   1.211  13.912  0.2093  0.7446  0.3181
 4530TIP3    H135005   6.539   1.216  14.007 -0.1076 -0.6157  0.3926
 4530TIP3    H235006   6.635   1.239  13.892  0.4267  0.5923  1.0623
 4531TIP3   OH235007   2.935   6.524  10.559 -0.0721 -0.6210 -0.1152
 4531TIP3    H135008   3.016   6.571  10.545 -0.4150 -0.4204 -1.5961
 4531TIP3    H235009   2.879   6.584  10.609 -0.0709  0.0718 -0.9405
 4532TIP3   OH235010   2.843   3.465   1.853 -0.2049  0.7805 -0.3359
 4532TIP3    H135011   2.937   3.462   1.837 -0.3715 -1.3433 -1.1899
 4532TIP3    H235012   2.809   3.524   1.786  0.6151  2.7412  0.8720
 4533TIP3   OH235013   2.843   5.793  12.287  0.5899  0.1996  0.4300
 4533TIP3    H135014   2.766   5.832  12.245  1.7993  0.0054 -2.2293
 4533TIP3    H235015   2.899   5.868  12.308  1.5084  0.2112 -1.7256
 4534TIP3   OH235016   4.160   4.649  16.811  0.0241 -0.6593  0.3753
 4534TIP3    H135017   4.105   4.607  16.746 -0.6643 -0.7149  0.9799
 4534TIP3    H235018   4.243   4.601  16.807  0.8130  0.7474 -1.9797
 4535TIP3   OH235019   3.558   2.311  16.899  0.0532  0.2404  0.0552
 4535TIP3    H135020   3.488   2.267  16.948  0.1295  1.1965  1.0708
 4535TIP3    H235021   3.577   2.252  16.826 -0.1383 -1.1905  1.1101
 4536TIP3   OH235022   6.564   3.381   2.081 -0.4269 -0.0981 -0.0837
 4536TIP3    H135023   6.598   3.295   2.056 -0.5478 -0.7875  1.9299
 4536TIP3    H235024   6.477   3.363   2.117  0.0831  0.6323  1.6342
 4537TIP3   OH235025   2.588   5.405  12.378  0.2983 -0.3780  0.2755
 4537TIP3    H135026   2.539   5.380  12.299 -0.1055  0.6395  0.1933
 4537TIP3    H235027   2.520   5.419  12.444  0.5957 -0.6159  0.6355
 4538TIP3   OH235028   4.300   2.847   2.182 -0.2979  0.4869  0.2875
 4538TIP3    H135029   4.216   2.833   2.137 -1.4143  0.1851  2.3270
 4538TIP3    H235030   4.278   2.839   2.275  1.9573  0.7530  0.8866
 4539TIP3   OH235031   0.654   6.079   4.457  0.1156 -0.0422 -0.5989
 4539TIP3    H135032   0.642   6.079   4.362  0.7609 -0.0430 -0.6880
 4539TIP3    H235033   0.749   6.078   4.469  0.0438  0.1745  0.0476
 4540TIP3   OH235034   0.041   4.894   2.640  0.3470 -0.4166 -0.0713
 4540TIP3    H135035   0.013   4.809   2.671 -0.6149  0.7304  2.4647
 4540TIP3    H235036  -0.001   4.957   2.699  1.4608  1.8050 -1.4783
 4541TIP3   OH235037   6.240   0.622   6.097 -0.0161  0.5810  0.8311
 4541TIP3    H135038   6.276   0.575   6.022 -1.0375 -0.8938  1.2112
 4541TIP3    H235039   6.310   0.681   6.124  0.5119  0.8731 -1.0190
 4542TIP3   OH235040   2.336   4.868   5.027  0.5799  0.1701  0.3902
 4542TIP3    H135041   2.377   4.928   4.964 -0.1636  0.3986  0.1020
 4542TIP3    H235042   2.356   4.781   4.993 -0.5420  0.2941 -0.6800
 4543TIP3   OH235043   1.905   1.254  12.647  0.0139 -0.6525  0.1454
 4543TIP3    H135044   1.863   1.282  12.566 -0.9932 -0.0929  0.8378
 4543TIP3    H235045   1.867   1.168  12.666  0.0920 -0.6902  0.1312
 4544TIP3   OH235046   3.519   6.412   4.598 -0.0449 -0.7742  0.2666
 4544TIP3    H135047   3.545   6.472   4.527 -0.3725  0.4018  1.1029
 4544TIP3    H235048   3.573   6.334   4.585  1.0681  0.0657 -0.3247
 4545TIP3   OH235049   0.531   1.232  11.797 -0.0166  0.0405 -0.5929
 4545TIP3    H135050   0.530   1.320  11.759  1.2637  0.3483  0.0277
 4545TIP3    H235051   0.616   1.196  11.772  0.0521 -0.4782  0.3453
 4546TIP3   OH235052   4.838   5.449   3.909  0.0140  0.3019 -0.5946
 4546TIP3    H135053   4.893   5.448   3.831 -1.0399 -0.6722 -1.3649
 4546TIP3    H235054   4.831   5.542   3.933  1.3701  0.5015 -0.8953
 4547TIP3   OH235055   0.966   1.880  13.466  0.2248  0.1932  0.4062
 4547TIP3    H135056   1.008   1.800  13.435 -2.0184 -0.6962 -0.5235
 4547TIP3    H235057   0.964   1.938  13.390  0.2876  0.4598  0.6063
 4548TIP3   OH235058   5.161   3.918  14.363 -0.5650  0.1260  0.1928
 4548TIP3    H135059   5.199   4.004  14.382 -1.8092  0.6516  0.4401
 4548TIP3    H235060   5.137   3.923  14.270  0.4565 -0.4083 -0.1101
 4549TIP3   OH235061   3.324   5.831   6.587  0.6582 -0.3457 -0.4798
 4549TIP3    H135062   3.396   5.790   6.539  2.6314 -0.1916  2.1478
 4549TIP3    H235063   3.362   5.910   6.624 -0.7213 -0.4834  1.3441
 4550TIP3   OH235064   1.687   3.219   1.552 -0.0793  0.1248 -0.5064
 4550TIP3    H135065   1.723   3.133   1.528 -0.3997 -0.0231 -0.4623
 4550TIP3    H235066   1.667   3.211   1.645 -1.3394 -0.2008 -0.7830
 4551TIP3   OH235067   3.076   6.730   2.920  0.0503 -0.2973 -0.4268
 4551TIP3    H135068   3.047   6.653   2.871  1.0568  0.6274 -2.6042
 4551TIP3    H235069   3.165   6.708   2.949 -0.2325 -0.5153  0.3078
 4552TIP3   OH235070   0.204   1.287  11.750  0.2114 -0.2020  0.1000
 4552TIP3    H135071   0.131   1.325  11.799  0.4303  0.6852 -0.2254
 4552TIP3    H235072   0.235   1.216  11.804 -0.6664 -0.3598  0.4132
 4553TIP3   OH235073   0.003   2.845   6.915 -0.1247 -0.6628 -0.2370
 4553TIP3    H135074   0.059   2.900   6.969 -0.5387  0.4311 -0.8898
 4553TIP3    H235075  -0.085   2.875   6.933 -0.5805 -2.5145  0.9452
 4554TIP3   OH235076   4.443   1.809   5.047  0.4089  0.1460 -0.3097
 4554TIP3    H135077   4.468   1.809   5.140 -0.0997 -0.4667 -0.1640
 4554TIP3    H235078   4.374   1.743   5.041  1.9444 -1.4422 -1.5398
 4555TIP3   OH235079   3.361   3.948   6.194 -0.1333 -0.0939 -0.1977
 4555TIP3    H135080   3.421   3.926   6.264 -0.8391  0.0681  0.4732
 4555TIP3    H235081   3.304   3.871   6.185  0.7111 -0.5957 -1.4220
 4556TIP3   OH235082   3.324   0.793  17.036 -0.0234  0.4726 -0.4079
 4556TIP3    H135083   3.310   0.888  17.036 -0.1386  0.4615 -0.9211
 4556TIP3    H235084   3.401   0.780  16.981 -0.7840  0.1771 -1.4529
 4557TIP3   OH235085   5.865   1.022   3.302  0.2799 -0.0991 -0.3205
 4557TIP3    H135086   5.910   1.072   3.371  0.9866 -0.5395 -0.4548
 4557TIP3    H235087   5.915   1.039   3.223 -0.5972  0.4957 -0.7734
 4558TIP3   OH235088   6.310   1.111   0.781  0.1003 -0.6582  0.2962
 4558TIP3    H135089   6.335   1.160   0.703  0.5846 -1.2523  0.0683
 4558TIP3    H235090   6.365   1.147   0.851 -1.2131  0.7429  0.6633
 4559TIP3   OH235091   2.602   1.032   3.798 -0.3150 -0.4225 -0.6799
 4559TIP3    H135092   2.565   1.120   3.793 -1.9179 -1.1155 -2.0394
 4559TIP3    H235093   2.571   0.998   3.882 -1.5174 -0.4378 -1.1163
 4560TIP3   OH235094   0.471   4.879   0.270  0.7669 -0.5254 -0.0399
 4560TIP3    H135095   0.403   4.813   0.288 -0.4406  1.3878  3.2567
 4560TIP3    H235096   0.511   4.896   0.355  0.3685  3.5870 -0.5070
 4561TIP3   OH235097   1.014   0.805   0.995 -0.3665  0.2903  0.2545
 4561TIP3    H135098   0.961   0.840   1.067 -2.0483 -0.6118 -0.4961
 4561TIP3    H235099   0.980   0.849   0.917  0.1950 -0.0894 -0.2089
 4562TIP3   OH235100   4.888   3.118   3.082 -0.0541  0.7262  0.2702
 4562TIP3    H135101   4.885   3.035   3.129  0.8859  0.2464 -0.4625
 4562TIP3    H235102   4.979   3.147   3.092  0.1404  0.6641 -1.1270
 4563TIP3   OH235103   0.983   1.414   0.685 -0.2731 -0.1544 -0.5426
 4563TIP3    H135104   0.891   1.388   0.691 -0.4863  0.6249 -0.3135
 4563TIP3    H235105   1.032   1.334   0.706 -0.9067 -0.3200  0.3441
 4564TIP3   OH235106   2.578   6.356   2.506 -0.1787 -0.2238  0.1082
 4564TIP3    H135107   2.632   6.278   2.520  0.8017  0.4914  0.4260
 4564TIP3    H235108   2.593   6.379   2.415 -0.6954 -0.5560 -0.0687
 4565TIP3   OH235109   2.816   0.234  14.235  0.0619  0.6706  0.2551
 4565TIP3    H135110   2.868   0.243  14.315  1.3874 -0.0189 -0.4933
 4565TIP3    H235111   2.749   0.170  14.258  0.8310 -0.0294  0.6553
 4566TIP3   OH235112   5.335   5.712  13.781 -0.1141  0.0488  0.3651
 4566TIP3    H135113   5.391   5.643  13.746 -1.1584 -1.3405  1.3137
 4566TIP3    H235114   5.370   5.729  13.868  0.6095  1.3105 -0.1440
 4567TIP3   OH235115   5.389   2.893  12.420  0.1725  0.1815  0.1784
 4567TIP3    H135116   5.397   2.798  12.419 -0.4920  0.1028 -1.7715
 4567TIP3    H235117   5.407   2.917  12.511  1.9538 -1.6387  0.3938
 4568TIP3   OH235118   0.587   2.717  14.138  0.3627 -0.4866 -0.2214
 4568TIP3    H135119   0.667   2.697  14.186 -1.0131 -1.0314  2.0320
 4568TIP3    H235120   0.559   2.802  14.174 -1.5867 -1.6937  1.3517
 4569TIP3   OH235121   5.711   3.240   0.963 -0.0744 -0.2761 -0.1281
 4569TIP3    H135122   5.656   3.172   0.925 -2.3494  0.3071  1.9051
 4569TIP3    H235123   5.747   3.287   0.887 -0.2912 -2.2784 -1.5262
 4570TIP3   OH235124   1.667   2.484  17.217  0.0742  0.3099 -0.5644
 4570TIP3    H135125   1.595   2.428  17.189  1.5675 -2.1040  0.1178
 4570TIP3    H235126   1.713   2.507  17.136  0.3108 -0.7272 -0.7333
 4571TIP3   OH235127   0.517   1.537   2.435  0.5065 -0.2177 -0.4036
 4571TIP3    H135128   0.519   1.594   2.358 -0.1235 -0.1340 -0.3570
 4571TIP3    H235129   0.448   1.474   2.417  1.6789 -1.4381 -0.7751
 4572TIP3   OH235130   6.266   4.314   3.685  0.3000  0.0106  0.1535
 4572TIP3    H135131   6.338   4.260   3.652 -0.4076 -0.1717 -1.1283
 4572TIP3    H235132   6.187   4.277   3.646 -0.2055  2.0291 -0.9162
 4573TIP3   OH235133   5.075   3.330  16.632  0.0793  0.2442 -0.1390
 4573TIP3    H135134   4.980   3.324  16.633  0.0096  1.2563  0.7335
 4573TIP3    H235135   5.105   3.241  16.652 -0.6704 -0.0928 -0.4783
 4574TIP3   OH235136   1.680   1.044   2.279 -0.0868  0.0540  0.0026
 4574TIP3    H135137   1.717   0.978   2.219  2.6068  1.9352 -0.6072
 4574TIP3    H235138   1.607   1.083   2.230 -2.8093 -3.3283  0.9742
 4575TIP3   OH235139   5.896   4.261  15.695 -0.3999  0.1744  0.0549
 4575TIP3    H135140   5.867   4.172  15.718  0.9999 -0.2454  0.3256
 4575TIP3    H235141   5.959   4.284  15.763  0.2942  0.8131 -0.7728
 4576TIP3   OH235142   5.230   3.538  13.543  0.3622  0.5179 -0.7749
 4576TIP3    H135143   5.250   3.466  13.602 -0.3368 -0.0337 -1.2022
 4576TIP3    H235144   5.303   3.540  13.482  0.2081 -0.0635 -0.9821
 4577TIP3   OH235145   6.515   6.024  15.959 -0.0754 -0.1825  0.1721
 4577TIP3    H135146   6.519   6.092  15.892  0.2243 -1.6580 -1.3728
 4577TIP3    H235147   6.599   6.030  16.005  1.2255 -1.3294 -1.8914
 4578TIP3   OH235148   4.752   3.797   3.520 -0.5322  0.0246 -0.4524
 4578TIP3    H135149   4.721   3.887   3.532 -1.9875 -0.5819  0.7049
 4578TIP3    H235150   4.794   3.774   3.603  2.3024  0.4720 -1.6354
 4579TIP3   OH235151   6.051   1.681  17.112  0.3119  0.5483  0.1706
 4579TIP3    H135152   5.957   1.689  17.100  0.1839 -0.1744  0.6359
 4579TIP3    H235153   6.063   1.683  17.207  0.7072  0.0114  0.1346
 4580TIP3   OH235154   3.803   2.921   6.010  0.3224  0.6284 -0.2697
 4580TIP3    H135155   3.813   3.014   5.987 -1.2882  0.7940 -0.4567
 4580TIP3    H235156   3.890   2.884   5.998  0.3344  1.3536 -3.8191
 4581TIP3   OH235157   6.629   6.637  17.450 -0.5932 -0.5358  0.3737
 4581TIP3    H135158   6.679   6.659  17.529 -0.4600  0.3555  0.0544
 4581TIP3    H235159   6.637   6.542  17.442  1.3731 -0.3860  0.1175
 4582TIP3   OH235160   6.405   5.255   2.070  0.1567  0.1574  0.8103
 4582TIP3    H135161   6.397   5.348   2.051  0.9053  0.2187  0.7478
 4582TIP3    H235162   6.320   5.229   2.104 -0.1177  0.8200  0.6347
 4583TIP3   OH235163   2.571   1.616  16.044  0.7511  0.5916  0.0184
 4583TIP3    H135164   2.571   1.524  16.071  0.0847  1.0995  1.8494
 4583TIP3    H235165   2.505   1.658  16.099 -0.6115  1.7661 -2.3256
 4584TIP3   OH235166   5.867   5.514  13.319 -0.2831  0.0485  0.1766
 4584TIP3    H135167   5.836   5.454  13.387  0.3038  0.6533  1.0022
 4584TIP3    H235168   5.928   5.462  13.266 -0.4738 -0.3312  0.3299
 4585TIP3   OH235169   5.213   1.144   5.393 -0.0140  0.1947  0.3778
 4585TIP3    H135170   5.154   1.098   5.333 -0.2047  0.9730 -0.0524
 4585TIP3    H235171   5.247   1.217   5.341  0.7290  0.2039  0.8666
 4586TIP3   OH235172   4.862   2.606   1.579 -0.2290  0.6854  0.2462
 4586TIP3    H135173   4.784   2.659   1.596 -0.8756 -0.6465  1.6904
 4586TIP3    H235174   4.932   2.649   1.628 -0.7949  0.1435  1.5876
 4587TIP3   OH235175   4.779   2.333   4.090 -0.5157 -0.2666  0.1971
 4587TIP3    H135176   4.727   2.253   4.083  1.5729 -1.6032 -1.4511
 4587TIP3    H235177   4.774   2.372   4.003 -0.7697  0.9332  0.7373
 4588TIP3   OH235178   3.259   3.749  15.977 -0.1628  0.2997 -0.6965
 4588TIP3    H135179   3.177   3.713  16.010 -0.4310  0.9130 -0.6789
 4588TIP3    H235180   3.315   3.756  16.055  0.5858 -1.8324 -0.9795
 4589TIP3   OH235181   5.929   2.563   5.316 -0.0146  0.9705 -0.2352
 4589TIP3    H135182   5.923   2.653   5.350  1.1267  0.6656  0.8378
 4589TIP3    H235183   5.986   2.571   5.240 -0.7509  1.3026 -0.7674
 4590TIP3   OH235184   3.097   1.873   0.230  0.0113  0.1377  0.2740
 4590TIP3    H135185   3.037   1.821   0.177 -1.5533  2.1602 -0.0388
 4590TIP3    H235186   3.167   1.898   0.170 -1.5283  2.0605 -0.8559
 4591TIP3   OH235187   3.992   3.269  14.794 -0.1365  0.5812  0.4357
 4591TIP3    H135188   4.073   3.271  14.743  0.7949  1.7805  1.8746
 4591TIP3    H235189   3.931   3.220  14.740  1.2401  0.5291 -1.1512
 4592TIP3   OH235190   0.855   4.537   0.287 -0.2749 -0.0681 -0.2028
 4592TIP3    H135191   0.774   4.562   0.242  0.5052  1.7511 -0.6802
 4592TIP3    H235192   0.855   4.441   0.286 -1.8191 -0.0846 -1.2667
 4593TIP3   OH235193   5.093   5.991  12.936 -0.4510  0.2261 -0.0469
 4593TIP3    H135194   5.070   5.930  13.006 -0.9178  1.0599  0.5408
 4593TIP3    H235195   5.064   5.948  12.856 -0.1699 -0.6174  0.2916
 4594TIP3   OH235196   3.077   2.084   5.528 -0.3610 -0.4227 -0.2782
 4594TIP3    H135197   3.048   2.140   5.599 -0.2248  0.0025 -0.5512
 4594TIP3    H235198   3.081   2.142   5.452  0.3208 -0.6742 -0.4408
 4595TIP3   OH235199   0.306   3.091  16.876 -0.3111 -0.2312 -0.5455
 4595TIP3    H135200   0.224   3.098  16.826 -1.3501 -1.3972  0.9290
 4595TIP3    H235201   0.328   2.998  16.873  1.7444  0.2228 -2.0320
 4596TIP3   OH235202   4.780   5.224  13.465  0.1763 -0.3571  0.0417
 4596TIP3    H135203   4.812   5.213  13.376  1.9870  0.2156  0.5754
 4596TIP3    H235204   4.808   5.145  13.511  2.6557  0.9174  0.9624
 4597TIP3   OH235205   4.370   2.494   1.077  0.7541 -0.7812  0.9203
 4597TIP3    H135206   4.351   2.506   1.170 -1.5414  1.9929  0.2620
 4597TIP3    H235207   4.286   2.472   1.038  1.6104 -1.5897 -0.5666
 4598TIP3   OH235208   0.523   3.454   5.987  0.3990  0.1324 -0.0444
 4598TIP3    H135209   0.582   3.524   5.957 -0.4843  1.4310  1.1061
 4598TIP3    H235210   0.460   3.499   6.043 -1.1212 -1.3699 -0.4676
 4599TIP3   OH235211   1.164   3.905  16.405  0.6490  0.0301  0.2364
 4599TIP3    H135212   1.179   3.815  16.377  0.8456 -0.2457  1.1654
 4599TIP3    H235213   1.104   3.942  16.340 -0.3888 -1.1452  0.4870
 4600TIP3   OH235214   2.839   2.144  16.543  0.1286  0.3207 -0.2207
 4600TIP3    H135215   2.763   2.086  16.544  0.9588 -0.7932  0.8378
 4600TIP3    H235216   2.899   2.103  16.480  0.6061  0.1574  0.3306
 4601TIP3   OH235217   5.315   4.137  14.473 -0.2989 -0.3314  0.2485
 4601TIP3    H135218   5.331   4.151  14.566 -0.3696 -0.1245  0.2296
 4601TIP3    H235219   5.346   4.218  14.431  0.0196 -0.5454  0.0635
 4602TIP3   OH235220   1.668   1.541  16.060  0.0677  0.2926  0.1564
 4602TIP3    H135221   1.662   1.474  16.128  1.7369  0.3530  0.3959
 4602TIP3    H235222   1.744   1.514  16.007 -1.5498 -0.1313 -2.1151
 4603TIP3   OH235223   2.113   5.283  16.647 -0.0340 -0.1998 -0.0476
 4603TIP3    H135224   2.101   5.245  16.561 -2.1227  1.2963 -0.4997
 4603TIP3    H235225   2.205   5.311  16.648 -0.2172  0.6908 -2.2090
 4604TIP3   OH235226   1.599   1.675   2.217 -0.3071  0.0185 -0.4622
 4604TIP3    H135227   1.549   1.726   2.281 -2.6907  1.1100 -3.0168
 4604TIP3    H235228   1.597   1.728   2.137 -1.4968 -3.2299 -2.7987
 4605TIP3   OH235229   6.728   3.660  14.468  0.5075 -0.4304  0.5996
 4605TIP3    H135230   6.704   3.701  14.384  1.3965 -0.5442  0.2838
 4605TIP3    H235231   6.723   3.566  14.451  0.1928 -0.4557  0.8235
 4606TIP3   OH235232   0.263   4.471   5.491 -0.1350  0.3442  0.1422
 4606TIP3    H135233   0.214   4.488   5.410 -2.2136  1.5434  1.5537
 4606TIP3    H235234   0.277   4.377   5.491 -0.1801  0.2974 -1.5396
 4607TIP3   OH235235   1.116   0.420  14.974 -0.4331 -0.2112  0.0270
 4607TIP3    H135236   1.071   0.417  15.058 -1.7032 -0.1752 -0.6322
 4607TIP3    H235237   1.047   0.437  14.910  0.8071  2.2515 -0.7914
 4608TIP3   OH235238   0.823   3.196   6.349  0.0055  0.2876  0.3757
 4608TIP3    H135239   0.808   3.166   6.259 -0.6096 -1.6504  1.0712
 4608TIP3    H235240   0.745   3.247   6.370 -1.1606 -1.5248  0.6715
 4609TIP3   OH235241   4.478   3.307  17.500  0.4918  0.5549  0.5840
 4609TIP3    H135242   4.457   3.249  17.426  0.0747  0.2647  0.9235
 4609TIP3    H235243   4.541   3.370  17.464  1.1883 -0.2935  0.2819
 4610TIP3   OH235244   1.734   6.286   0.104  0.5205  0.0446 -0.4294
 4610TIP3    H135245   1.701   6.368   0.067 -0.7171 -1.1257 -2.0960
 4610TIP3    H235246   1.666   6.258   0.164  0.6590 -0.0697 -0.3251
 4611TIP3   OH235247   5.213   2.184  12.836 -0.5095  0.0165 -0.0214
 4611TIP3    H135248   5.146   2.216  12.777  1.0663  3.4010 -0.2197
 4611TIP3    H235249   5.296   2.206  12.793  0.7335 -1.5955  1.3956
 4612TIP3   OH235250   0.254   0.352  13.590  0.1312  0.0159 -0.2082
 4612TIP3    H135251   0.189   0.326  13.525  0.6175 -0.9405 -0.3320
 4612TIP3    H235252   0.311   0.414  13.543  1.2467 -1.6287 -1.1400
 4613TIP3   OH235253   4.749   5.638  17.502  0.3580 -0.5053 -0.2913
 4613TIP3    H135254   4.708   5.723  17.488 -0.1965 -0.1982  2.7041
 4613TIP3    H235255   4.752   5.599  17.414 -0.2243  2.1647 -1.6029
 4614TIP3   OH235256   1.167   4.724  12.325 -0.3067  0.2455 -0.1653
 4614TIP3    H135257   1.179   4.807  12.371 -0.2547  0.2649 -0.2134
 4614TIP3    H235258   1.254   4.703  12.290 -0.6026  0.8562 -1.3130
 4615TIP3   OH235259   2.958   4.349   4.920  0.3223  0.5122 -0.2193
 4615TIP3    H135260   3.029   4.410   4.940  0.9036 -0.4457  0.7521
 4615TIP3    H235261   3.001   4.273   4.882 -0.0531 -0.4273  1.1430
 4616TIP3   OH235262   3.348   3.242   3.929 -0.5290  0.4526  0.6817
 4616TIP3    H135263   3.443   3.241   3.934 -0.4106 -0.1326 -1.1292
 4616TIP3    H235264   3.320   3.176   3.993  0.4947 -2.0554 -1.2831
 4617TIP3   OH235265   5.558   3.179   5.717  0.0568  0.2401 -0.2443
 4617TIP3    H135266   5.470   3.150   5.694  0.7977 -1.3674 -1.1944
 4617TIP3    H235267   5.578   3.132   5.798 -0.4918  1.7712  0.8302
 4618TIP3   OH235268   6.687   3.121   2.072  0.1149 -0.3349 -0.3997
 4618TIP3    H135269   6.775   3.117   2.036  0.1398  0.3952 -0.4470
 4618TIP3    H235270   6.699   3.130   2.166  0.0516 -2.1107 -0.1978
 4619TIP3   OH235271   6.073   5.296  16.602  0.5183  0.0539 -0.0422
 4619TIP3    H135272   6.075   5.255  16.688  0.1299 -0.6683 -0.3672
 4619TIP3    H235273   6.161   5.281  16.567  0.9924  1.2104  0.6087
 4620TIP3   OH235274   3.978   0.345   0.579 -0.7764 -0.6347  0.2088
 4620TIP3    H135275   4.010   0.400   0.508  0.7920 -0.7545  0.7700
 4620TIP3    H235276   3.892   0.380   0.600  0.5004  2.2369  1.1516
 4621TIP3   OH235277   2.187   6.373   4.780  0.3247  0.1481 -0.3764
 4621TIP3    H135278   2.203   6.291   4.826 -0.2831  0.7211  0.9004
 4621TIP3    H235279   2.243   6.369   4.703 -0.3704 -1.8473 -0.8221
 4622TIP3   OH235280   2.002   6.682   3.385 -0.1103 -0.2518 -0.2376
 4622TIP3    H135281   2.088   6.712   3.356 -0.8289  1.3207 -0.8465
 4622TIP3    H235282   1.980   6.740   3.458 -0.1620 -1.4310  0.7293
 4623TIP3   OH235283   5.505   6.556  11.490  0.2158 -0.3084 -0.6123
 4623TIP3    H135284   5.417   6.590  11.503  0.6471 -0.2847  3.5063
 4623TIP3    H235285   5.551   6.627  11.445 -1.9588 -0.7308 -3.8455
 4624TIP3   OH235286   5.646   3.515  14.901 -0.0293  0.0645 -0.1387
 4624TIP3    H135287   5.619   3.559  14.820 -0.7161 -0.2946 -0.1116
 4624TIP3    H235288   5.711   3.450  14.872  0.5511  0.6833 -0.2534
 4625TIP3   OH235289   3.021   0.359   4.189  0.2332  0.1982 -0.5873
 4625TIP3    H135290   3.003   0.301   4.115  1.1607 -0.8284 -0.0457
 4625TIP3    H235291   3.033   0.446   4.150 -0.5406 -0.0913 -1.4902
 4626TIP3   OH235292   3.147   4.931  16.586  0.4401  0.3477 -0.2653
 4626TIP3    H135293   3.242   4.931  16.588  0.6048 -1.7465 -2.6616
 4626TIP3    H235294   3.120   4.936  16.678  2.8498  0.5013  0.4813
 4627TIP3   OH235295   0.850   1.725  14.356 -0.5033 -0.4841 -0.3045
 4627TIP3    H135296   0.939   1.730  14.389 -0.5439  0.1745 -0.2771
 4627TIP3    H235297   0.800   1.785  14.412 -0.9861 -0.9352 -0.2433
 4628TIP3   OH235298   5.691   3.898  13.943  0.0501 -0.0068 -0.3978
 4628TIP3    H135299   5.618   3.936  13.893 -1.1153 -1.6776 -0.0645
 4628TIP3    H235300   5.651   3.826  13.993  1.3385  0.9292  2.1986
 4629TIP3   OH235301   1.381   1.149   5.083 -0.1012  0.1897  0.2554
 4629TIP3    H135302   1.432   1.170   5.004  0.7506  0.9615  0.9815
 4629TIP3    H235303   1.344   1.233   5.110 -0.1661 -0.0186  0.8218
 4630TIP3   OH235304   1.378   6.703  14.828  0.1344 -0.0746  0.3559
 4630TIP3    H135305   1.429   6.783  14.842  1.9233 -0.6839 -2.0771
 4630TIP3    H235306   1.409   6.643  14.895 -0.8836  1.0471  1.9050
 4631TIP3   OH235307   1.415   4.039  11.150 -0.1631 -0.3022 -0.1012
 4631TIP3    H135308   1.429   4.004  11.062 -1.8292 -0.2469 -0.4200
 4631TIP3    H235309   1.446   4.129  11.145  1.3292 -0.7894 -0.1284
 4632TIP3   OH235310   3.889   1.320  11.727  0.0864  0.5251 -0.3028
 4632TIP3    H135311   3.811   1.318  11.671 -0.8784  1.7750  0.9169
 4632TIP3    H235312   3.920   1.230  11.729 -1.4916 -0.0613 -0.6157
 4633TIP3   OH235313   6.401   0.927  13.547 -0.3819 -0.7006  0.0760
 4633TIP3    H135314   6.456   0.962  13.617 -1.4197  2.6574 -0.5613
 4633TIP3    H235315   6.458   0.922  13.471 -0.1436 -0.5872  0.2472
 4634TIP3   OH235316   4.491   0.557  17.089 -0.0358  0.0575 -0.1377
 4634TIP3    H135317   4.560   0.529  17.149 -0.3842 -1.0703 -0.2528
 4634TIP3    H235318   4.445   0.477  17.065  0.9966  0.2449 -3.0764
 4635TIP3   OH235319   3.779   5.982  15.108 -0.1567  0.5711  0.5027
 4635TIP3    H135320   3.829   6.056  15.073 -1.2315  0.8012 -0.6340
 4635TIP3    H235321   3.757   5.930  15.031 -2.0388  0.7282  0.8842
 4636TIP3   OH235322   0.146   5.656  14.701  0.1363  0.1647 -1.2189
 4636TIP3    H135323   0.232   5.635  14.665  0.3184  0.5974 -1.0527
 4636TIP3    H235324   0.143   5.752  14.700  1.4568  0.4164  2.8547
 4637TIP3   OH235325   4.564   1.549  12.455  0.2336  0.1851  0.5579
 4637TIP3    H135326   4.544   1.567  12.546  0.0679  2.1306  0.1864
 4637TIP3    H235327   4.652   1.585  12.442  1.1154 -1.8655  0.4064
 4638TIP3   OH235328   1.313   1.198   1.969 -0.0022  0.1513 -0.0473
 4638TIP3    H135329   1.274   1.259   1.906  1.0943 -1.7280 -2.7047
 4638TIP3    H235330   1.246   1.132   1.985  0.9507 -1.4753 -2.3456
 4639TIP3   OH235331   3.302   2.946  14.955 -0.1781  1.1183  0.2020
 4639TIP3    H135332   3.248   2.991  15.020 -4.5284 -3.3198  0.2008
 4639TIP3    H235333   3.250   2.949  14.875  0.5547 -1.4412 -0.4576
 4640TIP3   OH235334   4.849   2.878  16.457 -0.1073  0.0332 -0.5033
 4640TIP3    H135335   4.780   2.939  16.432 -0.2439  0.1431  0.1118
 4640TIP3    H235336   4.921   2.898  16.397 -0.1976  0.7134 -0.3990
 4641TIP3   OH235337   2.104   5.629   0.563 -0.4099 -0.4421 -0.2546
 4641TIP3    H135338   2.110   5.546   0.516  1.0362 -0.4762 -0.0343
 4641TIP3    H235339   2.010   5.639   0.582 -0.6141 -1.9812 -0.3478
 4642TIP3   OH235340   4.645   3.905  11.770  0.8476  0.1330 -0.3965
 4642TIP3    H135341   4.653   3.853  11.690  1.0561 -2.3043  1.1159
 4642TIP3    H235342   4.554   3.893  11.798  1.3893 -1.1149  0.9848
 4643TIP3   OH235343   2.154   0.709   2.900 -0.4098  0.4449  0.4697
 4643TIP3    H135344   2.090   0.755   2.845 -0.5085 -0.3412 -0.0912
 4643TIP3    H235345   2.172   0.770   2.971 -1.3587  0.9070  0.3329
 4644TIP3   OH235346   4.389   5.559   5.413 -0.4077 -0.4015 -0.9859
 4644TIP3    H135347   4.349   5.627   5.358 -3.0777 -0.5283  0.6001
 4644TIP3    H235348   4.369   5.477   5.369 -2.8261 -0.5285  0.1640
 4645TIP3   OH235349   0.314   5.394   3.652  0.3446 -0.3168 -0.4556
 4645TIP3    H135350   0.277   5.461   3.710  0.2158  0.0091 -0.9124
 4645TIP3    H235351   0.242   5.367   3.596  0.3841 -0.8807 -0.2473
 4646TIP3   OH235352   6.646   2.290  13.029 -0.1215 -0.0983  0.0908
 4646TIP3    H135353   6.641   2.360  12.963  2.3084  0.3003  0.2399
 4646TIP3    H235354   6.617   2.331  13.110 -1.1551 -0.0179 -0.3015
 4647TIP3   OH235355   6.040   1.578  14.170 -0.1673 -0.0673  0.0382
 4647TIP3    H135356   6.030   1.605  14.261  0.8761 -1.9831  0.7825
 4647TIP3    H235357   6.085   1.651  14.128 -0.6818  0.8539  1.0303
 4648TIP3   OH235358   1.261   1.847  12.641  0.5454 -0.3500 -0.0120
 4648TIP3    H135359   1.293   1.767  12.598 -0.5377 -2.1425  2.2349
 4648TIP3    H235360   1.219   1.815  12.721  2.9771  2.7214  2.7511
 4649TIP3   OH235361   0.667   4.769   1.208 -0.1730  0.0946  0.0396
 4649TIP3    H135362   0.704   4.811   1.286  2.6693  0.4894 -1.3977
 4649TIP3    H235363   0.589   4.724   1.240  1.1964 -0.2926  3.2470
 4650TIP3   OH235364   4.486   5.454   1.416  0.3380 -0.5969 -0.5127
 4650TIP3    H135365   4.581   5.452   1.407  0.3187  1.1282 -1.6928
 4650TIP3    H235366   4.469   5.533   1.468 -0.4729 -0.2599 -1.2599
 4651TIP3   OH235367   4.620   1.600   3.387 -0.2129 -0.0080  0.0235
 4651TIP3    H135368   4.678   1.527   3.366  1.2359  0.8204  0.9074
 4651TIP3    H235369   4.590   1.632   3.302  0.8375 -0.3264 -0.4928
 4652TIP3   OH235370   4.260   4.422  16.225  0.1912 -0.0321 -0.0657
 4652TIP3    H135371   4.238   4.511  16.254 -0.4390  0.2776 -1.3921
 4652TIP3    H235372   4.339   4.433  16.172  0.4690 -0.3628  0.2716
 4653TIP3   OH235373   4.998   2.070   1.261 -0.2621  0.0181  0.1483
 4653TIP3    H135374   5.054   2.148   1.271  0.2922 -0.1708 -1.2347
 4653TIP3    H235375   4.972   2.072   1.169 -0.5346 -1.2481  0.1908
 4654TIP3   OH235376   4.196   3.118  13.767 -0.2460  0.3003 -0.0419
 4654TIP3    H135377   4.284   3.091  13.791  0.1542  0.6054 -1.1438
 4654TIP3    H235378   4.161   3.044  13.717  0.2187  1.0695 -1.5546
 4655TIP3   OH235379   1.840   2.935  12.404  0.3649 -0.2672 -0.6728
 4655TIP3    H135380   1.773   2.866  12.414  1.1065 -0.7312  1.8790
 4655TIP3    H235381   1.803   3.011  12.449  0.5742  0.2334 -1.3374
 4656TIP3   OH235382   4.519   5.972   5.951 -0.2065 -0.0065  0.1848
 4656TIP3    H135383   4.546   5.993   5.862 -1.1213  0.3796 -0.0027
 4656TIP3    H235384   4.599   5.982   6.003 -0.0749  1.5618 -0.2885
 4657TIP3   OH235385   3.869   0.643  12.108  0.4817  0.0340  0.1946
 4657TIP3    H135386   3.907   0.597  12.033  1.0836 -0.8059  1.0014
 4657TIP3    H235387   3.847   0.730  12.073  2.8435  0.4798 -0.4080
 4658TIP3   OH235388   5.170   0.661   0.687 -0.3523  0.0298  0.1790
 4658TIP3    H135389   5.167   0.583   0.743 -1.7899 -2.0569 -2.5412
 4658TIP3    H235390   5.247   0.647   0.631 -0.0860  1.0542  0.2802
 4659TIP3   OH235391   4.421   4.552   1.596 -0.1624  0.3733  0.1099
 4659TIP3    H135392   4.460   4.639   1.587 -3.2011  1.7967 -0.5377
 4659TIP3    H235393   4.464   4.499   1.528  3.7604  0.3860  2.2793
 4660TIP3   OH235394   2.277   1.147  16.124 -0.1424 -0.1071 -0.3850
 4660TIP3    H135395   2.257   1.081  16.190  1.2834  0.0615  0.2430
 4660TIP3    H235396   2.268   1.231  16.170  0.6667  0.0199 -0.4418
 4661TIP3   OH235397   1.309   6.683   3.360 -0.2361 -0.2767  0.4524
 4661TIP3    H135398   1.238   6.619   3.369 -0.7346  0.0974 -0.7123
 4661TIP3    H235399   1.385   6.631   3.333 -0.3320 -0.5304  0.6584
 4662TIP3   OH235400   5.160   0.040  13.237  0.4689  0.1277 -0.0158
 4662TIP3    H135401   5.121  -0.022  13.175 -1.0167 -0.6611  1.6171
 4662TIP3    H235402   5.229  -0.011  13.281  0.1579  0.0477  0.3831
 4663TIP3   OH235403   3.999   1.606  15.120 -0.0493 -0.1195 -0.8767
 4663TIP3    H135404   3.909   1.576  15.134 -0.0670 -0.6178 -1.9665
 4663TIP3    H235405   4.025   1.643  15.204 -0.9163 -0.8967 -0.2466
 4664TIP3   OH235406   4.181   2.931  16.882  0.8880  0.0385 -0.0933
 4664TIP3    H135407   4.146   2.931  16.793  0.3003  0.5482  0.1351
 4664TIP3    H235408   4.249   2.863  16.881 -0.4892 -1.3793 -0.3855
 4665TIP3   OH235409   1.508   3.038   5.481 -1.2128 -0.5581 -0.1127
 4665TIP3    H135410   1.464   2.982   5.417  1.0398 -2.5301 -0.0811
 4665TIP3    H235411   1.491   2.996   5.565  0.9478 -1.6632 -0.1440
 4666TIP3   OH235412   5.915   2.733  16.761 -0.5896  0.3579  0.1954
 4666TIP3    H135413   5.987   2.672  16.778 -0.7903  0.6303  2.3667
 4666TIP3    H235414   5.875   2.701  16.680  1.3998 -0.3191 -0.5748
 4667TIP3   OH235415   4.070   3.881  15.370  0.0857  0.0940  0.1880
 4667TIP3    H135416   4.126   3.816  15.327  0.2162  1.6460 -2.1819
 4667TIP3    H235417   3.995   3.830  15.401  1.8078 -1.7071  1.6632
 4668TIP3   OH235418   3.811   2.185  12.682 -0.5275  0.1393 -0.3196
 4668TIP3    H135419   3.897   2.147  12.701 -0.7995  0.5578  2.1062
 4668TIP3    H235420   3.758   2.164  12.759 -3.0582 -1.2218 -2.2326
 4669TIP3   OH235421   5.123   1.669   2.941  0.6478  0.2622 -0.2348
 4669TIP3    H135422   5.193   1.724   2.906  0.7229  0.3496  0.0548
 4669TIP3    H235423   5.164   1.583   2.951  0.7887  0.3780  0.1868
 4670TIP3   OH235424   4.033   4.970  11.376  0.0822  0.2060 -0.3672
 4670TIP3    H135425   4.052   4.927  11.459 -2.6731 -0.3862  0.0795
 4670TIP3    H235426   3.986   5.050  11.401 -1.1261 -0.1762 -1.3007
 4671TIP3   OH235427   3.731   2.818  12.439  0.0169  0.4422  0.1096
 4671TIP3    H135428   3.737   2.871  12.359 -1.1473  0.9596  0.3523
 4671TIP3    H235429   3.671   2.747  12.416 -1.6983  1.5394  0.9983
 4672TIP3   OH235430   6.094   0.794  13.161 -0.2055 -0.2431  0.2687
 4672TIP3    H135431   6.113   0.775  13.253  1.6136  1.1750  0.2461
 4672TIP3    H235432   6.151   0.736  13.111 -0.4832 -0.3311  0.0490
 4673TIP3   OH235433   4.155   1.404  12.964 -0.1053  0.2820 -0.3690
 4673TIP3    H135434   4.179   1.313  12.947 -0.6221 -0.0520  0.6264
 4673TIP3    H235435   4.100   1.429  12.889 -1.4315 -0.7984  0.2069
 4674TIP3   OH235436   3.025   0.389  16.828 -0.0303  0.1558  0.2100
 4674TIP3    H135437   3.044   0.350  16.913  1.1167 -0.2319 -0.2088
 4674TIP3    H235438   2.931   0.405  16.829 -0.1233 -0.4065  1.3140
 4675TIP3   OH235439   2.529   5.182   4.683  0.0902  0.0712 -0.0346
 4675TIP3    H135440   2.483   5.220   4.609  0.4107  0.7129  0.0813
 4675TIP3    H235441   2.576   5.107   4.647 -0.7008 -0.3371 -0.2330
 4676TIP3   OH235442   0.483   5.057   2.071 -0.7165  0.3650 -0.0816
 4676TIP3    H135443   0.519   5.007   1.997 -0.8955 -0.1178  0.1561
 4676TIP3    H235444   0.400   5.092   2.038 -1.3310 -0.7558  0.2313
 4677TIP3   OH235445   3.606   4.295   2.397  0.3665  0.3607  0.1666
 4677TIP3    H135446   3.543   4.262   2.461 -1.6711  1.2589 -1.2648
 4677TIP3    H235447   3.667   4.348   2.448  1.0068 -1.7941  1.8284
 4678TIP3   OH235448   0.966   1.998   4.422  0.3609 -0.3794 -0.1303
 4678TIP3    H135449   0.952   1.911   4.460 -0.1404 -0.6299 -0.8626
 4678TIP3    H235450   1.060   2.012   4.429  0.5103 -1.1928 -0.4502
 4679TIP3   OH235451   5.316   0.084   4.973  0.4940 -0.0953 -0.1932
 4679TIP3    H135452   5.267   0.059   4.894 -0.9786  0.7794  0.3991
 4679TIP3    H235453   5.346   0.001   5.009 -0.2452 -0.6478 -0.7933
 4680TIP3   OH235454   1.623   5.254  14.690 -0.5976  0.2503 -0.2097
 4680TIP3    H135455   1.580   5.315  14.750 -0.5107  1.2859 -1.1823
 4680TIP3    H235456   1.709   5.238  14.730 -0.6495  0.7022  0.0917
 4681TIP3   OH235457   2.905   3.864  16.247 -0.2923  0.1827  0.4748
 4681TIP3    H135458   2.908   3.770  16.262  2.1574  0.4424  2.3848
 4681TIP3    H235459   2.853   3.875  16.168 -0.3693 -2.7833  0.0244
 4682TIP3   OH235460   2.120   3.796  15.886  0.0192 -0.5355  0.0575
 4682TIP3    H135461   2.028   3.785  15.862 -0.0012  1.4421 -0.9413
 4682TIP3    H235462   2.165   3.724  15.843 -0.8452 -0.5340 -0.8855
 4683TIP3   OH235463   2.910   6.120   1.907 -0.3826  0.3947  0.1643
 4683TIP3    H135464   2.955   6.050   1.859 -0.3725  0.4942  0.0285
 4683TIP3    H235465   2.855   6.162   1.841 -0.7827  0.1818  0.3592
 4684TIP3   OH235466   3.239   4.667  15.331 -0.0994 -0.1333  0.5422
 4684TIP3    H135467   3.289   4.655  15.250  0.0043 -1.8568  0.8174
 4684TIP3    H235468   3.245   4.761  15.350  1.6175 -0.0304 -0.3322
 4685TIP3   OH235469   2.311   5.312  11.987 -0.3487  0.1754  0.1355
 4685TIP3    H135470   2.376   5.379  12.009 -2.1169  1.9930  0.1274
 4685TIP3    H235471   2.296   5.322  11.893 -1.6151  0.7227  0.3807
 4686TIP3   OH235472   2.306   5.191  13.307  0.4233 -0.0282 -0.2089
 4686TIP3    H135473   2.243   5.129  13.343  1.9637 -2.0853 -0.9000
 4686TIP3    H235474   2.258   5.237  13.239 -0.0413 -2.5452 -1.7029
 4687TIP3   OH235475   1.972   3.535  16.672 -0.2925  0.4473 -0.4043
 4687TIP3    H135476   1.915   3.474  16.625  1.1633 -0.4448 -1.0763
 4687TIP3    H235477   1.934   3.541  16.760 -0.1906 -1.8598 -0.1516
 4688TIP3   OH235478   2.296   2.106  12.072 -0.0286 -0.2469 -0.1759
 4688TIP3    H135479   2.208   2.140  12.056  0.3049  0.5317 -0.4200
 4688TIP3    H235480   2.288   2.057  12.153 -0.7037 -0.2335 -0.2272
 4689TIP3   OH235481   4.319   0.527  14.034 -0.3523  0.2054  0.1588
 4689TIP3    H135482   4.262   0.478  13.975 -0.0771 -0.3022  0.3117
 4689TIP3    H235483   4.261   0.555  14.105 -0.2942 -0.8508  0.6392
 4690TIP3   OH235484   2.558   5.484  11.976  0.5723  0.0742 -0.0384
 4690TIP3    H135485   2.561   5.548  11.905  0.3884  1.2453  0.9747
 4690TIP3    H235486   2.642   5.438  11.971  0.9576  0.8022 -0.4265
 4691TIP3   OH235487   2.701   2.583   2.268  0.2154  0.6655 -0.0522
 4691TIP3    H135488   2.614   2.611   2.240 -0.6217 -0.2920  1.4274
 4691TIP3    H235489   2.691   2.491   2.290  1.4771  0.6548  0.6079
 4692TIP3   OH235490   4.401   5.191   1.458 -0.4646  0.1737 -0.9102
 4692TIP3    H135491   4.402   5.286   1.448  0.2478  0.1703 -0.9207
 4692TIP3    H235492   4.375   5.177   1.549  0.2624  0.4036 -0.6617
 4693TIP3   OH235493   0.502   3.578  11.925  0.3257  0.3232 -0.2401
 4693TIP3    H135494   0.479   3.630  12.002  1.8920 -1.6599  1.7037
 4693TIP3    H235495   0.459   3.622  11.852 -1.8201  1.9141  1.8463
 4694TIP3   OH235496   4.502   4.625  13.387  0.4610 -0.7882 -0.3577
 4694TIP3    H135497   4.598   4.619  13.389  0.5377 -0.0702 -1.2286
 4694TIP3    H235498   4.474   4.588  13.470  1.6387  1.6970  1.2440
 4695TIP3   OH235499   3.425   0.086   3.929  0.1287  0.5063  0.1837
 4695TIP3    H135500   3.439   0.171   3.970  2.2189 -0.3391  1.3471
 4695TIP3    H235501   3.421   0.106   3.835  2.4213  1.7402  0.2720
 4696TIP3   OH235502   2.392   0.767  12.534 -0.1741 -0.0070 -0.0835
 4696TIP3    H135503   2.307   0.731  12.560  0.5244 -1.5395  0.2041
 4696TIP3    H235504   2.388   0.772  12.439  0.0365 -1.8427 -0.2336
 4697TIP3   OH235505   6.470   4.345  17.299 -0.3341  0.1295  0.1124
 4697TIP3    H135506   6.464   4.255  17.331 -0.1574 -0.2909 -0.9819
 4697TIP3    H235507   6.545   4.382  17.345 -0.4577 -0.2598  0.6380
 4698TIP3   OH235508   1.207   5.603  14.231 -0.2575  0.7522  0.4094
 4698TIP3    H135509   1.240   5.519  14.262  1.3849  0.7254 -1.2573
 4698TIP3    H235510   1.134   5.581  14.174  0.4797  0.3963 -0.4158
 4699TIP3   OH235511   5.662   6.312   6.007 -0.0538  0.1181  0.0657
 4699TIP3    H135512   5.656   6.374   6.079 -1.1412 -0.8218  0.8184
 4699TIP3    H235513   5.696   6.364   5.933  1.3054  1.0323  1.2882
 4700TIP3   OH235514   0.947   1.624   6.202 -0.0659 -0.1314 -0.6114
 4700TIP3    H135515   0.987   1.639   6.116 -0.6611  1.5941 -0.6118
 4700TIP3    H235516   0.917   1.710   6.230  1.3191 -0.3866  1.9547
 4701TIP3   OH235517   5.499   3.163  15.921 -0.1578  0.1705  0.5414
 4701TIP3    H135518   5.554   3.240  15.938  0.9283  0.0348 -1.8672
 4701TIP3    H235519   5.418   3.180  15.969 -0.2567  3.2170 -0.4841
 4702TIP3   OH235520   0.182   1.940  13.493  0.7331  0.3022  0.1706
 4702TIP3    H135521   0.161   1.932  13.586  0.7073  1.4020  0.2621
 4702TIP3    H235522   0.264   1.890  13.484 -0.6039 -2.0592  0.2366
 4703TIP3   OH235523   4.399   4.068  11.326  0.8044  0.2750  0.2612
 4703TIP3    H135524   4.334   4.137  11.316  0.4571 -0.2537 -1.4208
 4703TIP3    H235525   4.414   4.063  11.421 -1.5111  0.5039  0.6999
 4704TIP3   OH235526   5.091   5.261   5.904  0.2861  0.6283  0.3128
 4704TIP3    H135527   5.005   5.222   5.886  0.3142  0.4857  0.4848
 4704TIP3    H235528   5.152   5.188   5.894  0.2065  0.3083  1.9736
 4705TIP3   OH235529   1.079   3.610  12.409  0.4941  0.6973 -0.3711
 4705TIP3    H135530   1.044   3.643  12.492 -0.2188 -0.2099 -0.3042
 4705TIP3    H235531   1.043   3.522  12.401 -0.6738  1.2988 -2.3719
 4706TIP3   OH235532   0.472   3.341  15.338 -0.2034  0.3092  0.3161
 4706TIP3    H135533   0.412   3.277  15.300 -1.4334 -0.0751  2.6793
 4706TIP3    H235534   0.415   3.398  15.391  0.7839  3.6109 -1.8393
 4707TIP3   OH235535   4.705   4.617   3.636  0.5804  0.1886 -0.0817
 4707TIP3    H135536   4.778   4.639   3.578 -1.0322  1.1044 -1.9146
 4707TIP3    H235537   4.637   4.585   3.577 -0.8696  0.3526  1.4191
 4708TIP3   OH235538   1.988   6.604  13.640  0.0130  0.1153  0.2667
 4708TIP3    H135539   1.912   6.593  13.583 -0.8016 -0.8939  1.5003
 4708TIP3    H235540   1.999   6.699  13.646 -0.8744  0.2627 -0.2691
 4709TIP3   OH235541   0.899   4.329  13.280 -0.8918  0.4252  0.3425
 4709TIP3    H135542   0.935   4.402  13.329 -0.8815  2.0001 -1.8480
 4709TIP3    H235543   0.821   4.365  13.237 -0.7487 -0.7636 -0.9956
 4710TIP3   OH235544   5.367   3.512  15.429 -0.2770 -0.0708 -0.3482
 4710TIP3    H135545   5.291   3.479  15.382  0.2369  0.1421 -1.3746
 4710TIP3    H235546   5.333   3.584  15.483 -0.6898  0.5527 -1.3979
 4711TIP3   OH235547   2.259   6.110  16.514 -0.3035  0.2568 -0.0475
 4711TIP3    H135548   2.175   6.074  16.543 -0.2845  0.6995  0.5593
 4711TIP3    H235549   2.319   6.035  16.515  0.0202  0.4951  2.2891
 4712TIP3   OH235550   5.269   0.461   5.424 -0.2078  0.2824 -0.3027
 4712TIP3    H135551   5.277   0.454   5.329  0.3689 -0.1140 -0.2247
 4712TIP3    H235552   5.307   0.546   5.445 -0.5308  0.4662 -0.4444
 4713TIP3   OH235553   4.948   5.134  16.797  0.4854  0.1126 -0.4354
 4713TIP3    H135554   4.995   5.153  16.715  1.1218 -2.0406 -0.6330
 4713TIP3    H235555   4.879   5.073  16.771  0.8799 -0.8291  0.6559
 4714TIP3   OH235556   1.626   0.954  14.566 -0.5819 -0.2662  0.1140
 4714TIP3    H135557   1.550   0.923  14.615  0.0370 -0.5571  0.9131
 4714TIP3    H235558   1.631   1.048  14.586 -0.5487 -0.3112  0.3207
 4715TIP3   OH235559   2.602   3.448   5.361 -0.2194  0.2301 -0.5115
 4715TIP3    H135560   2.524   3.495   5.390 -0.5787 -0.5252 -0.2181
 4715TIP3    H235561   2.670   3.515   5.355 -1.2570  1.2049 -2.2878
 4716TIP3   OH235562   3.095   4.621  15.578 -0.4232  0.8982 -0.2993
 4716TIP3    H135563   3.140   4.541  15.604 -0.0648  1.2828  0.3161
 4716TIP3    H235564   3.139   4.649  15.498  0.1636  1.0398  0.0621
 4717TIP3   OH235565   1.777   0.949   3.632 -0.0830 -0.2076  0.2836
 4717TIP3    H135566   1.746   1.039   3.623 -3.0612 -1.2993 -1.5919
 4717TIP3    H235567   1.707   0.896   3.595  1.3866 -3.3633  1.7088
 4718TIP3   OH235568   0.318   0.010  12.881  0.5943 -0.3962  0.0841
 4718TIP3    H135569   0.326   0.079  12.815  0.2375 -0.7525 -0.3357
 4718TIP3    H235570   0.328  -0.071  12.832  0.4079 -0.6620  0.4846
 4719TIP3   OH235571   5.002   2.380   4.231 -0.2647 -0.4936  1.0708
 4719TIP3    H135572   5.010   2.312   4.297  0.4414  0.1946  1.7189
 4719TIP3    H235573   4.934   2.349   4.172 -1.1496 -0.9636  2.3074
 4720TIP3   OH235574   4.846   0.231  15.687 -0.2420 -0.2575 -0.1092
 4720TIP3    H135575   4.752   0.212  15.676 -0.2328 -0.0355 -0.6115
 4720TIP3    H235576   4.848   0.309  15.742 -0.3891  0.2354 -0.7766
 4721TIP3   OH235577   6.478   3.314  14.797 -0.5474 -0.5128  0.4796
 4721TIP3    H135578   6.478   3.248  14.727  0.0401 -0.0245  0.0128
 4721TIP3    H235579   6.543   3.282  14.859 -1.8782 -1.5548  1.4180
 4722TIP3   OH235580   3.558   1.945   1.550  0.1097 -0.1714 -0.0442
 4722TIP3    H135581   3.614   1.962   1.625  0.4644 -0.9927 -0.1061
 4722TIP3    H235582   3.525   2.031   1.524 -0.7802  0.0279  1.6251
 4723TIP3   OH235583   2.632   0.618  16.606 -0.3610 -0.0955 -0.2097
 4723TIP3    H135584   2.559   0.557  16.595 -0.1780 -0.6175  1.1474
 4723TIP3    H235585   2.710   0.562  16.613 -0.0817  0.3286  0.2223
 4724TIP3   OH235586   5.134   3.083   5.466  0.3457  0.0766  0.4361
 4724TIP3    H135587   5.186   3.010   5.431  0.2251  0.5149 -0.7105
 4724TIP3    H235588   5.057   3.041   5.504 -0.0893 -0.3867 -0.8804
 4725TIP3   OH235589   0.391   5.997  14.525 -0.0447 -0.5540  0.4656
 4725TIP3    H135590   0.395   6.086  14.489 -1.9305 -0.8991 -0.6959
 4725TIP3    H235591   0.483   5.971  14.533  0.5249  0.3788 -2.0301
 4726TIP3   OH235592   2.018   2.351  14.965  0.0946 -0.2173 -0.4383
 4726TIP3    H135593   1.996   2.430  14.916  2.3576  0.0852 -1.0834
 4726TIP3    H235594   2.032   2.284  14.898  0.3591 -0.5725 -0.0331
 4727TIP3   OH235595   0.007   0.950  11.471  0.1039 -0.5463 -0.1308
 4727TIP3    H135596   0.075   0.956  11.404  0.8104 -1.8472  0.4444
 4727TIP3    H235597   0.054   0.952  11.554 -0.7436  0.7884  0.3546
 4728TIP3   OH235598   4.667   3.302   1.789  0.9610 -0.5448 -0.6937
 4728TIP3    H135599   4.648   3.276   1.699 -0.6927 -0.8805 -0.2813
 4728TIP3    H235600   4.682   3.220   1.836 -1.6206 -0.7013  0.0306
 4729TIP3   OH235601   6.240   0.624   2.619 -0.5158 -0.0372 -0.3669
 4729TIP3    H135602   6.291   0.543   2.610 -0.0924  0.1693  0.0865
 4729TIP3    H235603   6.262   0.656   2.707 -1.2173  0.2055 -0.2717
 4730TIP3   OH235604   3.659   5.331  10.965  0.4341 -0.2071  0.0676
 4730TIP3    H135605   3.570   5.360  10.944  1.3162  0.7351 -2.8377
 4730TIP3    H235606   3.714   5.408  10.951  1.8968 -1.1839  0.1840
 4731TIP3   OH235607   5.757   3.333   3.213  0.1691  0.3896 -0.2367
 4731TIP3    H135608   5.704   3.408   3.242 -0.9877 -0.1598 -0.8769
 4731TIP3    H235609   5.755   3.338   3.118 -0.0621 -0.5606 -0.2834
 4732TIP3   OH235610   5.423   5.326   6.755  0.1560  0.1354 -0.6303
 4732TIP3    H135611   5.395   5.412   6.725  0.6566  0.1357 -1.1088
 4732TIP3    H235612   5.509   5.314   6.716 -0.7378 -1.4447 -2.2320
 4733TIP3   OH235613   0.954   4.251   2.124  0.4777  0.6004 -0.0836
 4733TIP3    H135614   0.864   4.250   2.093  0.2772 -0.6531  0.4684
 4733TIP3    H235615   0.971   4.342   2.147 -0.2119  1.0751 -1.3844
 4734TIP3   OH235616   6.086   5.910  13.733  0.5491 -0.2234 -0.1930
 4734TIP3    H135617   6.152   5.980  13.729  0.6043 -0.2652 -0.0497
 4734TIP3    H235618   6.035   5.931  13.812  1.8242 -1.4433  1.0089
 4735TIP3   OH235619   4.376   4.276   2.686  0.6383  1.0238 -0.7524
 4735TIP3    H135620   4.421   4.360   2.686  0.4813  1.1517  0.9595
 4735TIP3    H235621   4.283   4.298   2.692  0.5963  0.7499 -0.2635
 4736TIP3   OH235622   5.649   6.601  16.826  0.0018 -0.0535  0.0333
 4736TIP3    H135623   5.715   6.584  16.894 -0.4692 -0.5172  0.3808
 4736TIP3    H235624   5.579   6.539  16.845 -0.3504  0.1462 -0.5930
 4737TIP3   OH235625   6.215   6.692   2.249 -0.1233  0.5054  0.3367
 4737TIP3    H135626   6.181   6.782   2.242 -1.3992 -0.0303 -0.7263
 4737TIP3    H235627   6.139   6.637   2.232  0.7292 -0.7847  0.6234
 4738TIP3   OH235628   5.704   4.352   0.184 -0.8137 -0.8547  0.0664
 4738TIP3    H135629   5.719   4.289   0.114 -3.5149 -1.4311 -0.1277
 4738TIP3    H235630   5.719   4.437   0.143 -0.7253 -1.2484 -0.7393
 4739TIP3   OH235631   3.380   4.569  14.156  0.3327  0.3592 -0.0761
 4739TIP3    H135632   3.327   4.646  14.132  0.3146  0.4244  0.1693
 4739TIP3    H235633   3.390   4.576  14.251  1.0852  0.5410 -0.1644
 4740TIP3   OH235634   5.774   1.979  15.547 -0.0563 -0.0592 -0.2349
 4740TIP3    H135635   5.762   2.010  15.458 -0.5668 -0.0889 -0.1795
 4740TIP3    H235636   5.834   1.905  15.540  0.9673  0.7679 -0.4009
 4741TIP3   OH235637   2.573   0.651   3.417 -0.1135 -0.2280  0.1112
 4741TIP3    H135638   2.563   0.710   3.342  1.1865 -0.3420 -0.1735
 4741TIP3    H235639   2.583   0.709   3.492  1.6479 -0.0431 -0.2320
 4742TIP3   OH235640   2.090   3.357   3.713  0.2330  0.2943 -0.0545
 4742TIP3    H135641   2.020   3.315   3.663  0.4103  0.5454 -0.5179
 4742TIP3    H235642   2.050   3.376   3.798  0.0410 -0.4729  0.0367
 4743TIP3   OH235643   6.006   1.034  10.839  0.2253  0.8665 -0.4163
 4743TIP3    H135644   6.083   1.090  10.827  1.4964 -1.0700 -1.9018
 4743TIP3    H235645   5.947   1.059  10.768 -0.1095  1.6381  0.1114
 4744TIP3   OH235646   6.090   5.863   3.433  0.2602  0.1072  0.3834
 4744TIP3    H135647   6.146   5.930   3.472  0.9531  0.1282 -0.6097
 4744TIP3    H235648   6.114   5.783   3.478  0.1325  0.3588  0.8982
 4745TIP3   OH235649   1.102   6.172   2.179 -0.3900 -0.5981 -0.1741
 4745TIP3    H135650   1.160   6.105   2.214 -0.6657 -0.8651 -0.2188
 4745TIP3    H235651   1.024   6.168   2.236  0.0234  0.4161  0.4867
 4746TIP3   OH235652   5.388   2.528  17.290  0.0682 -0.2859  0.1815
 4746TIP3    H135653   5.462   2.547  17.233  0.1625  2.1903  1.0271
 4746TIP3    H235654   5.423   2.469  17.357  0.3870 -1.7958 -1.2473
 4747TIP3   OH235655   4.513   4.348  12.181 -0.3396  0.0593 -0.4081
 4747TIP3    H135656   4.583   4.381  12.124 -0.5450  0.3085 -0.5204
 4747TIP3    H235657   4.558   4.296  12.247 -0.1183 -0.3904 -0.9077
 4748TIP3   OH235658   2.714   5.247   5.441 -0.1866  1.0002 -0.1094
 4748TIP3    H135659   2.799   5.282   5.415 -0.1228  2.0390  1.3165
 4748TIP3    H235660   2.676   5.317   5.495 -0.4238 -0.7758  2.2004
 4749TIP3   OH235661   4.025   5.645   1.167  0.1459 -0.1489 -0.3227
 4749TIP3    H135662   4.044   5.689   1.249  1.3278 -0.0180 -0.6518
 4749TIP3    H235663   3.930   5.628   1.170 -0.1380  1.4175  0.2789
 4750TIP3   OH235664   4.007   0.702  16.189  0.2564 -0.5280 -0.3165
 4750TIP3    H135665   4.016   0.726  16.281  0.6478 -0.6372 -0.3231
 4750TIP3    H235666   4.089   0.656  16.169  1.0652  1.2785 -1.2825
 4751TIP3   OH235667   5.078   6.193   5.477  0.1136  0.1305  0.3325
 4751TIP3    H135668   5.082   6.151   5.563 -0.1087  1.0173  0.7787
 4751TIP3    H235669   5.126   6.133   5.420  0.7040 -0.2204  1.1733
 4752TIP3   OH235670   5.961   2.663  14.904  0.2884 -0.2290 -0.4406
 4752TIP3    H135671   5.877   2.668  14.950 -0.3486  1.1327 -1.6555
 4752TIP3    H235672   5.942   2.615  14.824  1.3155 -2.2798  0.4617
 4753TIP3   OH235673   4.873   4.962  12.392 -0.6881  0.0931 -0.0043
 4753TIP3    H135674   4.969   4.964  12.395 -0.6446 -0.4307 -0.7448
 4753TIP3    H235675   4.845   4.988  12.480  0.0981  2.5626 -0.4048
 4754TIP3   OH235676   1.793   2.431  16.978 -0.2537 -0.7058 -0.1726
 4754TIP3    H135677   1.785   2.348  16.931  1.1392 -0.2225 -1.3335
 4754TIP3    H235678   1.886   2.436  17.002 -0.6589 -0.2566  1.3895
 4755TIP3   OH235679   3.985   2.355  16.281 -0.3483  0.2659 -0.1881
 4755TIP3    H135680   3.926   2.361  16.205 -0.3020 -0.4912 -0.2895
 4755TIP3    H235681   4.024   2.442  16.287 -0.1449  0.2672 -1.2126
 4756TIP3   OH235682   6.295   3.370   5.907 -0.5422  0.2275 -0.2067
 4756TIP3    H135683   6.315   3.338   5.995 -1.1119  2.2824  0.7336
 4756TIP3    H235684   6.244   3.300   5.868  0.9072 -1.3343  0.5504
 4757TIP3   OH235685   3.743   5.724   1.843 -0.0438 -0.3859  0.5731
 4757TIP3    H135686   3.703   5.638   1.851 -2.2554  0.3791 -1.2739
 4757TIP3    H235687   3.688   5.781   1.897 -0.2935  0.3371 -0.4161
 4758TIP3   OH235688   0.318   2.699  11.822  0.0195  0.0109 -0.1125
 4758TIP3    H135689   0.408   2.716  11.850 -0.3274  0.9877  0.4324
 4758TIP3    H235690   0.318   2.606  11.797  0.7657 -0.4704  1.5442
 4759TIP3   OH235691   0.343   4.071  15.620  0.0606 -0.2938 -0.1682
 4759TIP3    H135692   0.266   4.047  15.671  0.3099 -1.6061 -0.3669
 4759TIP3    H235693   0.377   3.988  15.588 -1.7719  0.4853 -5.0140
 4760TIP3   OH235694   5.397   6.164  12.518  0.5474  0.1120 -0.2892
 4760TIP3    H135695   5.377   6.106  12.592 -2.0861  0.7249 -0.4153
 4760TIP3    H235696   5.453   6.112  12.461 -0.1591 -1.6161  0.5237
 4761TIP3   OH235697   4.746   2.345   1.594 -0.0326  0.0133 -0.0250
 4761TIP3    H135698   4.680   2.365   1.660  0.4501 -0.7840  0.7142
 4761TIP3    H235699   4.803   2.422   1.594  0.5063 -0.3689  1.1682
 4762TIP3   OH235700   6.252   2.219   0.879 -0.4842  0.0657  0.5459
 4762TIP3    H135701   6.232   2.168   0.958 -0.1718 -1.2522 -0.1919
 4762TIP3    H235702   6.340   2.191   0.854 -1.1318 -0.6426 -1.0816
 4763TIP3   OH235703   2.355   4.670  16.819  0.1558  0.0912 -0.1256
 4763TIP3    H135704   2.400   4.754  16.826  0.3637 -0.0704  0.4837
 4763TIP3    H235705   2.424   4.605  16.808  0.0585 -0.1092  0.3912
 4764TIP3   OH235706   5.039   0.720  11.502 -1.0663 -0.2303  0.2656
 4764TIP3    H135707   5.094   0.790  11.537 -0.7141 -0.2715 -0.2013
 4764TIP3    H235708   4.954   0.732  11.546 -0.9267  0.3202  0.3899
 4765TIP3   OH235709   4.017   5.794   3.225  0.1383 -0.1193 -0.2467
 4765TIP3    H135710   4.014   5.889   3.215  0.5473 -0.0638  0.1327
 4765TIP3    H235711   4.085   5.766   3.164  0.4619 -0.1001  0.1016
 4766TIP3   OH235712   1.597   2.929   2.034 -0.4904  0.2047 -0.4222
 4766TIP3    H135713   1.657   2.987   2.082 -1.4670  1.2652 -0.4337
 4766TIP3    H235714   1.649   2.851   2.016  0.7445  0.8983 -0.0272
 4767TIP3   OH235715   6.404   5.879   4.893  0.4026 -0.2606 -0.5023
 4767TIP3    H135716   6.453   5.807   4.933 -0.3504 -0.0210  0.9166
 4767TIP3    H235717   6.363   5.840   4.815 -0.9950 -1.7383  0.8882
 4768TIP3   OH235718   1.804   0.508  13.848 -0.7727  0.1502  0.3013
 4768TIP3    H135719   1.799   0.421  13.889  0.9622  0.7689  1.9902
 4768TIP3    H235720   1.718   0.547  13.863 -1.8025 -1.4680 -1.0493
 4769TIP3   OH235721   5.959   6.725   3.009  0.2342 -0.4589 -0.2179
 4769TIP3    H135722   5.954   6.776   3.090  1.9684 -0.8117  0.1500
 4769TIP3    H235723   6.038   6.671   3.019  1.6756  0.9264 -2.9403
 4770TIP3   OH235724   4.744   3.951  14.054  0.0660  0.3985  0.0050
 4770TIP3    H135725   4.740   3.983  13.964 -0.3579 -1.2708 -0.6024
 4770TIP3    H235726   4.682   3.879  14.057  1.8912 -1.2172  0.9608
 4771TIP3   OH235727   1.694   6.038   4.949 -0.1718  0.1068  0.7590
 4771TIP3    H135728   1.608   6.044   4.907  1.3395  2.6276 -2.5265
 4771TIP3    H235729   1.694   6.108   5.014 -0.2420  1.0006 -0.1685
 4772TIP3   OH235730   1.450   3.415   1.577  0.5948 -0.6402  0.1874
 4772TIP3    H135731   1.399   3.456   1.507  0.4305 -0.8213  0.2025
 4772TIP3    H235732   1.536   3.399   1.537  0.9101  0.3976  0.3979
 4773TIP3   OH235733   3.745   4.323  16.607 -0.1007  0.3792  0.0943
 4773TIP3    H135734   3.677   4.283  16.553  0.1253  0.9595 -0.6362
 4773TIP3    H235735   3.703   4.401  16.645  0.6020  1.7108 -1.7108
 4774TIP3   OH235736   5.628   3.018   2.108 -0.1471 -0.0368 -0.1790
 4774TIP3    H135737   5.606   3.111   2.116 -1.9134 -0.5229  1.4486
 4774TIP3    H235738   5.545   2.973   2.126  1.3263 -1.9842  2.3827
 4775TIP3   OH235739   1.276   3.174  12.781  0.3851 -0.0486  0.4437
 4775TIP3    H135740   1.352   3.221  12.816  0.8558 -0.1097 -0.4626
 4775TIP3    H235741   1.301   3.152  12.691 -0.4670 -0.6155  0.3354
 4776TIP3   OH235742   0.109   2.471   2.102 -0.1373 -0.0228 -0.0796
 4776TIP3    H135743   0.124   2.385   2.063 -2.6117 -1.7396  2.3638
 4776TIP3    H235744   0.041   2.511   2.049  1.0665  0.5559 -1.2616
 4777TIP3   OH235745   3.486   6.245  11.694 -0.3703 -0.1026  0.1455
 4777TIP3    H135746   3.519   6.181  11.757 -0.9503 -0.7829 -0.2239
 4777TIP3    H235747   3.456   6.193  11.619 -2.8557  0.3722  0.6985
 4778TIP3   OH235748   4.234   1.747   2.355  0.1949 -0.7110 -0.2645
 4778TIP3    H135749   4.320   1.745   2.312  1.1803 -0.1356  1.5616
 4778TIP3    H235750   4.195   1.829   2.325  1.5226  0.4621  1.0364
 4779TIP3   OH235751   3.196   4.723   3.236 -0.2878  1.0241 -0.0486
 4779TIP3    H135752   3.284   4.723   3.198 -0.7327  0.7646 -1.0856
 4779TIP3    H235753   3.159   4.808   3.213 -1.1468  0.2579 -1.6085
 4780TIP3   OH235754   1.807   1.050  15.034 -0.0512  0.0280  0.4632
 4780TIP3    H135755   1.877   0.994  15.067  0.1794  0.2932  0.4204
 4780TIP3    H235756   1.851   1.127  14.999 -0.1605 -0.8459 -1.7660
 4781TIP3   OH235757   5.540   1.700  13.704 -0.6035  0.2537  0.2775
 4781TIP3    H135758   5.572   1.636  13.767  1.0094 -0.1078 -0.8483
 4781TIP3    H235759   5.576   1.783  13.734  2.5633 -0.2940 -1.5771
 4782TIP3   OH235760   2.611   4.839  13.932  0.5997 -0.4625  0.5074
 4782TIP3    H135761   2.592   4.765  13.875  0.0058  1.1193 -1.4956
 4782TIP3    H235762   2.685   4.883  13.890 -0.3763  1.2064  0.4440
 4783TIP3   OH235763   0.223   0.663  16.056 -0.4183 -0.1349  0.3648
 4783TIP3    H135764   0.287   0.618  16.111  1.6091  0.7894 -1.1189
 4783TIP3    H235765   0.139   0.624  16.081  0.8019 -2.1192  1.6927
 4784TIP3   OH235766   4.244   1.692  12.865 -0.0413  0.2449  0.2757
 4784TIP3    H135767   4.197   1.713  12.783 -0.3302 -0.7204  0.1897
 4784TIP3    H235768   4.174   1.666  12.925  0.3312 -0.7438  0.2919
 4785TIP3   OH235769   2.215   1.148   3.636  0.9520 -0.3976 -0.3161
 4785TIP3    H135770   2.271   1.139   3.713 -1.5822  0.0783  1.7142
 4785TIP3    H235771   2.262   1.100   3.568  1.5610 -4.4394  2.5145
 4786TIP3   OH235772   5.919   5.920  17.123  0.3040 -0.0385  0.1529
 4786TIP3    H135773   5.859   5.985  17.087  0.0790 -0.0561  0.5025
 4786TIP3    H235774   5.949   5.871  17.046  1.3835  1.2220 -0.2676
 4787TIP3   OH235775   4.965   1.790   2.257 -0.2003  0.3984 -0.0529
 4787TIP3    H135776   4.961   1.809   2.351  1.8967  1.8539 -0.1841
 4787TIP3    H235777   4.930   1.701   2.249 -1.7778  0.7904  1.8879
 4788TIP3   OH235778   4.539   6.011   4.696 -0.2777  0.4861 -0.2143
 4788TIP3    H135779   4.546   5.917   4.676  0.5505  0.8341 -1.7594
 4788TIP3    H235780   4.609   6.027   4.759 -1.0078 -0.0789  0.7802
 4789TIP3   OH235781   5.694   4.895   4.544 -0.0975  0.6126  0.4826
 4789TIP3    H135782   5.651   4.960   4.601  1.2790  3.5643 -1.5693
 4789TIP3    H235783   5.779   4.935   4.523  0.3124 -1.3014 -1.9087
 4790TIP3   OH235784   1.332   6.390  11.583  0.1271  0.1143 -0.1914
 4790TIP3    H135785   1.244   6.414  11.554  0.3858 -0.4360 -1.5342
 4790TIP3    H235786   1.370   6.470  11.617 -0.6902  0.4897 -0.1519
 4791TIP3   OH235787   3.768   0.272   3.453  0.3194  0.3640  0.0424
 4791TIP3    H135788   3.768   0.178   3.435 -0.7337  0.4903 -0.7359
 4791TIP3    H235789   3.860   0.295   3.460  0.7936 -0.1977 -2.8488
 4792TIP3   OH235790   6.525   0.272  15.262  0.4301  0.5765  0.1461
 4792TIP3    H135791   6.507   0.213  15.189  1.4811  2.4883 -1.8232
 4792TIP3    H235792   6.441   0.314  15.280  0.5412  1.6435 -1.5387
 4793TIP3   OH235793   0.349   6.521   4.893  0.5637  0.4032  0.0408
 4793TIP3    H135794   0.374   6.486   4.978 -1.2119  0.6798  0.7180
 4793TIP3    H235795   0.423   6.500   4.836 -0.4312 -4.9475  0.1924
 4794TIP3   OH235796   0.504   2.819   4.358  0.0723 -0.5089  0.5556
 4794TIP3    H135797   0.536   2.730   4.371  0.4887 -0.6349 -1.1658
 4794TIP3    H235798   0.583   2.872   4.351 -0.1154 -0.3583 -0.6326
 4795TIP3   OH235799   1.419   3.635   4.068 -0.3562  0.1531  0.4491
 4795TIP3    H135800   1.391   3.642   3.977  1.0359 -0.7716 -0.0885
 4795TIP3    H235801   1.413   3.541   4.088  1.0649  0.0775  0.6857
 4796TIP3   OH235802   3.315   3.260   0.649  0.2309  0.4086 -0.8865
 4796TIP3    H135803   3.331   3.250   0.556 -0.2210 -0.1646 -0.9098
 4796TIP3    H235804   3.375   3.197   0.691 -0.5752 -0.3807 -0.8776
 4797TIP3   OH235805   0.896   0.872   1.911  0.6793 -0.5251 -0.2182
 4797TIP3    H135806   0.878   0.957   1.871 -0.1718  0.1449  1.4968
 4797TIP3    H235807   0.925   0.817   1.838 -1.2506  0.4980 -1.8628
 4798TIP3   OH235808   3.155   4.461  12.053 -0.3173 -0.0644 -0.2935
 4798TIP3    H135809   3.065   4.480  12.026  0.3378  0.6814 -2.0935
 4798TIP3    H235810   3.175   4.528  12.118 -0.4526  0.9436 -1.2671
 4799TIP3   OH235811   6.246   3.683   3.258 -0.0768 -0.0527 -0.3178
 4799TIP3    H135812   6.316   3.745   3.241  0.2661 -0.3231  0.1012
 4799TIP3    H235813   6.166   3.731   3.236  0.1291  0.8032  0.7130
 4800TIP3   OH235814   1.846   3.775  15.804  0.2327 -0.5820  0.1745
 4800TIP3    H135815   1.761   3.732  15.815 -0.8543  1.5229  0.3946
 4800TIP3    H235816   1.832   3.840  15.735  1.8805 -0.6781 -0.2991
 4801TIP3   OH235817   5.260   6.615   4.730 -0.0045 -0.2656  0.1174
 4801TIP3    H135818   5.186   6.616   4.670 -0.7208 -1.7501  0.9333
 4801TIP3    H235819   5.328   6.665   4.685 -1.2670  0.5686 -0.9285
 4802TIP3   OH235820   0.964   5.355  10.857 -0.0741  0.1561 -0.8493
 4802TIP3    H135821   1.042   5.314  10.819 -0.0295 -0.2790 -0.3153
 4802TIP3    H235822   0.998   5.401  10.935 -0.2015  0.8014 -1.1691
 4803TIP3   OH235823   3.578   2.985   4.235 -0.4701 -0.2664  0.0638
 4803TIP3    H135824   3.604   3.021   4.320  0.6916  0.9461 -0.7491
 4803TIP3    H235825   3.634   2.908   4.223  1.1017  0.9073 -0.5792
 4804TIP3   OH235826   1.210   3.588   2.548  0.6136 -0.0507 -0.2045
 4804TIP3    H135827   1.280   3.604   2.612  0.3956  0.2578 -0.0382
 4804TIP3    H235828   1.193   3.674   2.508  0.3391 -0.1228 -0.2509
 4805TIP3   OH235829   6.443   4.333  12.712 -0.2466  0.2940  0.2587
 4805TIP3    H135830   6.462   4.396  12.644  0.8465 -1.9428 -1.6386
 4805TIP3    H235831   6.493   4.363  12.788 -0.3656  2.0532 -0.3221
 4806TIP3   OH235832   3.591   5.127  15.609  0.6010  0.2971 -0.3353
 4806TIP3    H135833   3.652   5.073  15.558 -0.1253 -0.4824 -0.4018
 4806TIP3    H235834   3.583   5.082  15.693  0.0971  0.3673 -0.3416
 4807TIP3   OH235835   1.040   0.819   5.788 -0.0618  0.0925  0.3714
 4807TIP3    H135836   0.953   0.844   5.758  0.0784  0.2607  0.0886
 4807TIP3    H235837   1.054   0.871   5.867 -1.0884 -1.5692  1.7063
 4808TIP3   OH235838   2.412   0.969  15.659 -0.2664 -0.3672 -0.2496
 4808TIP3    H135839   2.476   0.899  15.651 -1.3655 -1.2135 -2.3822
 4808TIP3    H235840   2.400   0.981  15.753  2.1354 -0.9570  0.1812
 4809TIP3   OH235841   5.576   2.090   0.308  0.3849 -0.8610  0.4180
 4809TIP3    H135842   5.539   2.036   0.237 -1.1141 -0.7764  1.1010
 4809TIP3    H235843   5.624   2.159   0.262 -1.7776  0.0552 -0.6133
 4810TIP3   OH235844   0.104   5.948   0.311 -0.7473 -0.0082 -0.0804
 4810TIP3    H135845   0.031   5.969   0.253 -0.5215 -1.0389 -0.7584
 4810TIP3    H235846   0.182   5.969   0.260 -0.5534 -0.5622 -0.0151
 4811TIP3   OH235847   1.698   1.032  15.332 -0.0697 -0.4278  0.1744
 4811TIP3    H135848   1.704   1.012  15.238  0.2264 -0.7665  0.2617
 4811TIP3    H235849   1.606   1.017  15.354 -0.1053 -0.5059 -0.0247
 4812TIP3   OH235850   4.187   2.598   6.455  0.6257  0.1634  0.0552
 4812TIP3    H135851   4.103   2.641   6.438  0.4326  1.0636  2.7305
 4812TIP3    H235852   4.180   2.514   6.411 -2.9628 -1.0428  2.4385
 4813TIP3   OH235853   4.022   1.563  14.088  0.4700  0.1804  0.1254
 4813TIP3    H135854   3.968   1.596  14.016  0.6454  2.0397  0.8024
 4813TIP3    H235855   4.056   1.641  14.131  0.8507 -0.8890  1.8868
 4814TIP3   OH235856   4.196   1.163  17.146 -0.1805 -0.0397  0.0033
 4814TIP3    H135857   4.216   1.130  17.234  2.6526  2.5699  0.4939
 4814TIP3    H235858   4.273   1.141  17.094  0.2222  2.4588 -0.5645
 4815TIP3   OH235859   6.573   5.125   3.370 -0.1950  0.0519  0.5128
 4815TIP3    H135860   6.543   5.215   3.387 -2.8039 -0.8029  0.8365
 4815TIP3    H235861   6.600   5.093   3.456  1.3666  0.6634  0.2972
 4816TIP3   OH235862   6.498   0.525  12.480 -0.1851 -0.4102 -0.4324
 4816TIP3    H135863   6.550   0.460  12.433  1.9142  0.2241  0.8947
 4816TIP3    H235864   6.544   0.537  12.563 -1.7907  1.1259  0.2996
 4817TIP3   OH235865   1.030   2.987   0.767 -0.1849 -0.0316 -0.3404
 4817TIP3    H135866   1.093   3.031   0.710 -1.0505 -0.0698 -1.3672
 4817TIP3    H235867   1.041   2.894   0.748  1.4111 -0.3266  1.5882
 4818TIP3   OH235868   0.350   2.257  15.886 -0.1796 -0.4285 -0.2255
 4818TIP3    H135869   0.362   2.162  15.881  0.6997 -0.2717 -1.4866
 4818TIP3    H235870   0.431   2.293  15.850 -1.1521  0.7846 -1.2815
 4819TIP3   OH235871   2.474   1.995  12.885  0.6033 -0.0679 -0.2417
 4819TIP3    H135872   2.457   2.088  12.896  1.5283 -0.0790  1.8090
 4819TIP3    H235873   2.387   1.954  12.881  0.1968  0.8468 -1.1725
 4820TIP3   OH235874   1.371   6.201  11.132  0.3766  0.4223 -0.9472
 4820TIP3    H135875   1.359   6.296  11.139  0.3269  0.3718 -0.3143
 4820TIP3    H235876   1.394   6.187  11.040 -0.0459  0.9968 -1.1455
 4821TIP3   OH235877   3.618   3.137   2.775 -0.5010 -0.0921  0.0953
 4821TIP3    H135878   3.710   3.144   2.800 -0.1324 -1.1884 -0.9083
 4821TIP3    H235879   3.584   3.064   2.827 -0.0782 -1.4849 -1.5000
 4822TIP3   OH235880   6.008   3.767   3.494 -0.0580 -0.0646  0.3439
 4822TIP3    H135881   5.932   3.824   3.486 -0.0723 -0.0025  0.9022
 4822TIP3    H235882   6.076   3.810   3.441 -0.9750 -1.1573 -1.8546
 4823TIP3   OH235883   5.658   0.310  11.000  0.3557 -0.2195 -0.6182
 4823TIP3    H135884   5.631   0.339  10.913  0.7422 -3.7658 -2.0733
 4823TIP3    H235885   5.728   0.370  11.025 -0.7484  1.7628 -2.0577
 4824TIP3   OH235886   4.299   1.145  16.480  0.3156  0.3155  0.1037
 4824TIP3    H135887   4.311   1.239  16.464 -0.8796  0.5504  0.4884
 4824TIP3    H235888   4.259   1.140  16.566  2.5817 -0.7052  1.1766
 4825TIP3   OH235889   3.515   0.677   3.246 -0.4033 -0.0729  0.4831
 4825TIP3    H135890   3.439   0.672   3.189 -0.6632 -1.0126  0.8926
 4825TIP3    H235891   3.490   0.739   3.315 -1.5910 -1.8403  1.7285
 4826TIP3   OH235892   3.191   2.124  14.380  0.1934 -0.1251  0.3640
 4826TIP3    H135893   3.159   2.212  14.362 -1.9826 -0.7338  0.9344
 4826TIP3    H235894   3.206   2.122  14.474 -1.2631 -0.7781  0.6073
 4827TIP3   OH235895   1.071   4.305  13.717 -0.3125 -0.7361  0.2435
 4827TIP3    H135896   1.060   4.237  13.651  0.0450 -1.2747  0.7414
 4827TIP3    H235897   1.137   4.271  13.777  0.5945  0.4498 -0.0431
 4828TIP3   OH235898   2.597   1.872  16.763  0.2797 -0.1145 -0.1412
 4828TIP3    H135899   2.536   1.938  16.797 -1.3847 -1.2284 -0.8078
 4828TIP3    H235900   2.578   1.793  16.814  2.3803 -0.0715  0.7804
 4829TIP3   OH235901   4.077   5.816  15.042 -0.9159 -0.4491  0.0893
 4829TIP3    H135902   4.121   5.877  14.983 -1.4370  0.3998  0.5668
 4829TIP3    H235903   4.093   5.851  15.130 -1.4139 -0.8710  0.3527
 4830TIP3   OH235904   2.032   0.157   2.932  0.1276  0.1767  0.0974
 4830TIP3    H135905   1.975   0.125   2.862  0.1463 -0.3506  0.3149
 4830TIP3    H235906   2.009   0.249   2.942  0.2005  0.2849 -0.6778
 4831TIP3   OH235907   2.847   1.488  15.557 -0.1072 -0.6824  0.0553
 4831TIP3    H135908   2.828   1.395  15.572  2.2224 -1.3127 -0.5118
 4831TIP3    H235909   2.929   1.503  15.605 -0.0732  0.8948 -0.4676
 4832TIP3   OH235910   0.560   4.855   2.244  0.1725  0.5263  0.5420
 4832TIP3    H135911   0.584   4.874   2.335 -2.0907  1.6906  0.9461
 4832TIP3    H235912   0.541   4.941   2.206 -1.0768 -0.1435 -0.3771
 4833TIP3   OH235913   0.130   2.531  11.976 -0.0029 -0.2890  0.0112
 4833TIP3    H135914   0.189   2.582  11.922 -0.6668 -0.3900 -0.8364
 4833TIP3    H235915   0.182   2.506  12.053  1.2914 -1.0418 -1.0619
 4834TIP3   OH235916   4.127   6.618  16.249  0.0335  0.4862 -0.1117
 4834TIP3    H135917   4.194   6.580  16.193  1.1123  0.7905  0.9177
 4834TIP3    H235918   4.116   6.554  16.320  0.4190  1.1465  0.5671
 4835TIP3   OH235919   4.396   6.374  17.307 -0.6146 -0.3098 -0.7586
 4835TIP3    H135920   4.385   6.412  17.395 -0.2745 -0.9740 -0.4223
 4835TIP3    H235921   4.453   6.299  17.321 -1.4872 -1.1010 -1.3705
 4836TIP3   OH235922   5.684   0.468  12.689  0.1040 -0.0959 -0.1271
 4836TIP3    H135923   5.696   0.562  12.701 -0.1142  0.2989 -2.5251
 4836TIP3    H235924   5.771   0.430  12.702  0.7691  0.7973 -1.7316
 4837TIP3   OH235925   5.598   1.821  11.984 -0.4246 -0.0278  0.0508
 4837TIP3    H135926   5.536   1.797  11.914  0.3241 -0.3212 -0.5273
 4837TIP3    H235927   5.623   1.737  12.022 -0.3085  0.0839  0.2194
 4838TIP3   OH235928   2.263   3.786   1.380  0.2204  0.4680 -0.0922
 4838TIP3    H135929   2.333   3.818   1.325  0.2828  0.2405 -0.1466
 4838TIP3    H235930   2.182   3.812   1.335  0.1029  4.4029  1.9392
 4839TIP3   OH235931   3.270   5.887   0.237 -0.1083  0.1186  0.7035
 4839TIP3    H135932   3.235   5.976   0.239 -3.9464 -1.1918  0.4726
 4839TIP3    H235933   3.286   5.870   0.144 -1.4343 -0.0381  0.4714
 4840TIP3   OH235934   6.177   2.466   2.743 -0.4263 -0.0299  0.1764
 4840TIP3    H135935   6.210   2.519   2.816 -1.8822 -1.5100  2.0423
 4840TIP3    H235936   6.245   2.401   2.727 -1.1273 -1.3766  2.1559
 4841TIP3   OH235937   3.560   3.555   0.071 -0.3333 -0.5745  0.0002
 4841TIP3    H135938   3.485   3.580   0.016 -0.1600  0.4104  0.1944
 4841TIP3    H235939   3.613   3.499   0.015 -1.6216 -1.9771  0.1310
 4842TIP3   OH235940   4.526   0.641   4.306 -0.5436 -0.1551  0.6032
 4842TIP3    H135941   4.567   0.558   4.330  0.4584  0.4310  0.9900
 4842TIP3    H235942   4.473   0.620   4.229 -1.4784 -1.4560  1.5545
 4843TIP3   OH235943   5.417   3.749  13.765 -0.3636 -0.1908  0.2807
 4843TIP3    H135944   5.358   3.674  13.751 -1.9882  1.2649 -1.1301
 4843TIP3    H235945   5.373   3.801  13.832  0.7343 -0.4446  1.2180
 4844TIP3   OH235946   5.326   4.557  17.005 -0.2073  0.5329  0.1174
 4844TIP3    H135947   5.393   4.571  16.938 -0.2593  1.2425  0.2071
 4844TIP3    H235948   5.297   4.466  16.992  1.6853 -0.2233  0.9126
 4845TIP3   OH235949   0.170   5.097   3.474 -0.0289 -0.2203  0.3516
 4845TIP3    H135950   0.105   5.053   3.529 -1.9092  0.0382 -1.5596
 4845TIP3    H235951   0.140   5.188   3.469  1.2311  0.2261  0.4762
 4846TIP3   OH235952   3.515   0.206   2.573 -0.0555 -0.2988 -0.0926
 4846TIP3    H135953   3.510   0.261   2.496  1.3206 -0.7656 -0.5270
 4846TIP3    H235954   3.505   0.267   2.647  1.7051  0.6057 -0.5440
 4847TIP3   OH235955   6.474   2.241  15.055  0.3392 -0.0488  0.1521
 4847TIP3    H135956   6.468   2.158  15.008  0.1028  0.1563 -0.1759
 4847TIP3    H235957   6.542   2.290  15.009 -2.8199  1.9822 -2.8337
 4848TIP3   OH235958   3.259   5.001  15.096  0.9619  0.3559 -0.2644
 4848TIP3    H135959   3.200   5.069  15.128 -0.7659 -0.1903 -2.1071
 4848TIP3    H235960   3.267   4.939  15.169 -1.3731  0.0672 -0.1976
 4849TIP3   OH235961   0.109   5.387   3.478  0.4556  0.3487  0.2001
 4849TIP3    H135962   0.128   5.402   3.385  0.2117  2.8113  0.4692
 4849TIP3    H235963   0.034   5.444   3.496 -2.1992 -3.0918  1.0465
 4850TIP3   OH235964   4.571   1.095  12.984  0.4425  1.1557 -0.1395
 4850TIP3    H135965   4.570   1.100  12.888 -0.7623  0.3914 -0.1824
 4850TIP3    H235966   4.664   1.094  13.007  0.7728  3.2823 -1.1687
 4851TIP3   OH235967   1.529   1.746   4.179  0.5708  0.2023  0.6026
 4851TIP3    H135968   1.438   1.776   4.168 -1.4182 -5.0043 -0.1727
 4851TIP3    H235969   1.530   1.706   4.266  2.4537  0.9295  0.9449
 4852TIP3   OH235970   1.396   1.354   2.909 -0.0625  0.1303 -0.0471
 4852TIP3    H135971   1.442   1.354   2.993 -1.0935  1.0251  0.5501
 4852TIP3    H235972   1.447   1.413   2.854  2.0335 -2.3272 -0.9332
 4853TIP3   OH235973   1.396   3.620  13.525 -0.3140  0.4960  0.4557
 4853TIP3    H135974   1.404   3.625  13.620  0.0877 -1.1728  0.5260
 4853TIP3    H235975   1.308   3.586  13.510 -0.1453  0.1425  0.2575
 4854TIP3   OH235976   6.590   6.092   4.775  0.4356  0.0546  0.0546
 4854TIP3    H135977   6.534   6.025   4.815  0.2536  0.4052  0.4054
 4854TIP3    H235978   6.620   6.053   4.693 -1.4018  0.3468 -0.8069
 4855TIP3   OH235979   5.714   5.507   4.315 -0.3971  0.5466  0.3991
 4855TIP3    H135980   5.659   5.447   4.266  0.5342 -0.6946  0.8120
 4855TIP3    H235981   5.742   5.572   4.250  0.6615 -0.9552 -0.7197
 4856TIP3   OH235982   3.251   1.673  12.472 -0.0418 -0.1891  0.5043
 4856TIP3    H135983   3.282   1.586  12.447 -0.4925 -0.1845 -0.1152
 4856TIP3    H235984   3.319   1.733  12.443  0.2201 -0.3261  0.8342
 4857TIP3   OH235985   0.246   6.152  13.697  0.7372  0.2836  0.4401
 4857TIP3    H135986   0.195   6.206  13.637 -0.3822 -0.4042  0.7390
 4857TIP3    H235987   0.314   6.112  13.643 -1.2000 -1.6007 -0.7918
 4858TIP3   OH235988   4.563   3.201   4.347 -0.3157  0.3829  0.0383
 4858TIP3    H135989   4.652   3.228   4.371  0.6403 -2.5126  0.1131
 4858TIP3    H235990   4.575   3.143   4.272 -2.3594  1.4025 -1.1410
 4859TIP3   OH235991   3.110   1.377  14.450  0.4068  0.3036 -0.3133
 4859TIP3    H135992   3.110   1.460  14.401  0.8770  0.1931 -0.5148
 4859TIP3    H235993   3.062   1.316  14.394 -2.1537  1.0470  0.9529
 4860TIP3   OH235994   2.021   5.171  15.065  0.5481 -0.4732 -0.1825
 4860TIP3    H135995   2.099   5.175  15.011  1.0822  0.2360  0.6235
 4860TIP3    H235996   2.054   5.163  15.155 -0.2083  2.2018  0.4118
 4861TIP3   OH235997   6.317   0.061   0.824  1.0378  0.0837  0.2682
 4861TIP3    H135998   6.364   0.082   0.904  0.8164 -0.0231  0.4281
 4861TIP3    H235999   6.372  -0.004   0.780  1.4330  0.5580  0.0575
 4862TIP3   OH236000   5.655   5.418  12.348  0.1492 -0.3284  1.3450
 4862TIP3    H136001   5.616   5.334  12.328 -0.9205  0.2612  0.8840
 4862TIP3    H236002   5.726   5.427  12.284 -2.1668  0.7788 -1.2873
 4863TIP3   OH236003   0.797   1.818  13.165 -0.6086 -0.5577 -0.0351
 4863TIP3    H136004   0.889   1.842  13.160  0.3013 -3.0907  2.2522
 4863TIP3    H236005   0.750   1.898  13.139  2.1575  1.9091  1.8866
 4864TIP3   OH236006   0.103   3.816   0.631 -0.0137 -0.2299 -0.3614
 4864TIP3    H136007   0.018   3.854   0.610  0.9641  2.0779 -0.4109
 4864TIP3    H236008   0.128   3.856   0.714  1.6042  0.2009 -1.0102
 4865TIP3   OH236009   0.937   3.837   5.696  0.2377 -0.2126  0.1532
 4865TIP3    H136010   0.984   3.913   5.730  0.5539  0.2276 -1.1676
 4865TIP3    H236011   0.847   3.867   5.686  0.0279 -0.5115  1.0719
 4866TIP3   OH236012   6.656   6.469   0.286 -0.4637 -0.5650  0.1618
 4866TIP3    H136013   6.742   6.445   0.320 -1.0646 -2.1633  0.6450
 4866TIP3    H236014   6.660   6.448   0.192 -0.4164 -0.9315  0.2444
 4867TIP3   OH236015   3.779   3.632  15.124 -0.5334  0.3441 -0.2407
 4867TIP3    H136016   3.722   3.704  15.149 -0.6301  0.3806 -0.5541
 4867TIP3    H236017   3.850   3.674  15.075 -0.1218  0.3233  0.3322
 4868TIP3   OH236018   3.368   3.644  17.413  0.6613 -0.4928 -0.2425
 4868TIP3    H136019   3.321   3.611  17.489  1.7835 -1.2418  0.1490
 4868TIP3    H236020   3.352   3.580  17.344  1.3554 -0.9309 -0.0107
 4869TIP3   OH236021   1.349   3.155  14.949 -0.2603  0.2266  0.2858
 4869TIP3    H136022   1.311   3.137  14.862 -2.4934  5.3143 -0.1831
 4869TIP3    H236023   1.443   3.143  14.937 -0.7103 -2.0393 -1.9224
 4870TIP3   OH236024   1.198   1.557   2.273  0.2593  0.3997  0.2705
 4870TIP3    H136025   1.245   1.640   2.263  0.6209  0.1565 -0.1234
 4870TIP3    H236026   1.225   1.524   2.359  0.4315  0.4952  0.2538
 4871TIP3   OH236027   5.208   6.291  16.078 -0.7167  0.1294 -0.6722
 4871TIP3    H136028   5.267   6.309  16.150  1.6723  1.9155 -2.8890
 4871TIP3    H236029   5.183   6.199  16.089  0.8289 -0.0986  1.4749
 4872TIP3   OH236030   2.649   1.830   3.174  0.0515  0.3866 -0.5688
 4872TIP3    H136031   2.697   1.786   3.105  4.4579  0.9984  1.7270
 4872TIP3    H236032   2.679   1.921   3.170 -0.5371  0.7139  1.3517
 4873TIP3   OH236033   0.542   5.133  14.384  0.0545  0.1518  0.3919
 4873TIP3    H136034   0.533   5.228  14.388 -1.5929 -0.0151  1.5296
 4873TIP3    H236035   0.525   5.111  14.292  0.8783  0.9614  0.0247
 4874TIP3   OH236036   0.982   1.582   5.510 -0.2291  0.0284 -0.3512
 4874TIP3    H136037   0.896   1.555   5.541 -0.3870  1.7014  0.8072
 4874TIP3    H236038   1.043   1.547   5.575 -0.1137 -0.4078 -0.6927
 4875TIP3   OH236039   4.113   3.075  15.626 -0.2900 -0.0674 -0.4898
 4875TIP3    H136040   4.073   2.996  15.590  0.0136 -0.7271  0.5744
 4875TIP3    H236041   4.098   3.069  15.720 -1.1266  1.6436 -0.4745
 4876TIP3   OH236042   2.017   0.743  16.719 -0.4309  0.1685  0.3864
 4876TIP3    H136043   2.019   0.722  16.812 -2.4438 -0.5749  0.3116
 4876TIP3    H236044   2.104   0.717  16.687 -0.4376 -1.6302  1.6580
 4877TIP3   OH236045   6.092   2.269   1.465 -0.3466 -0.3060  0.4616
 4877TIP3    H136046   6.130   2.288   1.550 -0.0401  0.7664  0.0998
 4877TIP3    H236047   6.034   2.343   1.448  1.9527  1.1373 -1.6368
 4878TIP3   OH236048   3.381   3.982  12.127 -0.3814 -0.2077 -0.8839
 4878TIP3    H136049   3.343   4.068  12.110  1.1010  0.1384 -2.7933
 4878TIP3    H236050   3.442   3.996  12.199  1.5907  0.9594 -2.6632
 4879TIP3   OH236051   1.238   0.508   1.772  0.1146  0.1890  0.0207
 4879TIP3    H136052   1.214   0.495   1.864  0.0522  1.0176  0.1294
 4879TIP3    H236053   1.219   0.424   1.730 -1.7142  0.3782  0.3694
 4880TIP3   OH236054   4.803   1.875   3.291 -0.1939 -0.5170  0.2236
 4880TIP3    H136055   4.886   1.828   3.298 -0.3917 -1.2594 -1.7407
 4880TIP3    H236056   4.743   1.826   3.347  0.6376 -0.0278  1.5823
 4881TIP3   OH236057   5.736   2.623  15.046  0.3765 -0.8776 -0.3800
 4881TIP3    H136058   5.644   2.606  15.026  0.3802 -1.3344 -0.0233
 4881TIP3    H236059   5.734   2.698  15.106  0.3157 -0.0867 -1.3389
 4882TIP3   OH236060   5.127   2.820   1.322 -0.0027  0.0873  0.1046
 4882TIP3    H136061   5.086   2.741   1.360 -0.0090  0.3098  0.5668
 4882TIP3    H236062   5.154   2.793   1.234 -1.6921  0.0996 -0.4615
 4883TIP3   OH236063   3.254   5.491   1.122 -0.0019  0.0455  0.3098
 4883TIP3    H136064   3.255   5.405   1.079 -0.7765  0.4860 -0.6267
 4883TIP3    H236065   3.229   5.472   1.212  1.0667 -0.8405  0.4333
 4884TIP3   OH236066   4.320   1.864  11.442  0.3042  0.0724  0.1774
 4884TIP3    H136067   4.413   1.841  11.440 -0.0874 -1.5719 -0.3940
 4884TIP3    H236068   4.300   1.889  11.352  0.0612 -0.0855  0.1887
 4885TIP3   OH236069   0.357   5.092   5.856 -0.7611 -0.9421 -0.1725
 4885TIP3    H136070   0.266   5.100   5.886 -0.5015 -0.9268  0.6428
 4885TIP3    H236071   0.369   4.997   5.844 -0.3968 -1.1131  1.3529
 4886TIP3   OH236072   1.746   3.993   3.794  0.5987  0.6414 -0.3140
 4886TIP3    H136073   1.761   4.067   3.853 -0.0057  0.9703 -0.5724
 4886TIP3    H236074   1.743   4.032   3.707  0.1895  0.3248 -0.4411
 4887TIP3   OH236075   0.015   0.543  12.245  0.2268 -0.0960 -0.1941
 4887TIP3    H136076  -0.027   0.518  12.163 -0.5447 -0.9689  0.4462
 4887TIP3    H236077   0.097   0.493  12.247 -0.4549 -1.2395  0.2340
 4888TIP3   OH236078   1.435   1.944  14.428  0.6528 -0.5130 -0.5724
 4888TIP3    H136079   1.339   1.948  14.419  0.7482  0.1189 -1.4890
 4888TIP3    H236080   1.449   1.911  14.517 -0.4166 -0.4684 -0.3674
 4889TIP3   OH236081   4.671   1.625  14.667  0.2447  0.7071  0.3437
 4889TIP3    H136082   4.618   1.574  14.606  0.3335  0.0819  0.7787
 4889TIP3    H236083   4.610   1.685  14.708  0.1287  0.9220 -0.1363
 4890TIP3   OH236084   3.666   0.562  11.521 -0.4868 -0.5745 -0.0778
 4890TIP3    H136085   3.747   0.525  11.557 -0.3151 -1.0301 -0.8947
 4890TIP3    H236086   3.691   0.650  11.493 -0.6041 -0.2461  0.8354
 4891TIP3   OH236087   0.139   5.164  13.746  0.0803  0.4587  0.3947
 4891TIP3    H136088   0.160   5.170  13.653  0.9570  0.1716  0.5602
 4891TIP3    H236089   0.081   5.088  13.753 -0.1504  0.6024  0.0612
 4892TIP3   OH236090   0.014   4.559  12.846 -0.0576 -0.2365  0.0282
 4892TIP3    H136091   0.032   4.541  12.938 -0.1567  0.4963  0.1926
 4892TIP3    H236092  -0.082   4.567  12.841  0.0867  3.1499  0.5391
 4893TIP3   OH236093   1.768   4.919   6.166 -0.2494  0.0122 -0.5717
 4893TIP3    H136094   1.783   4.854   6.098 -1.2517  0.0713 -0.8620
 4893TIP3    H236095   1.779   4.870   6.248  2.0084  0.1804 -0.7232
 4894TIP3   OH236096   1.070   6.544  16.003 -0.3515 -0.2438 -0.0484
 4894TIP3    H136097   1.150   6.533  15.952  0.1120 -1.7563  0.9591
 4894TIP3    H236098   1.070   6.637  16.027  1.6861 -0.4246  0.8536
 4895TIP3   OH236099   1.068   6.715   5.484 -0.4399 -0.1587 -0.3000
 4895TIP3    H136100   1.065   6.680   5.395  1.6852  1.9805 -1.3097
 4895TIP3    H236101   1.152   6.687   5.519 -0.8138 -0.1044  0.6935
 4896TIP3   OH236102   4.691   1.224  15.943 -0.2080  0.0854 -0.2292
 4896TIP3    H136103   4.755   1.266  15.885  1.4859 -0.9932  0.7728
 4896TIP3    H236104   4.733   1.223  16.029 -1.5088 -0.8087  0.4341
 4897TIP3   OH236105   4.421   0.394   4.761  0.3894 -0.5302  0.8085
 4897TIP3    H136106   4.338   0.418   4.720  1.6949  1.4731 -0.8794
 4897TIP3    H236107   4.423   0.443   4.844  0.2267  0.1010  0.4449
 4898TIP3   OH236108   2.771   2.464   4.305 -0.3236 -0.2799 -0.1965
 4898TIP3    H136109   2.700   2.524   4.328 -0.5702 -0.7616  0.3275
 4898TIP3    H236110   2.772   2.464   4.210 -2.3206 -1.7463 -0.2742
 4899TIP3   OH236111   3.863   6.402  12.443 -0.1110  0.0591  0.0285
 4899TIP3    H136112   3.870   6.315  12.403  1.0535  0.5727 -0.9923
 4899TIP3    H236113   3.941   6.409  12.498 -0.3150  0.3753  0.2781
 4900TIP3   OH236114   2.204   2.240  16.816  0.1617  0.1307  0.1986
 4900TIP3    H136115   2.168   2.305  16.877  0.7510  0.3310  0.3447
 4900TIP3    H236116   2.167   2.263  16.731  0.7335  0.9557  0.1658
 4901TIP3   OH236117   0.541   1.560  12.213 -1.2630 -0.4935 -0.1742
 4901TIP3    H136118   0.569   1.562  12.305 -0.7357 -0.1684 -0.3378
 4901TIP3    H236119   0.595   1.492  12.173 -0.8256  0.0092 -0.4505
 4902TIP3   OH236120   2.029   6.049  12.713 -0.1637 -0.2242 -0.0153
 4902TIP3    H136121   2.115   6.061  12.752 -0.2123 -1.3213  0.4667
 4902TIP3    H236122   2.043   5.987  12.642 -0.4882 -0.0999 -0.1901
 4903TIP3   OH236123   4.282   6.495  11.832  0.0825 -0.1635  0.0070
 4903TIP3    H136124   4.343   6.554  11.787 -0.5862 -0.1442 -0.9126
 4903TIP3    H236125   4.268   6.423  11.770  1.1043 -1.4734  1.2194
 4904TIP3   OH236126   3.111   3.772  12.604 -0.4140 -0.1479  0.1982
 4904TIP3    H136127   3.136   3.708  12.537  3.7735  0.5013  0.8825
 4904TIP3    H236128   3.152   3.740  12.684 -0.9443  1.7530  1.2815
 4905TIP3   OH236129   4.430   6.432  14.309  0.2455 -0.5628  0.1019
 4905TIP3    H136130   4.421   6.526  14.301  1.6003 -0.4468 -0.3697
 4905TIP3    H236131   4.512   6.419  14.357  0.3406 -1.4874 -0.2740
 4906TIP3   OH236132   0.336   4.418   3.707 -0.0705 -0.9261  0.9939
 4906TIP3    H136133   0.285   4.478   3.653 -0.3260 -2.0227 -0.0122
 4906TIP3    H236134   0.306   4.435   3.797 -1.1931 -0.5668  0.5652
 4907TIP3   OH236135   0.146   0.260   5.498 -0.4525  0.1349 -0.1050
 4907TIP3    H136136   0.231   0.241   5.537 -0.7268 -0.6030  0.1506
 4907TIP3    H236137   0.148   0.355   5.482 -0.2800  0.4541  1.6052
 4908TIP3   OH236138   6.657   3.976  11.107  0.1671 -0.3928  0.3833
 4908TIP3    H136139   6.575   3.934  11.084  0.4243 -1.3190  1.1092
 4908TIP3    H236140   6.636   4.069  11.114 -0.5052 -0.4408 -0.7890
 4909TIP3   OH236141   5.567   1.863   5.536  0.1332 -0.0820 -0.4434
 4909TIP3    H136142   5.498   1.908   5.584  0.2603 -0.0757 -0.2655
 4909TIP3    H236143   5.605   1.930   5.479  1.2710  0.4031  0.8459
 4910TIP3   OH236144   2.847   3.269   4.924 -0.4294 -0.0273  0.0971
 4910TIP3    H136145   2.853   3.320   4.843  0.5069  2.9465  1.8851
 4910TIP3    H236146   2.928   3.217   4.925 -0.8635 -0.7844 -1.2345
 4911TIP3   OH236147   0.982   5.206   0.826  0.2534  0.1846 -0.4211
 4911TIP3    H136148   0.900   5.192   0.778  0.8144 -2.1650 -0.8009
 4911TIP3    H236149   0.956   5.202   0.918  0.0187 -1.6388 -0.5185
 4912TIP3   OH236150   6.363   4.090   5.262  0.4897  0.2992 -0.0944
 4912TIP3    H136151   6.436   4.089   5.200 -0.2294 -1.1809 -0.9792
 4912TIP3    H236152   6.323   4.176   5.251  0.1956 -0.0305 -1.9458
 4913TIP3   OH236153   5.584   4.926  14.304  0.0050 -0.7552 -0.6966
 4913TIP3    H136154   5.661   4.889  14.347 -1.7764 -2.2120  1.4697
 4913TIP3    H236155   5.515   4.924  14.371 -1.0196  4.1992 -1.2120
 4914TIP3   OH236156   1.798   5.361  17.438  0.3219  0.2065 -0.1422
 4914TIP3    H136157   1.742   5.289  17.467 -0.5562 -0.5060 -3.2804
 4914TIP3    H236158   1.887   5.326  17.441  0.2789  0.1421  1.3948
 4915TIP3   OH236159   2.505   6.194  14.176  0.0526 -0.2207  0.3519
 4915TIP3    H136160   2.482   6.107  14.208 -0.1771 -0.3469 -0.1570
 4915TIP3    H236161   2.433   6.250  14.207 -0.5703 -0.4805 -0.5915
 4916TIP3   OH236162   3.218   0.084   0.925 -0.2561  0.2404  0.2183
 4916TIP3    H136163   3.168   0.165   0.934 -0.7621  0.1213 -1.2283
 4916TIP3    H236164   3.279   0.084   0.999  1.7213  3.3060 -1.2438
 4917TIP3   OH236165   2.190   2.803   3.954  0.2388 -0.1915  0.0622
 4917TIP3    H136166   2.226   2.804   4.042 -0.1158  1.7814  0.2285
 4917TIP3    H236167   2.235   2.730   3.911  0.3255 -1.2677  1.8808
 4918TIP3   OH236168   5.042   0.462  15.040 -0.0707 -0.3171 -0.2344
 4918TIP3    H136169   5.018   0.374  15.010 -0.3132 -0.3050 -0.0781
 4918TIP3    H236170   5.054   0.512  14.959 -1.3975 -0.1021 -0.3186
 4919TIP3   OH236171   2.083   4.786   5.463 -0.1414 -0.1022 -0.4378
 4919TIP3    H136172   2.091   4.873   5.503  1.5489  0.6368 -2.2093
 4919TIP3    H236173   2.153   4.783   5.398 -0.0947 -2.8595 -0.3766
 4920TIP3   OH236174   0.890   4.978  11.335  0.2165 -0.6801 -0.1422
 4920TIP3    H136175   0.864   4.886  11.339 -0.4275 -0.5487 -0.9999
 4920TIP3    H236176   0.927   4.989  11.247 -0.5223  0.0851 -0.3704
 4921TIP3   OH236177   5.034   2.210   1.657  0.6413  0.4742 -0.3053
 4921TIP3    H136178   4.959   2.211   1.598 -0.0236  0.2147  0.5310
 4921TIP3    H236179   5.057   2.117   1.665  1.0501  0.5489 -0.5383
 4922TIP3   OH236180   1.842   2.245  16.114  0.5263 -0.0080 -0.0037
 4922TIP3    H136181   1.802   2.191  16.046 -0.6165  0.7935  0.0082
 4922TIP3    H236182   1.825   2.335  16.087  1.6553  0.3431  0.4153
 4923TIP3   OH236183   4.810   5.283  12.346 -0.1615 -1.0884 -0.1416
 4923TIP3    H136184   4.904   5.269  12.338  0.3379  1.6366  0.0496
 4923TIP3    H236185   4.780   5.213  12.404  2.2465 -0.4310  2.0688
 4924TIP3   OH236186   6.349   3.248  16.065 -0.4601 -0.1485 -0.1772
 4924TIP3    H136187   6.401   3.168  16.057 -1.7381 -1.0269  0.0065
 4924TIP3    H236188   6.295   3.234  16.142 -0.3446  1.1239  0.1581
 4925TIP3   OH236189   4.698   4.796   6.000  0.1821  0.6206  0.2473
 4925TIP3    H136190   4.662   4.885   6.002 -1.7782 -0.0787 -0.6976
 4925TIP3    H236191   4.712   4.774   6.092 -1.3984  1.1564  0.6667
 4926TIP3   OH236192   3.714   1.480  13.868  0.0643  0.5757 -0.1083
 4926TIP3    H136193   3.757   1.564  13.881  0.8531  0.2394 -0.4540
 4926TIP3    H236194   3.639   1.500  13.811 -0.3416  1.1929  0.6319
 4927TIP3   OH236195   3.111   3.800  15.765 -0.5978 -0.4058  0.5963
 4927TIP3    H136196   3.175   3.750  15.816  0.5362  0.8755  0.4825
 4927TIP3    H236197   3.124   3.891  15.792 -0.5132  0.2207 -1.3714
 4928TIP3   OH236198   4.377   3.429  14.992 -0.1420 -0.7658 -0.4293
 4928TIP3    H136199   4.360   3.362  15.059 -0.6208  2.4846  2.9883
 4928TIP3    H236200   4.290   3.462  14.969  0.1866  0.1496 -0.3895
 4929TIP3   OH236201   1.367   3.316  14.155 -0.6758  0.5261  0.0259
 4929TIP3    H136202   1.363   3.247  14.221 -0.7076 -0.8355 -1.3499
 4929TIP3    H236203   1.444   3.368  14.178  0.0089 -0.6465  0.4544
 4930TIP3   OH236204   3.519   3.525  14.976  0.7069 -0.4567  0.0977
 4930TIP3    H136205   3.583   3.493  14.912 -1.2885 -1.4138 -1.5523
 4930TIP3    H236206   3.478   3.600  14.933  1.5712  0.9982  1.6916
 4931TIP3   OH236207   4.904   0.026   1.788  0.2700 -0.1724  0.4481
 4931TIP3    H136208   4.821   0.010   1.744  1.6272  0.3706 -2.5059
 4931TIP3    H236209   4.924   0.118   1.768  2.6558 -0.9310 -0.8911
 4932TIP3   OH236210   0.335   6.614  14.360 -0.8864  0.0324  0.2516
 4932TIP3    H136211   0.309   6.652  14.444 -0.2725 -1.1263  0.9905
 4932TIP3    H236212   0.324   6.519  14.372 -0.2282 -0.1934 -0.7779
 4933TIP3   OH236213   3.699   0.020  12.452  0.3198 -0.0585 -0.4865
 4933TIP3    H136214   3.746  -0.026  12.382  0.4396 -0.3536 -0.2190
 4933TIP3    H236215   3.763   0.080  12.489  1.2641 -2.0862  1.4113
 4934TIP3   OH236216   5.398   0.753   1.882  0.2021  0.0453 -0.3730
 4934TIP3    H136217   5.437   0.666   1.885  0.5893  0.2154 -0.4980
 4934TIP3    H236218   5.472   0.813   1.877 -0.0869  0.3182 -1.7859
 4935TIP3   OH236219   3.732   3.474  14.823 -0.7286  0.4926 -0.3698
 4935TIP3    H136220   3.794   3.540  14.852 -0.9281  0.3513  0.3951
 4935TIP3    H236221   3.787   3.400  14.796 -0.5346  0.7126 -0.5892
 4936TIP3   OH236222   1.297   3.638  12.080 -0.1840 -0.6351 -0.1614
 4936TIP3    H136223   1.314   3.683  12.162  0.7165  0.7674 -1.0584
 4936TIP3    H236224   1.351   3.559  12.084 -0.2577 -0.6469  0.6399
 4937TIP3   OH236225   1.779   2.842  12.095 -0.6487  0.2433  0.3483
 4937TIP3    H136226   1.805   2.817  12.006  2.2711  0.6580  0.9766
 4937TIP3    H236227   1.683   2.841  12.094 -0.7227  1.0646 -3.0125
 4938TIP3   OH236228   4.148   5.675  17.464 -0.4226  0.2126  0.5759
 4938TIP3    H136229   4.193   5.744  17.416 -0.3384  0.1768  0.6026
 4938TIP3    H236230   4.216   5.639  17.522 -0.1213 -0.7423 -0.3368
 4939TIP3   OH236231   2.827   1.453  15.877  0.2643 -0.2243  0.5954
 4939TIP3    H136232   2.768   1.404  15.821  1.8415 -1.4711 -0.0339
 4939TIP3    H236233   2.791   1.542  15.877 -0.7710 -0.6067 -0.9143
 4940TIP3   OH236234   3.086   2.831   4.263  0.3391  0.0556 -0.4600
 4940TIP3    H136235   3.109   2.829   4.170 -0.3335 -0.1083 -0.6293
 4940TIP3    H236236   3.101   2.921   4.290  2.0403 -0.2362 -0.3282
 4941TIP3   OH236237   0.733   3.648   5.066  0.2345 -0.6912 -0.0483
 4941TIP3    H136238   0.822   3.628   5.038  0.5631 -0.4670  0.8140
 4941TIP3    H236239   0.719   3.739   5.041  1.2476  0.1540  2.2277
 4942TIP3   OH236240   1.509   6.184  10.907 -0.5347  0.3296 -0.0511
 4942TIP3    H136241   1.551   6.103  10.878 -0.2150  0.6299 -0.4294
 4942TIP3    H236242   1.580   6.248  10.909 -0.9866  0.8634 -0.7804
 4943TIP3   OH236243   4.720   0.078  16.573 -0.0389 -0.0605 -0.1372
 4943TIP3    H136244   4.659   0.072  16.647  1.7365 -1.3407  1.3158
 4943TIP3    H236245   4.664   0.087  16.496 -1.9818  0.7441  1.2899
 4944TIP3   OH236246   1.168   5.858   6.586  0.0647 -0.0759 -0.4019
 4944TIP3    H136247   1.230   5.807   6.638 -0.8364 -0.9373 -0.1371
 4944TIP3    H236248   1.212   5.873   6.503  0.1670 -1.7332 -0.6760
 4945TIP3   OH236249   2.685   5.671  16.259 -0.0201 -0.2445 -0.1700
 4945TIP3    H136250   2.639   5.754  16.273 -1.1014 -0.5533 -1.6399
 4945TIP3    H236251   2.621   5.616  16.213  1.4267 -1.1206 -1.2060
 4946TIP3   OH236252   4.514   4.604   0.704 -0.0697 -0.3700  0.3362
 4946TIP3    H136253   4.592   4.659   0.700 -0.4739  0.3935  1.8904
 4946TIP3    H236254   4.543   4.523   0.745 -0.0808 -0.0555  0.9874
 4947TIP3   OH236255   2.114   6.234   2.111 -0.3420  0.7579  1.1039
 4947TIP3    H136256   2.042   6.200   2.058 -0.9089  0.8280  1.8127
 4947TIP3    H236257   2.077   6.243   2.199  1.1188 -1.2656  2.0095
 4948TIP3   OH236258   2.670   1.434  12.453 -1.0511  0.1882 -0.1770
 4948TIP3    H136259   2.632   1.362  12.504 -2.3767  0.4336 -0.7895
 4948TIP3    H236260   2.636   1.421  12.365 -1.0598  1.3919 -0.3622
 4949TIP3   OH236261   1.224   0.855   1.247 -0.5096  0.6113  0.7608
 4949TIP3    H136262   1.136   0.856   1.283  0.1630  1.2618  2.4774
 4949TIP3    H236263   1.262   0.939   1.273  0.6290  0.3211  0.1042
 4950TIP3   OH236264   4.278   0.594   2.688 -0.0774  0.0190 -0.0949
 4950TIP3    H136265   4.326   0.677   2.690  1.2461 -0.6838 -1.2751
 4950TIP3    H236266   4.214   0.603   2.759  1.8569  0.9553  1.6648
 4951TIP3   OH236267   6.395   5.095   4.225  0.1488  0.1389 -0.5714
 4951TIP3    H136268   6.413   5.016   4.174  1.6706  0.0523  0.0512
 4951TIP3    H236269   6.351   5.062   4.304  1.2163 -0.1567 -0.0883
 4952TIP3   OH236270   2.666   5.480  14.975 -0.2821 -0.1464  0.0618
 4952TIP3    H136271   2.622   5.425  15.041 -0.3577 -0.4841 -0.2674
 4952TIP3    H236272   2.638   5.569  14.997  0.1015 -0.1974  0.8068
 4953TIP3   OH236273   5.944   1.380  12.454 -0.1997 -0.7269 -0.5754
 4953TIP3    H136274   5.957   1.422  12.539 -0.5901  2.9755 -2.1324
 4953TIP3    H236275   5.855   1.345  12.458  0.1624 -1.5716  0.8455
 4954TIP3   OH236276   6.427   5.172  14.186  0.2880  0.3557  0.0195
 4954TIP3    H136277   6.408   5.081  14.161 -0.0478  0.4598 -0.1133
 4954TIP3    H236278   6.358   5.194  14.249 -0.1283  0.7885 -0.5774
 4955TIP3   OH236279   4.463   4.809  17.215 -0.3787  0.3151 -0.2763
 4955TIP3    H136280   4.486   4.898  17.189 -0.1334  0.5820  0.7908
 4955TIP3    H236281   4.371   4.799  17.189 -0.8203  1.3660  0.7895
 4956TIP3   OH236282   5.838   4.873  12.212 -0.0297 -0.4086  0.1598
 4956TIP3    H136283   5.861   4.820  12.136  0.5126  0.4794 -0.3197
 4956TIP3    H236284   5.917   4.876  12.265  0.5959  1.4234 -0.7567
 4957TIP3   OH236285   2.610   1.994  14.533 -0.2036  0.7140  0.0371
 4957TIP3    H136286   2.644   2.054  14.599 -0.6553 -0.2748  1.2200
 4957TIP3    H236287   2.654   2.019  14.452  0.2082  2.1018  0.6671
 4958TIP3   OH236288   0.825   2.489   1.842  0.3297  0.2653 -0.6786
 4958TIP3    H136289   0.888   2.458   1.907  0.1802 -1.2386 -1.2152
 4958TIP3    H236290   0.844   2.438   1.763 -1.0763  0.3004 -1.0695
 4959TIP3   OH236291   3.463   0.611   4.801  0.1946  0.3065 -0.1310
 4959TIP3    H136292   3.439   0.700   4.775  1.4057  0.7436  0.1557
 4959TIP3    H236293   3.539   0.623   4.858  1.3727 -1.0069 -1.3492
 4960TIP3   OH236294   0.415   1.124  16.344  0.1526  0.6628  0.4499
 4960TIP3    H136295   0.453   1.146  16.429  1.3090 -0.6988  0.3217
 4960TIP3    H236296   0.491   1.114  16.286 -0.5485  0.2458 -0.4112
 4961TIP3   OH236297   1.059   4.922   2.603  0.1703 -0.0098  0.2563
 4961TIP3    H136298   0.977   4.950   2.644  0.2570  1.6349 -0.6498
 4961TIP3    H236299   1.108   4.881   2.675 -0.5205  0.9936  1.3357
 4962TIP3   OH236300   3.623   5.870  16.731  0.1520 -0.0466  0.1897
 4962TIP3    H136301   3.589   5.958  16.718  1.4421  0.3540 -0.7285
 4962TIP3    H236302   3.712   5.873  16.695 -0.5633 -2.3196 -2.1301
 4963TIP3   OH236303   3.647   1.077  10.908 -0.5714  0.1437  0.0762
 4963TIP3    H136304   3.640   1.161  10.863  0.5623  0.0567 -0.2908
 4963TIP3    H236305   3.699   1.022  10.850 -0.0445 -0.3315  0.9727
 4964TIP3   OH236306   3.113   6.219   2.096 -0.3645 -0.6003  0.1159
 4964TIP3    H136307   3.104   6.314   2.095 -0.3273 -0.3869  3.7623
 4964TIP3    H236308   3.030   6.186   2.062 -0.4627  0.6963 -0.9942
 4965TIP3   OH236309   6.318   4.186  11.652 -0.2515 -0.8525  0.6881
 4965TIP3    H136310   6.332   4.096  11.682 -3.3817 -2.4492 -1.9479
 4965TIP3    H236311   6.224   4.201  11.665  0.4547  2.8687  2.7628
 4966TIP3   OH236312   4.969   6.311  11.218  0.4467 -0.0486 -0.0445
 4966TIP3    H136313   4.959   6.216  11.213  0.5628 -0.0418 -0.4450
 4966TIP3    H236314   5.061   6.324  11.238  0.1242 -0.0550  1.5113
 4967TIP3   OH236315   1.989   5.938  15.748  0.2096 -0.3448 -0.3331
 4967TIP3    H136316   1.942   6.006  15.699  0.8430  0.0196 -0.4493
 4967TIP3    H236317   2.081   5.964  15.742  0.6466 -2.0395 -1.7058
 4968TIP3   OH236318   1.133   5.783  16.484 -0.3873  0.0139  0.0146
 4968TIP3    H136319   1.117   5.689  16.482  0.3564 -0.1341  0.6174
 4968TIP3    H236320   1.053   5.820  16.522 -0.6805 -0.3644 -0.2211
 4969TIP3   OH236321   5.614   1.744  14.350  0.0236  0.3391 -0.3197
 4969TIP3    H136322   5.552   1.681  14.313 -0.0007  0.5278 -0.6028
 4969TIP3    H236323   5.622   1.812  14.282  1.3002 -0.1770 -0.7006
 4970TIP3   OH236324   4.724   3.727   5.327 -0.6706 -0.1401 -0.2085
 4970TIP3    H136325   4.748   3.679   5.248 -0.3398  0.9113 -0.7652
 4970TIP3    H236326   4.740   3.819   5.306 -1.7549  0.2792  0.6603
 4971TIP3   OH236327   6.549   2.510  15.324  0.1375  0.0827  0.0048
 4971TIP3    H136328   6.486   2.440  15.312 -0.9555  1.0881 -0.2921
 4971TIP3    H236329   6.569   2.540  15.235  1.3829 -0.5001  0.0617
 4972TIP3   OH236330   2.567   6.411  15.475 -0.2542  0.7437 -0.5211
 4972TIP3    H136331   2.588   6.396  15.567  0.9151  0.2345 -0.8507
 4972TIP3    H236332   2.555   6.323  15.438  2.4474  0.6991 -1.5283
 4973TIP3   OH236333   1.429   5.534  13.180  0.3746  0.0980  0.3001
 4973TIP3    H136334   1.356   5.596  13.174  0.6702  0.2829 -2.0839
 4973TIP3    H236335   1.387   5.451  13.202 -0.4276  0.4257  0.0429
 4974TIP3   OH236336   1.589   3.931  15.837 -0.4080 -0.2154  0.1037
 4974TIP3    H136337   1.605   3.949  15.744  0.6194 -0.5713  0.1931
 4974TIP3    H236338   1.551   3.843  15.838  0.7836 -0.7568  0.0786
 4975TIP3   OH236339   4.521   4.267  16.261  0.1918  0.1704  0.2278
 4975TIP3    H136340   4.539   4.338  16.322 -3.0134  0.9252  0.4960
 4975TIP3    H236341   4.552   4.188  16.306  0.7490  1.0560  1.4351
 4976TIP3   OH236342   4.923   1.101   1.152 -0.6987 -0.2428  0.4826
 4976TIP3    H136343   4.961   1.022   1.191  0.8031  0.4687  0.5534
 4976TIP3    H236344   4.980   1.172   1.183 -0.1055  0.4942 -2.1025
 4977TIP3   OH236345   1.067   4.011   3.277 -0.1132  1.1025 -0.4595
 4977TIP3    H136346   1.051   3.924   3.239 -0.4645  0.3182  1.3975
 4977TIP3    H236347   1.158   4.030   3.256  0.8055 -0.9147  1.2972
 4978TIP3   OH236348   1.632   6.477  14.396 -0.2375  0.2102 -0.5578
 4978TIP3    H136349   1.658   6.387  14.375 -0.9513 -0.2097  0.2619
 4978TIP3    H236350   1.555   6.467  14.453 -0.7996  1.3589 -1.0761
 4979TIP3   OH236351   0.464   1.462   0.741  0.0072 -0.5026  0.2911
 4979TIP3    H136352   0.486   1.531   0.678 -1.4016 -0.7385 -0.5230
 4979TIP3    H236353   0.455   1.507   0.825  0.8609 -0.0073  0.1283
 4980TIP3   OH236354   5.711   0.074   4.606  0.7255  0.2690  0.4727
 4980TIP3    H136355   5.675   0.162   4.613 -1.0317 -0.4519  0.8654
 4980TIP3    H236356   5.740   0.068   4.515 -0.3515  0.8133  0.0735
 4981TIP3   OH236357   3.460   2.542   2.069  0.2388  0.5705 -0.2053
 4981TIP3    H136358   3.448   2.618   2.127  0.5274  1.2146 -0.9752
 4981TIP3    H236359   3.455   2.578   1.981 -0.3181 -0.4255 -0.5934
 4982TIP3   OH236360   3.352   0.120   3.672  0.2679  0.0718  0.0239
 4982TIP3    H136361   3.443   0.124   3.646  0.0453 -0.1901 -0.8132
 4982TIP3    H236362   3.308   0.187   3.618  0.2881  1.6859  1.8770
 4983TIP3   OH236363   6.260   3.142  14.875 -0.0410 -0.1928 -0.3336
 4983TIP3    H136364   6.353   3.165  14.870  0.0981 -0.9718 -2.6341
 4983TIP3    H236365   6.253   3.062  14.823 -2.2034  0.6686 -1.5008
 4984TIP3   OH236366   4.867   4.614  12.269  0.2283  0.4909  0.5424
 4984TIP3    H136367   4.946   4.642  12.224 -0.1610  0.5761 -0.1095
 4984TIP3    H236368   4.894   4.601  12.360  0.5593  2.4069  0.7626
 4985TIP3   OH236369   2.137   3.590   0.091 -0.4461 -0.3309  0.6934
 4985TIP3    H136370   2.183   3.565   0.011 -0.2564 -1.1627  1.0506
 4985TIP3    H236371   2.178   3.673   0.117 -2.0089  1.1427 -1.2501
 4986TIP3   OH236372   4.865   3.976   5.353 -0.8221  0.3412 -0.5316
 4986TIP3    H136373   4.894   3.952   5.265 -2.8560  1.1902 -1.5003
 4986TIP3    H236374   4.885   4.069   5.362  2.7149 -0.4221  1.4098
 4987TIP3   OH236375   4.827   1.281   3.602 -0.0477 -0.0963  0.8651
 4987TIP3    H136376   4.791   1.209   3.653  0.8179 -0.9925  0.2759
 4987TIP3    H236377   4.754   1.340   3.587 -0.9109 -1.1116  0.9530
 4988TIP3   OH236378   1.881   3.706   1.139  0.2222 -0.0828  0.1521
 4988TIP3    H136379   1.915   3.712   1.050  0.0307 -1.6057 -0.0583
 4988TIP3    H236380   1.786   3.703   1.128  0.1882 -0.0239  0.4296
 4989TIP3   OH236381   5.880   2.936   2.172 -0.4361  0.2747  0.6944
 4989TIP3    H136382   5.861   2.847   2.202 -0.7099 -0.5746 -1.7321
 4989TIP3    H236383   5.794   2.978   2.165 -0.4691  0.1132  0.1136
 4990TIP3   OH236384   3.891   3.735  13.200  0.3544 -0.2612  0.0761
 4990TIP3    H136385   3.956   3.735  13.130 -0.3332 -1.6203 -0.6155
 4990TIP3    H236386   3.807   3.723  13.154 -0.5234  2.2052  0.8694
 4991TIP3   OH236387   6.293   3.256  11.481  0.4106 -0.1513 -0.0463
 4991TIP3    H136388   6.272   3.270  11.388 -1.1263 -2.9161 -0.2195
 4991TIP3    H236389   6.375   3.207  11.480  0.4401 -0.1040  0.0485
 4992TIP3   OH236390   0.473   1.325   6.720  0.0026 -0.0681  0.1713
 4992TIP3    H136391   0.460   1.234   6.746  0.1284  0.1140  0.9212
 4992TIP3    H236392   0.439   1.331   6.631 -0.9404 -0.6151  0.4872
 4993TIP3   OH236393   5.136   0.177  12.221  0.4722  0.4610 -0.1679
 4993TIP3    H136394   5.179   0.113  12.278 -1.0594  0.2764  0.8527
 4993TIP3    H236395   5.197   0.251  12.218  1.3106 -0.1863  0.3943
 4994TIP3   OH236396   0.459   4.289   6.893  0.1252 -0.7364  0.3319
 4994TIP3    H136397   0.413   4.235   6.958  0.3514  0.6700  1.7077
 4994TIP3    H236398   0.389   4.322   6.836 -0.0943 -1.8650 -0.0789
 4995TIP3   OH236399   4.573   5.437  13.135  0.6806 -0.1462 -0.3202
 4995TIP3    H136400   4.594   5.345  13.118 -0.5865 -0.4862 -0.1562
 4995TIP3    H236401   4.530   5.436  13.220 -0.2075  0.4682 -0.7486
 4996TIP3   OH236402   0.500   2.219  15.083 -0.3533  0.1973 -1.0180
 4996TIP3    H136403   0.551   2.295  15.111  1.3006 -1.1009 -0.3598
 4996TIP3    H236404   0.440   2.202  15.156  2.3234 -1.7362  0.9372
 4997TIP3   OH236405   5.668   5.905   5.899  0.0662 -0.3105 -0.2980
 4997TIP3    H136406   5.746   5.873   5.945 -0.3270 -0.8258  0.0140
 4997TIP3    H236407   5.660   5.848   5.823 -1.3330 -1.7898  0.8963
 4998TIP3   OH236408   0.366   5.481  11.266 -0.0270  0.3835 -0.0198
 4998TIP3    H136409   0.441   5.462  11.323 -0.5739  0.6878  0.8101
 4998TIP3    H236410   0.403   5.477  11.177  0.4236 -2.1026  0.1905
 4999TIP3   OH236411   3.571   2.388   3.334 -0.1927  0.0697  0.3852
 4999TIP3    H136412   3.657   2.410   3.370 -0.3286 -2.2194  2.4455
 4999TIP3    H236413   3.532   2.472   3.311  2.2368  1.2313  0.2366
 5000TIP3   OH236414   3.665   4.567   2.289  0.3770 -0.0083  0.0833
 5000TIP3    H136415   3.598   4.634   2.278  0.0518 -0.4085 -0.4223
 5000TIP3    H236416   3.618   4.490   2.321  0.5567 -0.3539 -0.4646
 5001TIP3   OH236417   3.558   3.859  16.858  0.6383 -0.2896 -0.4248
 5001TIP3    H136418   3.477   3.887  16.815  0.0509  1.6653  1.7851
 5001TIP3    H236419   3.529   3.799  16.926  1.2995 -1.2840 -0.9987
 5002TIP3   OH236420   5.953   5.271  17.029 -0.0577 -0.7303 -0.9867
 5002TIP3    H136421   6.014   5.219  16.978  0.0885 -2.1591  0.5541
 5002TIP3    H236422   5.966   5.242  17.120 -0.5276  1.4622 -0.1539
 5003TIP3   OH236423   4.744   2.189  16.768 -0.1960  0.4986 -0.0740
 5003TIP3    H136424   4.817   2.203  16.828 -0.2286 -0.1038  0.1134
 5003TIP3    H236425   4.782   2.198  16.681  0.0782  0.3244  0.0247
 5004TIP3   OH236426   6.680   1.089   5.616 -0.0568  0.2983 -1.0288
 5004TIP3    H136427   6.684   0.995   5.599  0.7730 -0.0756  0.9847
 5004TIP3    H236428   6.591   1.104   5.648  0.0029  0.0904 -0.7686
 5005TIP3   OH236429   0.792   3.873   4.440  0.3583 -0.5990 -0.2069
 5005TIP3    H136430   0.805   3.778   4.438 -0.2417 -0.7014 -2.7836
 5005TIP3    H236431   0.879   3.909   4.456  0.8289 -1.5743 -0.4925
 5006TIP3   OH236432   6.117   0.646   1.950 -0.0626 -0.0556 -0.4709
 5006TIP3    H136433   6.102   0.741   1.948 -1.1342 -0.1849  0.3819
 5006TIP3    H236434   6.150   0.629   2.038  0.5088 -0.4323 -0.7568
 5007TIP3   OH236435   6.267   5.409  16.283  0.0077 -0.0678  0.3279
 5007TIP3    H136436   6.215   5.489  16.286 -1.8613 -1.2366  0.5655
 5007TIP3    H236437   6.290   5.393  16.375  2.4477  1.4044  0.0694
 5008TIP3   OH236438   5.239   6.286   0.051 -0.2884  0.0441 -0.3355
 5008TIP3    H136439   5.188   6.238  -0.015  0.8818  0.2735 -1.4398
 5008TIP3    H236440   5.255   6.372   0.012  1.0623 -0.0721 -0.0745
 5009TIP3   OH236441   4.373   5.126  12.371  0.2617  0.4075  0.1387
 5009TIP3    H136442   4.293   5.175  12.352  0.1586  0.4175  0.6047
 5009TIP3    H236443   4.373   5.055  12.307  0.4255  1.0217 -0.5660
 5010TIP3   OH236444   4.969   0.054   2.546  0.3352 -0.6155  0.2873
 5010TIP3    H136445   4.963   0.026   2.638 -0.2507 -1.8228 -0.1009
 5010TIP3    H236446   5.056   0.026   2.518  0.6312  0.0220  0.5468
 5011TIP3   OH236447   4.737   1.874  17.486  0.1183 -0.1616 -0.0883
 5011TIP3    H136448   4.831   1.868  17.470  0.3228  0.1541  0.9679
 5011TIP3    H236449   4.717   1.967  17.479 -0.4517 -0.3644 -1.9933
 5012TIP3   OH236450   2.278   6.081  16.864 -0.0131  0.3609 -0.1178
 5012TIP3    H136451   2.362   6.095  16.819 -0.9170  1.7667 -1.4811
 5012TIP3    H236452   2.297   6.016  16.931  2.5914  1.8539  0.7579
 5013TIP3   OH236453   2.756   3.979   4.809 -0.3847 -0.1512  0.5677
 5013TIP3    H136454   2.698   3.915   4.851  0.6039 -0.2373  1.8497
 5013TIP3    H236455   2.804   4.019   4.881 -0.6429  1.7298 -0.2532
 5014TIP3   OH236456   0.716   5.196   6.224 -0.1077 -0.3467 -0.1844
 5014TIP3    H136457   0.781   5.197   6.294 -1.2385 -0.9697  0.9204
 5014TIP3    H236458   0.730   5.278   6.177  0.8973 -0.0726  0.5510
 5015TIP3   OH236459   4.479   1.053  15.919  0.0605 -0.0524  0.3865
 5015TIP3    H136460   4.439   1.067  16.005  0.2777  0.6128  0.3914
 5015TIP3    H236461   4.559   1.106  15.922  0.0901 -0.0638 -0.2041
 5016TIP3   OH236462   4.415   0.866  16.733 -0.0653 -0.1721  0.1473
 5016TIP3    H136463   4.347   0.854  16.666 -0.1336  0.3680  0.1162
 5016TIP3    H236464   4.367   0.882  16.814 -0.0094 -2.0283  0.5987
 5017TIP3   OH236465   1.751   5.427   2.748  0.0667 -0.1109  0.1089
 5017TIP3    H136466   1.699   5.507   2.744 -0.1840 -0.0829  2.4022
 5017TIP3    H236467   1.776   5.409   2.658 -1.2345  1.6496 -0.6434
 5018TIP3   OH236468   1.958   5.220  13.016  0.0442  0.4309 -0.5566
 5018TIP3    H136469   1.924   5.152  12.957 -0.7042 -0.2670  0.6305
 5018TIP3    H236470   2.041   5.246  12.977 -0.3975 -0.0481 -1.8823
 5019TIP3   OH236471   4.185   2.337   5.486 -0.0231  0.3215 -0.1246
 5019TIP3    H136472   4.180   2.315   5.393  0.3348 -0.3011 -0.0012
 5019TIP3    H236473   4.122   2.408   5.497 -0.4630  0.0383 -0.7342
 5020TIP3   OH236474   4.696   2.323  14.393 -0.4130  0.3000 -0.3481
 5020TIP3    H136475   4.700   2.229  14.412 -3.1663  0.1309 -0.2132
 5020TIP3    H236476   4.644   2.329  14.313  0.0382  1.7079 -0.5626
 5021TIP3   OH236477   1.215   5.960   0.923  0.5523  0.0813 -0.4063
 5021TIP3    H136478   1.181   6.048   0.940  0.6055  0.0049  0.1013
 5021TIP3    H236479   1.196   5.911   1.002 -0.7330 -0.7600 -1.2175
 5022TIP3   OH236480   2.226   0.267   1.429  0.4781  0.2645  0.6885
 5022TIP3    H136481   2.304   0.249   1.377  0.4715  2.0808 -0.0205
 5022TIP3    H236482   2.226   0.362   1.441 -1.9668  0.4192  0.0652
 5023TIP3   OH236483   3.075   4.030   5.865 -1.0461 -0.0320  0.1336
 5023TIP3    H136484   3.123   3.955   5.899 -1.1562  0.5977  1.7879
 5023TIP3    H236485   3.092   4.100   5.928  0.3753  1.8635 -2.1739
 5024TIP3   OH236486   4.076   1.065  15.668  0.5269  0.0156 -0.1760
 5024TIP3    H136487   4.118   1.138  15.712 -2.3448  1.3566  0.6385
 5024TIP3    H236488   4.007   1.038  15.729 -1.1186 -0.6210 -2.2104
 5025TIP3   OH236489   6.262   4.220  15.361 -0.2563  0.2560  0.2094
 5025TIP3    H136490   6.203   4.187  15.429 -1.5282 -0.7894 -1.3191
 5025TIP3    H236491   6.269   4.314  15.378 -0.4195 -0.0004  1.8479
 5026TIP3   OH236492   3.077   2.777  13.071  0.1811 -0.1138  0.0734
 5026TIP3    H136493   3.059   2.789  12.978 -1.3562 -0.4736  0.2957
 5026TIP3    H236494   3.168   2.746  13.075  0.1897 -0.3112 -1.3140
 5027TIP3   OH236495   1.609   3.496  14.784 -0.3530  0.0825 -0.9353
 5027TIP3    H136496   1.599   3.428  14.850  0.2583 -1.3157 -2.2026
 5027TIP3    H236497   1.519   3.516  14.757 -0.5355 -0.3955 -0.7029
 5028TIP3   OH236498   6.211   3.773   2.673 -0.0703 -0.1535  0.6414
 5028TIP3    H136499   6.196   3.715   2.747  1.8401 -0.9418  0.4667
 5028TIP3    H236500   6.180   3.724   2.597  2.7711 -1.6491  0.3152
 5029TIP3   OH236501   6.396   4.160   4.043  0.1298  0.4180 -0.2992
 5029TIP3    H136502   6.388   4.252   4.069 -0.4196  0.3036 -0.0515
 5029TIP3    H236503   6.348   4.112   4.110  1.0293 -0.1222 -0.0204
 5030TIP3   OH236504   2.684   1.058   5.260 -0.2274  0.4981 -0.0574
 5030TIP3    H136505   2.760   1.053   5.202 -1.4450  0.2616 -1.7193
 5030TIP3    H236506   2.679   0.972   5.301 -1.0198 -0.3907 -1.9011
 5031TIP3   OH236507   2.142   1.416  16.641  0.5711 -0.1951  0.0446
 5031TIP3    H136508   2.171   1.507  16.637 -1.3216  0.4793  0.4376
 5031TIP3    H236509   2.156   1.390  16.733 -1.6020  0.7169  0.6810
 5032TIP3   OH236510   5.022   4.610   4.845 -0.3441 -0.5016  0.7623
 5032TIP3    H136511   4.968   4.613   4.924  0.2984  0.2157  1.1987
 5032TIP3    H236512   4.969   4.564   4.780 -1.4077  0.0605  1.2132
 5033TIP3   OH236513   4.156   4.199   4.077  0.3660 -0.0989 -0.1627
 5033TIP3    H136514   4.125   4.290   4.070  1.9892  0.5430  0.5181
 5033TIP3    H236515   4.251   4.206   4.073  0.5123 -2.0566 -2.7981
 5034TIP3   OH236516   3.824   5.254  12.946  0.1072  0.0674  0.1459
 5034TIP3    H136517   3.874   5.173  12.956  1.1769  0.8081  0.9818
 5034TIP3    H236518   3.749   5.243  13.004  0.0699 -0.4609 -0.0032
 5035TIP3   OH236519   6.643   0.549  14.319  0.2722  0.3206  0.4108
 5035TIP3    H136520   6.710   0.616  14.330  1.2987 -0.9653  3.0678
 5035TIP3    H236521   6.565   0.596  14.292  1.1943  2.4359  1.2410
 5036TIP3   OH236522   6.416   4.149   2.238  0.3095 -0.1444 -0.3749
 5036TIP3    H136523   6.347   4.176   2.177 -0.8091 -0.1694  0.8200
 5036TIP3    H236524   6.496   4.188   2.204 -0.5408  1.0517 -1.0548
 5037TIP3   OH236525   1.277   5.174   0.293 -0.6706  0.0041  0.2266
 5037TIP3    H136526   1.344   5.151   0.228 -0.4114  1.0709  0.1055
 5037TIP3    H236527   1.225   5.094   0.302 -1.5452  0.1744 -2.2944
 5038TIP3   OH236528   2.849   5.444  14.623 -0.2341  0.1843 -0.0517
 5038TIP3    H136529   2.778   5.498  14.587 -0.5520  0.7022  1.2778
 5038TIP3    H236530   2.806   5.362  14.649 -0.3214  0.4140  0.5526
 5039TIP3   OH236531   3.097   4.482   0.848  0.1643 -0.2135  0.3209
 5039TIP3    H136532   3.056   4.407   0.889 -1.5744  1.1160  1.1300
 5039TIP3    H236533   3.057   4.488   0.762  2.7846 -2.1511 -1.1924
 5040TIP3   OH236534   0.371   0.661   3.454  0.2262  0.4697  0.1096
 5040TIP3    H136535   0.318   0.711   3.516  0.4717  0.2829  0.4774
 5040TIP3    H236536   0.444   0.720   3.432  0.5514  0.2579  0.5942
 5041TIP3   OH236537   2.334   3.919  16.673  0.6564 -0.3096 -0.6301
 5041TIP3    H136538   2.266   3.864  16.634  1.1160 -2.8470  1.8600
 5041TIP3    H236539   2.415   3.894  16.627  0.9139 -2.0739  0.6815
 5042TIP3   OH236540   5.454   2.362  12.477  0.7401 -0.8887  0.3068
 5042TIP3    H136541   5.482   2.315  12.556  0.0620 -1.1572  0.3961
 5042TIP3    H236542   5.490   2.311  12.405  2.1306 -0.1468  0.4375
 5043TIP3   OH236543   2.426   1.945  14.892  0.6154 -0.4948  0.2587
 5043TIP3    H136544   2.506   1.984  14.858 -1.9363  2.3965 -3.3037
 5043TIP3    H236545   2.396   1.887  14.821 -1.9904  1.0805 -0.0455
 5044TIP3   OH236546   2.967   3.133   0.550  0.4190  0.0445  0.5711
 5044TIP3    H136547   3.053   3.112   0.515  0.3778  2.1206 -0.9432
 5044TIP3    H236548   2.906   3.084   0.495  0.5375  0.2470  0.2581
 5045TIP3   OH236549   0.911   6.321  11.945  0.3657  0.0274  0.5747
 5045TIP3    H136550   0.830   6.368  11.924  0.8912  0.8266  0.3113
 5045TIP3    H236551   0.980   6.371  11.902  0.8767 -1.4126 -0.3624
 5046TIP3   OH236552   6.399   5.843   4.364 -0.1240 -0.3662  0.0869
 5046TIP3    H136553   6.388   5.868   4.456 -1.2727  2.0056 -0.5895
 5046TIP3    H236554   6.322   5.790   4.344 -1.0154  0.9093  0.0038
 5047TIP3   OH236555   5.126   4.159   5.988 -0.1554 -0.0160  0.0738
 5047TIP3    H136556   5.067   4.180   5.916  0.0757  2.1251  0.4394
 5047TIP3    H236557   5.075   4.180   6.067  0.4518  0.1072  0.4407
 5048TIP3   OH236558   0.714   4.230  13.761 -0.3287  0.3228 -0.6737
 5048TIP3    H136559   0.780   4.283  13.806 -0.9951  1.0675 -0.5499
 5048TIP3    H236560   0.630   4.266  13.791 -0.8127 -1.1194 -0.2014
 5049TIP3   OH236561   5.444   2.951   1.835 -0.1037 -0.5355  0.0492
 5049TIP3    H136562   5.423   2.973   1.745  0.4013  0.8217  0.2349
 5049TIP3    H236563   5.457   3.036   1.878  2.0728 -1.1853  0.8048
 5050TIP3   OH236564   0.580   4.241  15.661  0.8755 -0.0962 -0.2174
 5050TIP3    H136565   0.552   4.254  15.571  1.5897  2.1001 -0.1872
 5050TIP3    H236566   0.505   4.199  15.704 -0.6831  1.6348 -1.1409
 5051TIP3   OH236567   5.417   4.395  11.993 -0.2878 -0.0490 -0.0360
 5051TIP3    H136568   5.458   4.313  12.022  2.1065  1.3958  0.8854
 5051TIP3    H236569   5.424   4.392  11.898  0.3477 -0.6417  0.0158
 5052TIP3   OH236570   2.691   6.731  16.828 -0.0026 -0.1929  0.2494
 5052TIP3    H136571   2.643   6.768  16.902  0.1077  2.0059 -0.6955
 5052TIP3    H236572   2.758   6.676  16.868  0.2206  1.1443  1.8228
 5053TIP3   OH236573   1.696   5.735  12.297  0.0928 -0.3892 -0.4182
 5053TIP3    H136574   1.702   5.829  12.315  0.0309 -0.5985  0.7814
 5053TIP3    H236575   1.639   5.701  12.366  0.1474 -1.3120 -0.8187
 5054TIP3   OH236576   5.911   5.662  14.216  0.4306 -0.3404  0.0458
 5054TIP3    H136577   5.975   5.595  14.192  0.8226 -1.1888  3.0519
 5054TIP3    H236578   5.827   5.616  14.221  0.3193 -0.1385  0.0889
 5055TIP3   OH236579   3.103   1.981   2.284  0.1340 -0.1447  0.2897
 5055TIP3    H136580   3.097   2.001   2.377 -0.1023 -0.7567  0.4045
 5055TIP3    H236581   3.172   2.040   2.252  0.1441  0.1429  0.8233
 5056TIP3   OH236582   2.228   0.936  17.350 -0.0186 -0.2342 -0.1051
 5056TIP3    H136583   2.290   0.905  17.284  0.6404  0.8241  0.0010
 5056TIP3    H236584   2.142   0.915  17.313  0.2784  1.2643 -1.8302
 5057TIP3   OH236585   2.509   3.436  14.993  0.0270  0.3399  0.2733
 5057TIP3    H136586   2.516   3.531  14.987  1.9241  0.2631  0.6384
 5057TIP3    H236587   2.415   3.418  14.989 -0.2972  2.0895 -1.5272
 5058TIP3   OH236588   0.562   5.287   4.189 -0.4464 -0.0125 -0.0932
 5058TIP3    H136589   0.542   5.299   4.096  1.9116 -1.7046 -0.9391
 5058TIP3    H236590   0.618   5.361   4.211 -1.0675  0.4295  0.0103
 5059TIP3   OH236591   2.441   5.916  15.180 -0.2427 -0.3569  0.0475
 5059TIP3    H136592   2.516   5.975  15.172  0.4148 -0.7481  2.5157
 5059TIP3    H236593   2.370   5.971  15.211 -0.5626 -0.2820 -0.7952
 5060TIP3   OH236594   6.307   3.502  11.961 -0.6664  0.1822  0.1330
 5060TIP3    H136595   6.308   3.411  11.989  0.3611 -0.0509 -0.6049
 5060TIP3    H236596   6.384   3.541  12.004 -1.5827  0.9294  1.1374
 5061TIP3   OH236597   4.118   2.995  17.397  0.3756  0.5371  0.5514
 5061TIP3    H136598   4.079   3.043  17.324  2.2837  2.4101  0.6701
 5061TIP3    H236599   4.065   3.019  17.473 -1.4003 -1.1398 -0.0725
 5062TIP3   OH236600   5.824   4.153  11.929 -0.0990  0.2181 -0.1758
 5062TIP3    H136601   5.903   4.168  11.876 -0.1353  1.5983  0.1088
 5062TIP3    H236602   5.822   4.059  11.943  0.5496 -0.0520 -1.6537
 5063TIP3   OH236603   5.340   1.902   2.468 -0.2654 -0.0125  0.1967
 5063TIP3    H136604   5.274   1.968   2.448  2.8748  3.1370 -0.6548
 5063TIP3    H236605   5.384   1.886   2.385  0.4192 -1.6679  0.8247
 5064TIP3   OH236606   1.986   1.136   3.080 -0.3205 -0.1361  0.4670
 5064TIP3    H136607   1.967   1.071   3.013  0.9885 -1.1144  1.0109
 5064TIP3    H236608   2.018   1.212   3.031  0.4811 -0.7837 -0.0315
 5065TIP3   OH236609   6.006   4.799  15.554 -0.4442  0.4284 -0.2350
 5065TIP3    H136610   5.948   4.733  15.592 -0.9328 -0.5062 -2.4398
 5065TIP3    H236611   6.059   4.751  15.491  2.6982  1.2800  1.5292
 5066TIP3   OH236612   4.825   3.149   2.821 -0.4263  0.1242  0.6802
 5066TIP3    H136613   4.787   3.228   2.783  1.4220  0.5755 -0.3135
 5066TIP3    H236614   4.857   3.177   2.907 -2.5808 -0.3537  1.6969
 5067TIP3   OH236615   1.163   1.813   0.369  0.5452 -0.3742 -0.0526
 5067TIP3    H136616   1.251   1.785   0.347  1.6899  0.5395  2.8106
 5067TIP3    H236617   1.171   1.907   0.389 -0.3500 -0.8533  3.1087
 5068TIP3   OH236618   0.742   1.167   4.812 -0.4727  0.6296 -0.7403
 5068TIP3    H136619   0.721   1.128   4.727 -1.0368 -0.0667 -0.2997
 5068TIP3    H236620   0.723   1.260   4.801 -2.3672  0.2794 -0.8486
 5069TIP3   OH236621   0.873   5.313  12.664  0.1985  0.4662 -0.1381
 5069TIP3    H136622   0.878   5.373  12.589 -0.0923  1.0123  0.2783
 5069TIP3    H236623   0.851   5.368  12.738  0.5361 -0.0698  0.3710
 5070TIP3   OH236624   6.368   4.933   0.529  0.4446  0.0294  0.1880
 5070TIP3    H136625   6.279   4.898   0.535  0.6584 -0.5192  0.2304
 5070TIP3    H236626   6.414   4.893   0.602  0.9198 -0.2612 -0.2667
 5071TIP3   OH236627   0.047   2.154   0.562  0.2075 -0.0175  0.4352
 5071TIP3    H136628  -0.046   2.149   0.586  0.0042  0.2078 -0.2528
 5071TIP3    H236629   0.057   2.089   0.493  0.3617  0.5363 -0.0772
 5072TIP3   OH236630   1.662   4.921   3.833 -0.0441  0.1095  0.0618
 5072TIP3    H136631   1.576   4.925   3.791 -0.0995 -0.4195  0.1185
 5072TIP3    H236632   1.669   4.831   3.864 -0.9411  1.0060  3.1909
 5073TIP3   OH236633   4.794   1.241   0.452 -0.1030 -0.0836 -0.3849
 5073TIP3    H136634   4.713   1.206   0.490  0.6513 -0.1465  1.2594
 5073TIP3    H236635   4.781   1.336   0.452  0.0138 -0.0609  0.3734
 5074TIP3   OH236636   2.300   4.204   2.210  0.1602 -0.0059 -0.0214
 5074TIP3    H136637   2.331   4.170   2.294  2.4606  1.9399  0.0616
 5074TIP3    H236638   2.265   4.291   2.231  0.7058  0.4790 -1.0242
 5075TIP3   OH236639   6.187   0.016   6.288 -0.3937 -0.6197 -0.0338
 5075TIP3    H136640   6.232   0.030   6.372 -2.1299 -1.5803  1.1286
 5075TIP3    H236641   6.248  -0.037   6.237  0.0866 -1.3432  1.2354
 5076TIP3   OH236642   3.206   3.934   3.694  0.2225  0.2787 -0.3156
 5076TIP3    H136643   3.191   3.946   3.788 -0.1507  0.1868 -0.3622
 5076TIP3    H236644   3.265   3.859   3.689  1.2268  1.0307 -0.1015
 5077TIP3   OH236645   1.952   3.112  16.017 -0.8105  0.0447 -0.2289
 5077TIP3    H136646   1.950   3.187  15.957  1.0798  1.0777  0.9099
 5077TIP3    H236647   2.027   3.129  16.073  0.1835 -3.1328 -0.4297
 5078TIP3   OH236648   2.066   1.864   2.735 -0.7883 -0.0617 -0.3776
 5078TIP3    H136649   2.085   1.791   2.795  1.7284 -0.3178 -1.3934
 5078TIP3    H236650   1.999   1.828   2.676 -1.1788 -0.7889  0.4693
 5079TIP3   OH236651   1.228   5.430  16.728 -0.1851 -0.0788 -0.2222
 5079TIP3    H136652   1.244   5.523  16.739 -1.5692  0.2361 -0.7362
 5079TIP3    H236653   1.165   5.424  16.657  1.0448 -1.5128 -1.2561
 5080TIP3   OH236654   5.039   2.539   3.390  0.1604 -0.2273  0.0162
 5080TIP3    H136655   4.969   2.560   3.451  0.4544 -1.2672  0.7471
 5080TIP3    H236656   5.119   2.568   3.434  0.2332  0.6586 -0.6715
 5081TIP3   OH236657   0.738   6.084  14.439 -0.4795  0.0741 -0.5486
 5081TIP3    H136658   0.718   6.130  14.520 -3.3836  0.1517 -1.2105
 5081TIP3    H236659   0.707   5.994  14.454 -0.4909 -0.0687 -1.3521
 5082TIP3   OH236660   1.433   3.953  13.491  0.0959 -0.6212 -0.1373
 5082TIP3    H136661   1.396   3.867  13.469 -0.2583 -0.5598  0.2154
 5082TIP3    H236662   1.393   4.013  13.427 -0.2522 -0.5930  0.1014
 5083TIP3   OH236663   1.199   3.241   5.530 -0.2653 -0.6181 -0.4075
 5083TIP3    H136664   1.207   3.189   5.610  0.7114  0.1913  0.0375
 5083TIP3    H236665   1.162   3.324   5.559 -3.0727 -1.4170 -1.2954
 5084TIP3   OH236666   2.440   5.953  13.976  0.3781 -0.0478  0.2114
 5084TIP3    H136667   2.414   6.034  13.932  1.7996  0.0993 -0.4207
 5084TIP3    H236668   2.397   5.957  14.061 -0.6570  0.7181 -0.3194
 5085TIP3   OH236669   2.963   5.251  12.586 -0.1025 -0.0595 -0.5294
 5085TIP3    H136670   3.047   5.287  12.615  0.5541 -2.2729  0.4884
 5085TIP3    H236671   2.929   5.205  12.663 -2.4198  0.9781 -0.8317
 5086TIP3   OH236672   5.223   6.722  12.673 -0.8238  0.4560  0.0904
 5086TIP3    H136673   5.263   6.646  12.630  0.2054  0.6065  0.7507
 5086TIP3    H236674   5.130   6.717  12.648 -0.7348 -0.8765 -0.0674
 5087TIP3   OH236675   0.577   0.703   2.621 -0.2586 -0.2102 -0.1762
 5087TIP3    H136676   0.640   0.770   2.647 -2.8164  1.4363  2.4317
 5087TIP3    H236677   0.581   0.638   2.691 -1.1236 -0.3257 -0.2277
 5088TIP3   OH236678   0.840   5.302  11.377 -0.1096 -0.2780  0.3533
 5088TIP3    H136679   0.787   5.307  11.298 -2.0554 -2.0074  1.4631
 5088TIP3    H236680   0.897   5.226  11.362 -0.2720 -0.4284  0.5036
 5089TIP3   OH236681   1.401   5.991   1.715  0.1336 -0.2480 -0.0300
 5089TIP3    H136682   1.355   5.910   1.738  0.0342  0.2698  1.7399
 5089TIP3    H236683   1.425   5.979   1.624  1.7422 -3.1042  0.6269
 5090TIP3   OH236684   3.935   0.934  15.023  0.0368 -0.2795  0.2279
 5090TIP3    H136685   3.879   0.984  15.082 -0.7319  1.1755 -1.6065
 5090TIP3    H236686   3.877   0.867  14.986  0.0222 -0.0151 -0.2315
 5091TIP3   OH236687   6.321   4.722   4.525  0.1268 -0.0164 -0.0652
 5091TIP3    H136688   6.414   4.713   4.504 -0.2855  0.5725 -2.4970
 5091TIP3    H236689   6.277   4.665   4.462 -1.1721 -0.7484  1.4278
 5092TIP3   OH236690   1.634   2.068   2.589  0.2170  0.3022 -0.1176
 5092TIP3    H136691   1.563   2.118   2.629  0.3413 -0.8174  1.5725
 5092TIP3    H236692   1.708   2.129   2.586  0.0916  0.5386  1.0480
 5093TIP3   OH236693   4.562   1.163  15.554 -0.3691  0.6527 -0.6715
 5093TIP3    H136694   4.647   1.138  15.518 -0.5722  1.7228 -1.9847
 5093TIP3    H236695   4.571   1.256  15.573 -1.5814  1.0516 -1.9138
 5094TIP3   OH236696   5.084   5.177  15.412 -0.3415  0.1940  0.1514
 5094TIP3    H136697   5.106   5.267  15.435 -2.1192  0.4485  0.9609
 5094TIP3    H236698   5.120   5.166  15.324  0.4273  1.4759  0.2737
 5095TIP3   OH236699   1.727   5.174   2.023  0.0719  0.5164 -0.4424
 5095TIP3    H136700   1.719   5.082   2.047  0.6657  0.1488 -1.5837
 5095TIP3    H236701   1.821   5.189   2.015 -0.0067 -0.0617 -4.7924
 5096TIP3   OH236702   3.230   1.468  15.909 -0.1197 -0.4342  0.0002
 5096TIP3    H136703   3.268   1.547  15.948 -0.2980 -0.5464  0.4097
 5096TIP3    H236704   3.217   1.409  15.983  0.1569 -0.9087 -0.3227
 5097TIP3   OH236705   1.681   2.591   1.432 -0.0221  0.2692 -0.8412
 5097TIP3    H136706   1.609   2.650   1.454  0.1194 -0.6704  2.6976
 5097TIP3    H236707   1.644   2.503   1.438  1.1914 -0.2007  0.3135
 5098TIP3   OH236708   5.761   6.714  11.630  0.6486  0.2039  0.0664
 5098TIP3    H136709   5.684   6.772  11.633 -0.2071 -0.9332  0.8092
 5098TIP3    H236710   5.759   6.678  11.541  0.5800  0.5333 -0.0662
 5099TIP3   OH236711   2.544   2.634  17.157 -0.3659 -0.1283 -0.4620
 5099TIP3    H136712   2.626   2.661  17.115  0.9660 -1.8604  0.8406
 5099TIP3    H236713   2.571   2.598  17.241 -2.6550  0.5738  0.6618
 5100TIP3   OH236714   1.493   6.719  12.347 -0.2645  0.9167  0.0140
 5100TIP3    H136715   1.543   6.687  12.272 -2.3973 -0.6916 -0.8320
 5100TIP3    H236716   1.433   6.784  12.310 -1.0504  0.4084  0.3623
 5101TIP3   OH236717   6.055   0.453   3.334 -0.0139  0.7404 -0.1217
 5101TIP3    H136718   5.991   0.494   3.392 -0.3507 -0.1931  0.1954
 5101TIP3    H236719   6.032   0.360   3.336  0.3831  0.6046 -1.2460
 5102TIP3   OH236720   1.739   3.786   2.510 -0.2390 -0.9094 -0.4825
 5102TIP3    H136721   1.798   3.756   2.579  1.5591  1.5605 -0.8262
 5102TIP3    H236722   1.669   3.831   2.556  0.0956 -0.6667 -0.2057
 5103TIP3   OH236723   3.669   5.820   4.889 -0.3461  0.3687  0.9505
 5103TIP3    H136724   3.576   5.835   4.869 -0.4263 -1.0461  0.1241
 5103TIP3    H236725   3.710   5.906   4.877 -1.3354  0.7370 -0.0026
 5104TIP3   OH236726   1.223   6.195  14.663  0.0875 -0.1947 -0.1279
 5104TIP3    H136727   1.151   6.137  14.687 -0.4146 -0.6832 -2.5628
 5104TIP3    H236728   1.191   6.283  14.683 -2.0545 -0.2235 -2.8886
 5105TIP3   OH236729   3.011   1.526  13.884 -0.0841 -0.4068  0.0409
 5105TIP3    H136730   2.960   1.598  13.921  0.7680 -0.6003  1.6853
 5105TIP3    H236731   3.076   1.569  13.828 -1.2362 -0.0958 -1.1134
 5106TIP3   OH236732   5.558   0.214   4.882  0.5438 -0.1148  0.0108
 5106TIP3    H136733   5.626   0.178   4.940 -0.9522 -0.9350  1.3353
 5106TIP3    H236734   5.482   0.159   4.897 -1.1782  2.1926  0.3880
 5107TIP3   OH236735   0.705   5.489  15.958 -0.4674  0.4389  0.3444
 5107TIP3    H136736   0.708   5.522  15.869 -0.6208  0.5109  0.3647
 5107TIP3    H236737   0.782   5.526  16.001  1.7395 -2.5096 -0.7519
 5108TIP3   OH236738   2.481   5.556  11.214 -0.0947 -0.0733 -0.1697
 5108TIP3    H136739   2.408   5.524  11.268 -0.1169 -0.7697 -0.5962
 5108TIP3    H236740   2.495   5.487  11.149  2.0004 -0.7088  0.8704
 5109TIP3   OH236741   2.143   1.456  15.252 -0.0376  0.3480 -0.1378
 5109TIP3    H136742   2.229   1.432  15.284 -0.2556 -0.7181 -0.3249
 5109TIP3    H236743   2.084   1.391  15.289 -0.8949  1.5349  0.6609
 5110TIP3   OH236744   2.916   4.582  12.044 -0.4700  0.3404 -0.4954
 5110TIP3    H136745   2.895   4.676  12.046 -2.5631 -0.0836 -0.5322
 5110TIP3    H236746   2.832   4.538  12.057  0.8686 -1.5624  2.7718
 5111TIP3   OH236747   1.300   2.164   2.500 -0.0788 -0.7197  0.3166
 5111TIP3    H136748   1.321   2.236   2.439 -2.5681  0.9347  1.2292
 5111TIP3    H236749   1.205   2.167   2.507  0.0466 -1.1165  3.9262
 5112TIP3   OH236750   3.315   5.629  13.124  0.3795  0.1910 -0.5817
 5112TIP3    H136751   3.288   5.700  13.183  0.0660 -0.0270 -0.4623
 5112TIP3    H236752   3.393   5.663  13.081  0.3401  0.5378 -0.3859
 5113TIP3   OH236753   1.575   5.983  14.211  0.8169  0.0292  0.1814
 5113TIP3    H136754   1.494   5.956  14.166  1.6408 -2.2882 -0.0436
 5113TIP3    H236755   1.563   5.954  14.301  0.2519  2.3308  0.9160
 5114TIP3   OH236756   5.219   2.501   0.033 -0.3160 -0.3408  0.6752
 5114TIP3    H136757   5.302   2.526  -0.007 -0.6103 -0.1501  0.1681
 5114TIP3    H236758   5.159   2.572   0.009 -0.6710 -0.5730  0.8711
 5115TIP3   OH236759   0.558   4.429  16.740 -0.0267  0.4352  0.8345
 5115TIP3    H136760   0.502   4.378  16.683  0.4099  2.1260 -1.2171
 5115TIP3    H236761   0.503   4.500  16.772  0.0051  0.0551  1.7973
 5116TIP3   OH236762   1.682   0.809  13.665 -0.7245  0.2460 -0.4106
 5116TIP3    H136763   1.608   0.863  13.637  0.1238  1.0870 -1.1129
 5116TIP3    H236764   1.651   0.766  13.745 -1.9543  0.5915 -0.6735
 5117TIP3   OH236765   2.483   6.622   0.387 -0.2491  0.3161  0.2691
 5117TIP3    H136766   2.405   6.568   0.372  0.1553 -0.6652  1.5122
 5117TIP3    H236767   2.543   6.596   0.318  0.1859 -1.3569  1.2225
 5118TIP3   OH236768   6.127   2.012   4.067 -0.2819  0.4032  0.3185
 5118TIP3    H136769   6.213   1.986   4.034 -0.6815  0.1637 -0.5533
 5118TIP3    H236770   6.126   1.982   4.158  1.0231  1.4935  0.7343
 5119TIP3   OH236771   1.704   1.558   5.835 -0.0274 -0.4657  0.1268
 5119TIP3    H136772   1.647   1.484   5.813 -0.7324  0.0464  0.1970
 5119TIP3    H236773   1.730   1.542   5.926 -0.0100 -0.7270  0.0775
 5120TIP3   OH236774   1.711   1.907  12.433 -0.6279 -0.4014 -0.2514
 5120TIP3    H136775   1.785   1.967  12.443  0.7195 -2.0098  0.0005
 5120TIP3    H236776   1.636   1.954  12.468  0.3914  1.0653  0.0513
 5121TIP3   OH236777   3.978   1.787  11.481  0.4302  0.2980 -0.0296
 5121TIP3    H136778   4.047   1.836  11.525  0.6388  1.3491 -1.4292
 5121TIP3    H236779   3.911   1.853  11.463 -0.6563 -0.5698  0.7075
 5122TIP3   OH236780   5.369   3.737  16.978  0.1517 -0.2688  0.1567
 5122TIP3    H136781   5.446   3.785  16.949  0.6471 -0.9689  0.2600
 5122TIP3    H236782   5.397   3.697  17.061 -0.1907 -0.8475 -0.0044
 5123TIP3   OH236783   1.232   5.736  12.989  0.2056  0.5597 -0.4467
 5123TIP3    H136784   1.297   5.774  13.047 -0.7379  2.1358 -0.3587
 5123TIP3    H236785   1.273   5.739  12.902  0.9900 -0.3004 -0.1193
 5124TIP3   OH236786   5.806   3.480   4.342  0.3215  0.4254 -0.3233
 5124TIP3    H136787   5.895   3.446   4.339  0.0281 -0.3712 -0.3372
 5124TIP3    H236788   5.788   3.495   4.435 -0.0177 -0.7768 -0.1812
 5125TIP3   OH236789   1.987   1.949   3.955  0.4695  0.2308  0.4885
 5125TIP3    H136790   1.892   1.942   3.962  0.2572  0.3054 -1.5421
 5125TIP3    H236791   2.019   1.949   4.045 -1.5241  1.2775  1.2340
 5126TIP3   OH236792   1.067   3.307   2.710  0.0314  0.4340 -0.1914
 5126TIP3    H136793   1.161   3.296   2.718 -0.0950 -0.6069  0.0651
 5126TIP3    H236794   1.053   3.325   2.617  0.3320 -1.5979 -0.6871
 5127TIP3   OH236795   1.076   0.159  13.425  0.1751  0.1134 -0.0501
 5127TIP3    H136796   1.138   0.229  13.445  0.7354 -0.4332  0.1261
 5127TIP3    H236797   1.048   0.126  13.510  1.5082 -1.2803 -0.1122
 5128TIP3   OH236798   3.632   6.472   4.036  0.2306 -0.1305  0.0108
 5128TIP3    H136799   3.620   6.566   4.027 -0.7029 -0.4214 -2.2780
 5128TIP3    H236800   3.544   6.436   4.032  0.6634 -1.1924 -0.2625
 5129TIP3   OH236801   0.768   4.540   1.587 -0.4518  0.2603 -0.0893
 5129TIP3    H136802   0.814   4.469   1.632  3.1373  2.9427  0.9270
 5129TIP3    H236803   0.732   4.594   1.658 -2.6265 -0.1054 -0.8280
 5130TIP3   OH236804   1.324   3.468   5.691  0.7323  0.3202 -0.1591
 5130TIP3    H136805   1.335   3.384   5.736 -1.7000  0.6405  1.2270
 5130TIP3    H236806   1.343   3.534   5.757 -0.8728  0.8047 -0.1284
 5131TIP3   OH236807   5.679   2.523   1.440 -0.3468 -0.4081  0.3878
 5131TIP3    H136808   5.670   2.569   1.524  0.2419  1.4937 -0.5231
 5131TIP3    H236809   5.774   2.519   1.426 -0.4599  0.5138 -0.7827
 5132TIP3   OH236810   0.819   6.508   3.572 -0.2430 -0.2311  0.4459
 5132TIP3    H136811   0.825   6.546   3.484  0.7586 -1.0588  0.1220
 5132TIP3    H236812   0.828   6.582   3.631 -0.9068  0.3369 -0.1498
 5133TIP3   OH236813   3.591   5.161   3.733 -0.5675  0.9117 -0.4040
 5133TIP3    H136814   3.637   5.242   3.755 -1.7610  1.3857  0.4955
 5133TIP3    H236815   3.640   5.092   3.778 -1.3161  1.5353  1.5071
 5134TIP3   OH236816   6.692   5.978   0.069  0.0321  0.0603  0.0123
 5134TIP3    H136817   6.699   6.018  -0.018 -1.8274  1.3972  0.4117
 5134TIP3    H236818   6.619   6.024   0.110  1.1405 -0.2479  2.4695
 5135TIP3   OH236819   2.516   2.622   1.782  0.5295  0.1622 -0.4051
 5135TIP3    H136820   2.516   2.609   1.688 -0.1755  0.4765 -0.4584
 5135TIP3    H236821   2.467   2.547   1.817 -0.4541  0.7690 -0.4219
 5136TIP3   OH236822   6.605   3.561  15.213  0.1519  1.0332  0.0791
 5136TIP3    H136823   6.537   3.575  15.147 -0.9012 -0.1758  0.8823
 5136TIP3    H236824   6.649   3.481  15.185 -0.9068 -0.0105  1.3189
 5137TIP3   OH236825   5.304   4.816  12.754  0.8063 -0.5440 -0.2311
 5137TIP3    H136826   5.324   4.813  12.847 -1.9383 -1.3714  0.4087
 5137TIP3    H236827   5.363   4.751  12.715  1.9899 -0.1872  0.8764
 5138TIP3   OH236828   2.551   3.538  14.681 -0.2269 -0.0886  1.0462
 5138TIP3    H136829   2.625   3.562  14.735 -0.3475  2.1599  0.3197
 5138TIP3    H236830   2.555   3.443  14.674  2.4617 -0.0437  1.1832
 5139TIP3   OH236831   4.762   5.214   6.557  0.0373 -0.2219  0.2349
 5139TIP3    H136832   4.682   5.234   6.605 -0.2604  0.1974 -0.4266
 5139TIP3    H236833   4.742   5.134   6.508  1.0430 -1.9423  2.4335
 5140TIP3   OH236834   4.595   0.779  17.450  0.3906 -0.0005  0.6262
 5140TIP3    H136835   4.685   0.804  17.471 -0.2146  2.5575  0.5074
 5140TIP3    H236836   4.590   0.782  17.354  0.6006 -1.9007  0.5277
 5141TIP3   OH236837   4.724   4.198  12.338  0.0268 -0.3588  0.2676
 5141TIP3    H136838   4.796   4.138  12.359 -1.1097 -1.7252  0.3959
 5141TIP3    H236839   4.663   4.189  12.412 -0.7800 -0.0231 -0.3477
 5142TIP3   OH236840   4.050   2.174   4.379 -0.2319 -0.2044 -0.5166
 5142TIP3    H136841   3.985   2.164   4.449  0.9402 -2.3624  0.3525
 5142TIP3    H236842   4.009   2.134   4.303  0.0160 -1.5231  0.0189
 5143TIP3   OH236843   0.244   5.173  16.737  0.1188  0.5104  0.1039
 5143TIP3    H136844   0.325   5.223  16.738  0.6021 -0.2557  0.6249
 5143TIP3    H236845   0.252   5.116  16.660 -0.2073  0.8725 -0.2023
 5144TIP3   OH236846   1.477   0.389  10.961  0.0201  0.5508  0.3515
 5144TIP3    H136847   1.561   0.400  10.917  0.5527 -2.2355  0.4961
 5144TIP3    H236848   1.424   0.340  10.899 -0.2002 -0.9160  1.6315
 5145TIP3   OH236849   0.028   5.383   2.425  0.5565  0.0532 -0.0219
 5145TIP3    H136850  -0.026   5.312   2.391  1.0241  0.1343 -0.9674
 5145TIP3    H236851   0.017   5.378   2.520 -0.1278 -0.7075 -0.1302
 5146TIP3   OH236852   2.527   1.071  11.744  0.4346 -0.1376  0.0893
 5146TIP3    H136853   2.550   1.112  11.660  0.0318 -1.4919 -0.7127
 5146TIP3    H236854   2.462   1.131  11.782 -2.9064 -1.6216 -2.7030
 5147TIP3   OH236855   0.221   5.720  11.006  0.0649 -0.3140 -0.2586
 5147TIP3    H136856   0.249   5.721  11.098  0.5403 -2.0390 -0.3569
 5147TIP3    H236857   0.243   5.808  10.974 -0.5764  0.5103  1.3889
 5148TIP3   OH236858   4.230   0.870   6.526 -0.6749  0.2068  0.3120
 5148TIP3    H136859   4.135   0.865   6.519 -0.7124 -1.5394  1.5467
 5148TIP3    H236860   4.260   0.883   6.435 -2.0502  0.4578 -0.1278
 5149TIP3   OH236861   5.174   5.376  12.022  0.4931  0.1286  0.5097
 5149TIP3    H136862   5.116   5.407  11.953  0.6628  0.2189  0.4079
 5149TIP3    H236863   5.216   5.299  11.986  0.1451 -0.1668  0.7294
 5150TIP3   OH236864   0.189   2.555  14.405  0.2081  0.4922  0.5095
 5150TIP3    H136865   0.274   2.588  14.435  0.2432  0.5631  0.3405
 5150TIP3    H236866   0.206   2.526  14.315  0.3024 -0.5124  0.8497
 5151TIP3   OH236867   0.914   6.151   2.376  0.2489 -0.4117 -0.0040
 5151TIP3    H136868   0.833   6.198   2.394  0.6349  0.4718 -0.5098
 5151TIP3    H236869   0.926   6.094   2.452 -1.9955 -2.2536 -0.9170
 5152TIP3   OH236870   0.892   1.955  12.426 -0.1324 -0.0819 -0.0689
 5152TIP3    H136871   0.880   1.865  12.455  0.7346  0.0837  0.8418
 5152TIP3    H236872   0.942   1.947  12.344 -2.4823 -0.5400 -1.5364
 5153TIP3   OH236873   4.714   4.437  17.452 -0.1035 -0.5750  0.3059
 5153TIP3    H136874   4.656   4.440  17.376  0.3617  0.1980 -0.0204
 5153TIP3    H236875   4.655   4.430  17.527 -0.8097  2.8065  0.2071
 5154TIP3   OH236876   4.201   2.178  13.118  0.2492 -0.2658  0.2231
 5154TIP3    H136877   4.184   2.240  13.047 -1.2180 -0.8525  0.0221
 5154TIP3    H236878   4.210   2.093  13.074 -1.0069 -0.6851  0.7429
 5155TIP3   OH236879   4.378   6.182  13.984 -0.0004  0.4493  0.3943
 5155TIP3    H136880   4.373   6.274  14.009 -2.0397  0.2477  0.8961
 5155TIP3    H236881   4.428   6.182  13.902  0.7548  1.8947  0.8224
 5156TIP3   OH236882   2.068   2.769   5.612  0.9496  0.0160  0.1532
 5156TIP3    H136883   2.161   2.792   5.611  0.5480  1.8258 -1.6471
 5156TIP3    H236884   2.048   2.744   5.522 -0.4643  0.3949  0.3376
 5157TIP3   OH236885   1.071   5.679   3.036 -0.2702 -0.0294 -0.1051
 5157TIP3    H136886   1.161   5.648   3.028  0.5743  1.8645  1.2849
 5157TIP3    H236887   1.058   5.693   3.130 -1.9819 -0.1461 -0.2827
 5158TIP3   OH236888   4.685   6.730   0.932 -0.2193  0.1015  0.3419
 5158TIP3    H136889   4.613   6.693   0.881  0.1058 -0.4907  0.3019
 5158TIP3    H236890   4.672   6.694   1.020 -2.2036  3.0019  1.4033
 5159TIP3   OH236891   2.539   3.342  16.524 -0.0952  0.1718  0.0280
 5159TIP3    H136892   2.621   3.365  16.568 -0.2910 -1.3233  1.2746
 5159TIP3    H236893   2.473   3.398  16.565  0.2957  1.4554 -1.0546
 5160TIP3   OH236894   1.269   0.123   3.144  0.5596 -0.3870  0.3969
 5160TIP3    H136895   1.287   0.066   3.218  0.0301  1.9530  2.4938
 5160TIP3    H236896   1.347   0.178   3.136  0.2110  0.0466 -0.1481
 5161TIP3   OH236897   2.030   1.578  15.700 -0.1979  0.0450 -0.4409
 5161TIP3    H136898   2.113   1.607  15.662 -0.1310 -1.0869 -1.2344
 5161TIP3    H236899   2.054   1.539  15.784  0.3153 -1.5642 -1.2814
 5162TIP3   OH236900   5.279   1.151  11.546  0.3539 -0.5307  0.1821
 5162TIP3    H136901   5.328   1.189  11.618 -0.7991  0.4624  0.4810
 5162TIP3    H236902   5.229   1.224  11.510  0.4671 -1.1299 -1.2581
 5163TIP3   OH236903   0.953   1.796   2.097  0.8541 -0.4000 -0.0575
 5163TIP3    H136904   1.031   1.746   2.074  1.1459 -0.0696  0.2038
 5163TIP3    H236905   0.910   1.813   2.013  1.1124 -0.4993 -0.2092
 5164TIP3   OH236906   4.682   2.037   0.378 -0.0816 -0.5102 -0.2827
 5164TIP3    H136907   4.710   1.992   0.458 -0.0324 -2.1764 -1.1795
 5164TIP3    H236908   4.665   1.966   0.315  0.9496  0.7691 -2.1146
 5165TIP3   OH236909   1.512   4.271   2.761  0.2397 -0.5004 -0.2846
 5165TIP3    H136910   1.420   4.288   2.779  0.6580 -0.0264  1.6797
 5165TIP3    H236911   1.528   4.311   2.676 -0.9175  1.2585  0.2714
 5166TIP3   OH236912   0.091   1.261  14.959 -0.4934 -0.4227 -0.1930
 5166TIP3    H136913   0.082   1.343  15.008 -1.6709 -0.7136  0.0984
 5166TIP3    H236914   0.044   1.277  14.877  0.7497 -0.2317 -0.9057
 5167TIP3   OH236915   6.621   3.336  13.189 -0.2182 -0.5230 -0.4753
 5167TIP3    H136916   6.647   3.251  13.154  0.7811  0.3415 -1.9585
 5167TIP3    H236917   6.608   3.321  13.283  1.8850 -1.8848 -0.3496
 5168TIP3   OH236918   6.628   6.679  15.361 -0.0471 -0.8073 -0.5917
 5168TIP3    H136919   6.654   6.739  15.432 -1.9379 -0.9089  0.2239
 5168TIP3    H236920   6.711   6.657  15.318  0.8051  1.9066 -0.5455
 5169TIP3   OH236921   5.340   5.108   5.398 -0.2757  0.3443  0.3925
 5169TIP3    H136922   5.276   5.148   5.457  0.5386  1.3728  0.5973
 5169TIP3    H236923   5.389   5.181   5.361 -1.4352 -0.1651 -2.4126
 5170TIP3   OH236924   1.821   1.163  14.580  0.4103 -0.2667  0.0492
 5170TIP3    H136925   1.817   1.198  14.491 -2.1078  0.8976  0.5469
 5170TIP3    H236926   1.853   1.074  14.569  0.2357 -0.1178 -2.0290
 5171TIP3   OH236927   0.028   1.012   6.285  0.0279  0.1751 -0.5652
 5171TIP3    H136928  -0.007   0.971   6.364 -0.0678  1.9895  0.4005
 5171TIP3    H236929   0.103   1.063   6.316  0.4822  0.2678 -1.7805
 5172TIP3   OH236930   4.447   0.067  10.523 -0.3956 -0.2441  0.2244
 5172TIP3    H136931   4.541   0.083  10.528  0.1442 -3.1111  1.1732
 5172TIP3    H236932   4.433   0.037  10.433 -0.6747  1.3443 -0.2927
 5173TIP3   OH236933   2.801   6.654   3.853  0.0513  0.7179  0.1229
 5173TIP3    H136934   2.763   6.643   3.941 -1.0782 -1.0073 -0.5295
 5173TIP3    H236935   2.810   6.749   3.843 -1.0463  1.0161  1.5975
 5174TIP3   OH236936   3.052   2.592  14.924 -0.1110  0.3344  0.3117
 5174TIP3    H136937   3.046   2.546  15.008  0.8896  0.2031  0.3197
 5174TIP3    H236938   3.146   2.610  14.913 -0.3600  1.3994 -0.2126
 5175TIP3   OH236939   0.081   2.920   0.240 -0.9306  0.0118  0.0907
 5175TIP3    H136940   0.009   2.864   0.211 -1.0381  0.0864  0.2085
 5175TIP3    H236941   0.150   2.908   0.174  0.4069 -2.8850  1.7821
 5176TIP3   OH236942   4.799   0.916  10.868  0.7371  0.4344  0.2799
 5176TIP3    H136943   4.881   0.905  10.916  0.6235 -1.1198  0.1840
 5176TIP3    H236944   4.732   0.928  10.936  0.9559  1.0544  0.3846
 5177TIP3   OH236945   1.917   3.475  13.821  0.0726 -0.3219 -0.6050
 5177TIP3    H136946   1.835   3.521  13.801 -0.1780 -0.3842  0.2429
 5177TIP3    H236947   1.983   3.519  13.768 -0.4325  0.0311 -0.9464
 5178TIP3   OH236948   1.541   5.533  11.823  0.6347 -0.0605  0.3178
 5178TIP3    H136949   1.448   5.552  11.832  0.3583 -0.8161 -0.7856
 5178TIP3    H236950   1.553   5.515  11.730  1.8435 -0.2134  0.4860
 5179TIP3   OH236951   0.356   3.905   6.328  0.3696 -0.8966  0.3150
 5179TIP3    H136952   0.295   3.934   6.397  1.3996 -0.3199  1.0079
 5179TIP3    H236953   0.299   3.872   6.258 -0.8602  1.4223  0.1124
 5180TIP3   OH236954   5.756   5.757  12.747  0.5762 -0.2954 -0.3870
 5180TIP3    H136955   5.720   5.793  12.667  0.7313  1.2995  0.2373
 5180TIP3    H236956   5.737   5.663  12.741  0.0347 -0.1113 -1.9806
 5181TIP3   OH236957   1.463   2.490   0.840 -0.1986 -0.2196 -0.4547
 5181TIP3    H136958   1.531   2.496   0.773 -0.1971  1.0018 -0.3549
 5181TIP3    H236959   1.442   2.396   0.843  2.2071 -0.8055  0.2526
 5182TIP3   OH236960   2.353   2.788   0.913  0.4884 -0.6329  0.1803
 5182TIP3    H136961   2.332   2.866   0.965  1.7100 -1.2334  1.6371
 5182TIP3    H236962   2.268   2.753   0.887 -0.1411  0.0128  1.3047
 5183TIP3   OH236963   1.943   0.731   5.429 -0.3202  0.0144  0.0383
 5183TIP3    H136964   1.971   0.803   5.487 -0.9398 -0.0522  0.4283
 5183TIP3    H236965   1.884   0.773   5.367 -2.2250 -0.4638  1.4388
 5184TIP3   OH236966   1.441   1.414  16.854  0.3695 -0.5291  0.3532
 5184TIP3    H136967   1.474   1.486  16.801  0.1157 -1.2839 -0.8800
 5184TIP3    H236968   1.353   1.397  16.819  0.3323 -1.2646  0.7855
 5185TIP3   OH236969   2.204   1.671   5.356  0.0652 -0.0034 -0.1298
 5185TIP3    H136970   2.211   1.738   5.424  2.5111 -0.2055 -0.0832
 5185TIP3    H236971   2.220   1.719   5.274 -2.0949  0.1015 -0.5428
 5186TIP3   OH236972   6.179   3.112   3.552 -0.1829  0.4854 -0.7572
 5186TIP3    H136973   6.225   3.145   3.629 -0.0321 -0.0339 -0.6239
 5186TIP3    H236974   6.180   3.186   3.490  0.2789  0.6843 -0.5187
 5187TIP3   OH236975   5.278   3.275  12.216 -0.0458  0.6599 -0.0990
 5187TIP3    H136976   5.348   3.219  12.250 -1.2782 -1.8595 -1.4230
 5187TIP3    H236977   5.200   3.250  12.267 -0.1131  3.2990  1.2447
 5188TIP3   OH236978   6.045   4.869  15.116 -0.6860  0.0465 -0.5633
 5188TIP3    H136979   6.059   4.789  15.168  3.3672  1.2565  0.5382
 5188TIP3    H236980   6.011   4.932  15.179 -0.7626  0.0811 -0.6394
 5189TIP3   OH236981   0.384   3.696  17.469  0.0113  0.3178 -0.1122
 5189TIP3    H136982   0.479   3.703  17.473 -0.0422  0.5152  1.0263
 5189TIP3    H236983   0.362   3.722  17.379  1.0574 -0.1817 -0.5345
 5190TIP3   OH236984   3.767   2.795  16.402  0.4965 -0.0396  0.1663
 5190TIP3    H136985   3.801   2.760  16.484 -0.0905  0.6151  0.7043
 5190TIP3    H236986   3.845   2.817  16.351  0.8641 -0.8277  0.3786
 5191TIP3   OH236987   6.229   2.955   5.680 -0.0949  0.2047  0.0689
 5191TIP3    H136988   6.248   2.947   5.587  2.1929 -1.0877  0.5578
 5191TIP3    H236989   6.194   2.869   5.705  0.4827  0.1209  0.6188
 5192TIP3   OH236990   0.492   4.569   4.049  0.0673  0.0481  0.3448
 5192TIP3    H136991   0.524   4.656   4.023  0.7333  0.3250  1.9193
 5192TIP3    H236992   0.545   4.547   4.126 -1.7133 -0.7075  1.4038
 5193TIP3   OH236993   3.088   2.033  14.805  0.5249  0.5477  0.5108
 5193TIP3    H136994   3.000   2.054  14.774 -0.6630 -1.4272  2.2834
 5193TIP3    H236995   3.139   2.021  14.725 -1.3112 -0.1266 -0.6245
 5194TIP3   OH236996   1.311   5.664   2.777  0.3761  0.6705  0.7020
 5194TIP3    H136997   1.250   5.737   2.772  0.6726  0.8766 -0.0113
 5194TIP3    H236998   1.281   5.603   2.710 -0.0176  0.0213  1.4586
 5195TIP3   OH236999   0.475   2.948   0.101 -0.3181  0.1901  0.3270
 5195TIP3    H137000   0.449   2.956   0.009  0.9576  1.3588  0.0248
 5195TIP3    H237001   0.477   3.039   0.133  1.7723  0.0466  0.7502
 5196TIP3   OH237002   0.762   0.440   2.386  0.1654 -0.0887 -0.0090
 5196TIP3    H137003   0.732   0.493   2.312 -0.0072  0.6196  0.5476
 5196TIP3    H237004   0.832   0.492   2.426 -0.5998  0.1564  1.0690
 5197TIP3   OH237005   2.350   4.091   0.652 -0.3947 -0.7355 -0.0030
 5197TIP3    H137006   2.380   4.067   0.739  0.4647 -1.0435 -0.3646
 5197TIP3    H237007   2.321   4.008   0.613 -1.4091 -0.4912  0.2212
 5198TIP3   OH237008   0.857   1.779   5.351 -0.7689  0.5558  0.6287
 5198TIP3    H137009   0.928   1.737   5.399  0.4596 -0.6289 -2.0391
 5198TIP3    H237010   0.784   1.718   5.359 -0.3352 -0.0111  0.3680
 5199TIP3   OH237011   0.281   6.189  13.974  0.5180 -0.1979 -0.1733
 5199TIP3    H137012   0.336   6.268  13.976  0.3426 -0.0827  0.7571
 5199TIP3    H237013   0.229   6.198  13.894  1.0562  0.2401 -0.4863
 5200TIP3   OH237014   5.227   2.808   0.563 -0.4143  0.2049  0.0959
 5200TIP3    H137015   5.185   2.892   0.580 -1.0957 -0.2344  0.5815
 5200TIP3    H237016   5.160   2.755   0.521 -0.0430 -0.1685 -0.0372
 5201TIP3   OH237017   5.565   5.904   0.544  0.1079 -0.6269  0.3802
 5201TIP3    H137018   5.488   5.959   0.534 -0.2151 -1.3000 -0.9970
 5201TIP3    H237019   5.563   5.877   0.636 -0.7623  0.1115  0.5913
 5202TIP3   OH237020   6.138   0.088   4.347 -0.4061 -0.4358 -0.6720
 5202TIP3    H137021   6.206   0.021   4.332  0.3704 -0.2658  1.6189
 5202TIP3    H237022   6.186   0.165   4.376 -1.4571  0.3495 -0.9630
 5203TIP3   OH237023   0.678   3.255  15.114  0.1175 -0.0394  0.1861
 5203TIP3    H137024   0.681   3.169  15.156  0.6721 -0.4879 -0.7457
 5203TIP3    H237025   0.755   3.301  15.149  0.7730 -0.5360 -0.5896
 5204TIP3   OH237026   1.262   6.223  13.982 -0.3426  0.3138 -0.0517
 5204TIP3    H137027   1.192   6.284  14.006  0.2498  0.4575  1.4670
 5204TIP3    H237028   1.325   6.229  14.054 -0.5101 -2.4834  0.4558
 5205TIP3   OH237029   4.694   4.327   5.075  0.3006  0.4256 -0.0063
 5205TIP3    H137030   4.662   4.356   5.161 -0.4874  0.1900 -0.2141
 5205TIP3    H237031   4.618   4.286   5.034  0.4349  1.2526 -1.1450
 5206TIP3   OH237032   0.818   5.012   0.279 -0.5511  0.4187  0.0572
 5206TIP3    H137033   0.758   4.974   0.343  0.2236  1.1932  1.2709
 5206TIP3    H237034   0.817   5.106   0.296  0.8943  0.4695  0.0292
 5207TIP3   OH237035   5.946   4.476  13.626 -0.2994  0.0768  0.5060
 5207TIP3    H137036   5.951   4.386  13.660 -1.9439  0.0120  0.6668
 5207TIP3    H237037   5.972   4.469  13.534  0.3680 -0.4279  0.7317
 5208TIP3   OH237038   4.577   4.256  15.004  1.1883 -0.2681  0.9163
 5208TIP3    H137039   4.551   4.231  14.915  0.0017  1.2613  0.7968
 5208TIP3    H237040   4.632   4.334  14.992  0.2843  0.4895  1.5455
 5209TIP3   OH237041   4.466   6.526   5.713 -0.1010  0.0356  0.5235
 5209TIP3    H137042   4.385   6.499   5.670  0.1858 -0.1819  0.1139
 5209TIP3    H237043   4.437   6.570   5.793 -0.6880  1.1014 -0.2333
 5210TIP3   OH237044   3.274   6.383  13.951 -0.2027  0.2633  0.0490
 5210TIP3    H137045   3.319   6.309  13.909  0.6120  0.7775 -0.0060
 5210TIP3    H237046   3.203   6.342  14.001  0.3575 -0.5701  0.1866
 5211TIP3   OH237047   3.133   5.787   1.100  0.2449 -0.4033  0.0773
 5211TIP3    H137048   3.199   5.718   1.101 -0.1073 -0.7672  1.8560
 5211TIP3    H237049   3.118   5.805   1.007  2.6120 -0.5142 -0.3930
 5212TIP3   OH237050   6.265   0.604  16.465 -0.2882  0.1787  0.1803
 5212TIP3    H137051   6.341   0.581  16.412  0.0651  0.4474  0.5723
 5212TIP3    H237052   6.225   0.519  16.486  1.7145 -0.2553  2.6610
 5213TIP3   OH237053   4.447   3.509   0.632  0.3328  0.5051 -0.1417
 5213TIP3    H137054   4.395   3.580   0.594  0.1014  0.9580  0.9789
 5213TIP3    H237055   4.432   3.435   0.574  1.6996  1.7019 -2.1684
 5214TIP3   OH237056   0.101   2.649   5.631  0.1390  0.4545  0.6642
 5214TIP3    H137057   0.112   2.739   5.600  2.3226  0.4673  1.3511
 5214TIP3    H237058   0.160   2.597   5.575 -1.5359 -0.6913 -0.1322
 5215TIP3   OH237059   1.213   0.373   0.109  0.4110  0.1508 -0.5293
 5215TIP3    H137060   1.169   0.433   0.049  1.3714  0.0896 -1.3312
 5215TIP3    H237061   1.151   0.359   0.181 -0.6750  0.3870 -1.4122
 5216TIP3   OH237062   3.859   0.037  13.154  0.2751  0.6892  0.1212
 5216TIP3    H137063   3.886   0.129  13.164 -0.6363  0.7377  4.1339
 5216TIP3    H237064   3.939  -0.013  13.172  0.3017  0.7182  0.0843
 5217TIP3   OH237065   2.837   4.469  14.534  0.2040 -0.4402 -0.0353
 5217TIP3    H137066   2.822   4.435  14.445  1.1243 -1.9190  0.3352
 5217TIP3    H237067   2.849   4.391  14.587 -2.0158  0.3298  1.7698
 5218TIP3   OH237068   1.470   1.567  13.775 -0.3935 -1.1902 -0.5496
 5218TIP3    H137069   1.391   1.585  13.725  0.1326 -0.3429 -1.0834
 5218TIP3    H237070   1.492   1.476  13.753 -0.2744 -0.8903 -1.7191
 5219TIP3   OH237071   3.394   2.644   0.541  0.0159 -0.3667 -0.0626
 5219TIP3    H137072   3.371   2.559   0.580 -0.3560 -0.6087 -0.7835
 5219TIP3    H237073   3.445   2.621   0.463  3.1207  0.1566  1.6815
 5220TIP3   OH237074   4.254   3.542   4.089  0.2639 -0.4671  0.2085
 5220TIP3    H137075   4.299   3.577   4.166 -0.3126 -0.9837  0.8034
 5220TIP3    H237076   4.316   3.553   4.017  0.0456  1.8968  0.3204
 5221TIP3   OH237077   3.629   2.918  15.504  0.0697  0.0033  0.2252
 5221TIP3    H137078   3.724   2.915  15.506  0.1245  1.3404  1.4017
 5221TIP3    H237079   3.608   3.007  15.475 -0.8062 -0.1570  0.3262
 5222TIP3   OH237080   1.108   0.046   4.152 -0.3957  0.4542  0.5236
 5222TIP3    H137081   1.062  -0.031   4.120  0.4037  0.5869 -1.0733
 5222TIP3    H237082   1.201   0.022   4.148 -0.1822  1.1659  0.9246
 5223TIP3   OH237083   0.669   4.890   0.482 -0.3531  0.7789 -0.0951
 5223TIP3    H137084   0.724   4.820   0.448 -0.3520  0.8806 -0.3090
 5223TIP3    H237085   0.617   4.850   0.551  0.4738  0.8444  0.5712
 5224TIP3   OH237086   5.523   3.842  15.559 -0.3572 -0.1337  0.0135
 5224TIP3    H137087   5.597   3.845  15.500 -0.4685 -0.5489 -0.1539
 5224TIP3    H237088   5.450   3.810  15.505 -0.3123 -1.1212  0.5131
 5225TIP3   OH237089   4.531   6.592  17.092  0.1615  0.4125  0.0701
 5225TIP3    H137090   4.523   6.501  17.064 -0.3593  0.3125  0.5150
 5225TIP3    H237091   4.590   6.589  17.168 -0.6228  0.3024  0.6924
 5226TIP3   OH237092   1.462   6.519  13.906 -0.7579  0.1476 -0.0785
 5226TIP3    H137093   1.374   6.540  13.938 -0.3488  0.1268  1.0941
 5226TIP3    H237094   1.517   6.523  13.984  0.4782  1.2330 -0.9775
 5227TIP3   OH237095   5.056   2.650  15.475 -0.4898 -0.4199 -0.0668
 5227TIP3    H137096   5.130   2.601  15.511 -0.0676  0.7681  0.7775
 5227TIP3    H237097   5.005   2.677  15.552 -0.3031  1.0460 -0.4227
 5228TIP3   OH237098   1.258   4.948  16.601  0.5345  0.2139  0.1994
 5228TIP3    H137099   1.163   4.950  16.590  0.6156 -0.5361 -0.8466
 5228TIP3    H237100   1.291   5.021  16.549  0.5780 -0.0431 -0.1384
 5229TIP3   OH237101   1.557   1.433  11.358  0.4167  0.0953 -0.1753
 5229TIP3    H137102   1.481   1.388  11.318  0.1329  0.1735  0.2730
 5229TIP3    H237103   1.521   1.514  11.392  0.4551 -0.4206  1.1307
 5230TIP3   OH237104   3.046   6.264   3.825  0.1381  0.0808 -0.5248
 5230TIP3    H137105   2.993   6.189   3.850 -0.6691  0.9282  0.4132
 5230TIP3    H237106   3.067   6.308   3.907 -1.2648  2.0822 -1.1507
 5231TIP3   OH237107   6.243   6.448  15.991 -0.3606 -0.6967  0.2551
 5231TIP3    H137108   6.201   6.494  15.918 -0.6926 -2.4868 -0.7482
 5231TIP3    H237109   6.192   6.473  16.068  1.1410  2.7302  0.3079
 5232TIP3   OH237110   3.794   2.724   1.164  0.6029 -0.6320  0.3770
 5232TIP3    H137111   3.874   2.745   1.212  0.7537 -1.8500  0.6807
 5232TIP3    H237112   3.775   2.633   1.187 -1.5307 -0.0133  1.2531
 5233TIP3   OH237113   4.385   2.481   4.269 -0.4586 -0.3614 -0.2954
 5233TIP3    H137114   4.387   2.386   4.282 -0.3604 -0.2480  0.5436
 5233TIP3    H237115   4.292   2.503   4.263 -0.4779 -0.7303 -2.3203
 5234TIP3   OH237116   3.143   5.211  12.988 -0.5249  0.0715  0.2138
 5234TIP3    H137117   3.103   5.277  12.931 -2.3375  0.8530  2.2504
 5234TIP3    H237118   3.115   5.235  13.076  0.0074 -2.5612  1.1970
 5235TIP3   OH237119   4.610   4.961   5.557 -0.0025 -0.3574  0.0371
 5235TIP3    H137120   4.619   4.868   5.576 -1.2212 -0.4185  0.4055
 5235TIP3    H237121   4.516   4.975   5.548  0.2144  0.7075 -0.7307
 5236TIP3   OH237122   3.490   3.768  11.841 -0.4824 -0.4212  0.0446
 5236TIP3    H137123   3.410   3.795  11.796 -0.4121  1.1531  0.8087
 5236TIP3    H237124   3.459   3.718  11.917 -0.7760  0.5144  0.5554
 5237TIP3   OH237125   5.970   6.059   5.832  0.0653  0.2113 -0.6234
 5237TIP3    H137126   5.891   6.084   5.783  0.4192  1.8029 -0.4288
 5237TIP3    H237127   6.003   5.982   5.785 -2.3459 -1.3971  0.1267
 5238TIP3   OH237128   1.645   4.945   2.394 -0.2443 -0.4252 -0.2149
 5238TIP3    H137129   1.615   4.964   2.305 -0.7695 -1.3275 -0.2423
 5238TIP3    H237130   1.569   4.906   2.437 -0.2909  0.8666  0.9247
 5239TIP3   OH237131   5.390   3.426   5.662 -0.0878  0.5616 -0.5981
 5239TIP3    H137132   5.402   3.460   5.750  1.0158 -2.4751  0.5640
 5239TIP3    H237133   5.295   3.428   5.648 -0.5218 -0.9207  1.6306
 5240TIP3   OH237134   0.178   2.720   4.849 -0.4238  0.9090 -0.1397
 5240TIP3    H137135   0.186   2.637   4.894 -0.3575  0.9523 -0.0728
 5240TIP3    H237136   0.096   2.758   4.883  0.4120  1.6592  1.1179
 5241TIP3   OH237137   3.139   6.358   4.887 -0.3715  0.1705 -0.1684
 5241TIP3    H137138   3.200   6.407   4.833  1.0004 -0.9200  0.3433
 5241TIP3    H237139   3.136   6.405   4.970 -1.4685  1.0980 -0.6968
 5242TIP3   OH237140   4.682   3.818   4.029  0.1129 -0.1936  0.4745
 5242TIP3    H137141   4.694   3.845   4.120  0.1261  0.2116  0.3576
 5242TIP3    H237142   4.593   3.845   4.008  0.6894  1.3292 -0.1616
 5243TIP3   OH237143   0.645   5.040  12.290 -0.0058 -0.4452  0.2492
 5243TIP3    H137144   0.731   5.026  12.249 -0.1858 -4.8993  0.8758
 5243TIP3    H237145   0.583   5.036  12.217  0.1207 -0.2809  0.1297
 5244TIP3   OH237146   4.239   4.011   5.730 -0.4855 -0.4622 -0.7069
 5244TIP3    H137147   4.190   4.091   5.711  3.1885  1.8600 -1.4660
 5244TIP3    H237148   4.242   4.006   5.826 -1.1400  0.0071 -0.6585
 5245TIP3   OH237149   0.402   5.994   5.209 -0.3106  0.1562 -0.0306
 5245TIP3    H137150   0.444   5.924   5.259  0.7647  0.5450 -0.3415
 5245TIP3    H237151   0.309   5.988   5.232 -0.1955 -1.1545  0.1942
 5246TIP3   OH237152   4.372   1.917   1.999 -0.2563  0.1884 -0.1881
 5246TIP3    H137153   4.340   1.987   2.055 -0.5105  0.1235 -0.2479
 5246TIP3    H237154   4.430   1.865   2.054  0.7405  1.0219 -0.4171
 5247TIP3   OH237155   2.185   2.135  14.877  0.2803  0.5379 -0.5054
 5247TIP3    H137156   2.264   2.101  14.834 -0.2626  0.4655 -1.4731
 5247TIP3    H237157   2.197   2.113  14.970  0.1365 -1.9853 -1.0117
 5248TIP3   OH237158   6.141   4.780   5.303 -0.2236  0.2465  0.4859
 5248TIP3    H137159   6.183   4.864   5.287 -1.5954  0.7880 -0.5130
 5248TIP3    H237160   6.128   4.743   5.215  1.2710 -1.5196  0.9356
 5249TIP3   OH237161   3.760   6.734  16.029  0.1824 -0.2814  0.0299
 5249TIP3    H137162   3.831   6.670  16.032 -0.2428 -0.7835 -0.5750
 5249TIP3    H237163   3.777   6.786  15.951  0.3609  0.1630  0.3584
 5250TIP3   OH237164   4.725   2.173  16.126  0.3280 -0.3634  0.1635
 5250TIP3    H137165   4.633   2.188  16.150 -0.0516 -0.5541 -1.1000
 5250TIP3    H237166   4.775   2.207  16.200 -0.7661 -0.3206  0.9025
 5251TIP3   OH237167   1.447   6.526  15.636  0.2072 -0.5940  0.0433
 5251TIP3    H137168   1.399   6.459  15.684  0.9242 -0.0232  1.6237
 5251TIP3    H237169   1.390   6.603  15.640  0.5083 -0.3933  0.4382
 5252TIP3   OH237170   6.091   0.993  14.933 -0.0354 -0.0092  0.0070
 5252TIP3    H137171   6.022   0.937  14.896  0.0696 -0.2603  0.1921
 5252TIP3    H237172   6.145   1.017  14.858 -0.0933 -0.1358 -0.0750
 5253TIP3   OH237173   6.148   1.451   0.867  0.2589 -0.6575 -0.0884
 5253TIP3    H137174   6.067   1.423   0.909  0.5546 -1.1554  0.1614
 5253TIP3    H237175   6.130   1.444   0.773 -0.3950  0.4467 -0.0624
 5254TIP3   OH237176   3.347   2.023   5.549  0.1356 -0.1307  0.0528
 5254TIP3    H137177   3.325   1.930   5.549 -0.3317 -0.0247  0.4858
 5254TIP3    H237178   3.263   2.067   5.559  0.2914  0.3560 -0.6995
 5255TIP3   OH237179   1.395   4.189   3.494  0.1125  0.1954 -0.2320
 5255TIP3    H137180   1.344   4.218   3.570  0.4221  2.0113 -0.6840
 5255TIP3    H237181   1.355   4.235   3.420  1.7561  0.8748 -0.7311
 5256TIP3   OH237182   5.750   4.205   0.623  0.3824 -0.6150 -0.1047
 5256TIP3    H137183   5.796   4.180   0.543 -3.2099 -0.8280 -2.2931
 5256TIP3    H237184   5.692   4.131   0.642 -1.6408  1.0109  0.3786
 5257TIP3   OH237185   2.222   1.092  17.069 -0.3350  0.4315  0.3062
 5257TIP3    H137186   2.201   1.157  17.136 -0.4378  0.9273 -0.1970
 5257TIP3    H237187   2.294   1.041  17.106  3.0830  3.7712 -1.0044
 5258TIP3   OH237188   4.359   3.973  15.855  0.3441 -0.0237 -0.2291
 5258TIP3    H137189   4.408   4.050  15.880  0.7280 -0.6677  1.0901
 5258TIP3    H237190   4.315   3.997  15.773 -2.1246  2.7119  1.7010
 5259TIP3   OH237191   4.689   6.432   4.365 -0.2088 -0.1365 -0.1397
 5259TIP3    H137192   4.714   6.453   4.455  1.4577 -1.8436 -0.1471
 5259TIP3    H237193   4.729   6.501   4.312 -0.6596  0.5143  0.3431
 5260TIP3   OH237194   5.391   1.482   2.746 -0.3230 -0.0304 -0.1893
 5260TIP3    H137195   5.467   1.534   2.773 -1.2975  1.3347  0.0074
 5260TIP3    H237196   5.352   1.453   2.829 -1.2862  1.1933 -0.1762
 5261TIP3   OH237197   3.676   3.477  11.702  0.3873  0.2502  0.9566
 5261TIP3    H137198   3.771   3.469  11.708  0.6433  1.1741 -1.1046
 5261TIP3    H237199   3.653   3.546  11.764  0.9977 -0.2430  1.7454
 5262TIP3   OH237200   3.035   0.253  12.772  0.3001  0.4558  0.1471
 5262TIP3    H137201   3.038   0.157  12.776  0.2024  0.4828  2.0050
 5262TIP3    H237202   3.124   0.278  12.747  0.8145 -0.1118  1.2790
 5263TIP3   OH237203   3.605   6.495   4.851 -0.9642  0.1390 -0.5245
 5263TIP3    H137204   3.574   6.479   4.762  2.0372 -1.7994 -1.3746
 5263TIP3    H237205   3.641   6.583   4.848 -3.8895  1.4702 -0.1539
 5264TIP3   OH237206   6.389   6.243   3.554 -0.1300 -0.0238 -0.0424
 5264TIP3    H137207   6.327   6.313   3.534  0.8986  0.9161 -0.0707
 5264TIP3    H237208   6.413   6.259   3.646 -0.2825 -0.6715  0.1167
 5265TIP3   OH237209   1.146   4.661   0.572  0.2751  0.3157  0.4687
 5265TIP3    H137210   1.193   4.587   0.611  0.7820 -0.0421 -0.7746
 5265TIP3    H237211   1.214   4.714   0.531 -0.0798  1.5009  1.3470
 5266TIP3   OH237212   3.609   3.652   2.093 -0.1833 -0.3822  0.4927
 5266TIP3    H137213   3.605   3.731   2.039 -0.1320 -1.7875 -1.7000
 5266TIP3    H237214   3.519   3.623   2.099  0.0112 -1.2278 -0.4464
 5267TIP3   OH237215   1.480   5.159  11.303 -0.6137 -0.3231 -0.2001
 5267TIP3    H137216   1.539   5.204  11.243 -0.3225 -0.4933 -0.0454
 5267TIP3    H237217   1.406   5.133  11.250 -1.2155  1.1325 -0.1162
 5268TIP3   OH237218   0.505   1.838  12.238 -0.3384 -0.0262  0.3445
 5268TIP3    H137219   0.415   1.817  12.264 -0.1160 -0.6625  0.6124
 5268TIP3    H237220   0.541   1.754  12.207  0.0262  0.3141 -0.1602
 5269TIP3   OH237221   3.447   1.096   2.833 -0.6439 -0.1018  0.5849
 5269TIP3    H137222   3.399   1.166   2.789 -1.2095 -0.7499  0.1471
 5269TIP3    H237223   3.515   1.071   2.771 -0.2648  0.2444  0.8570
 5270TIP3   OH237224   4.797   1.726   5.180  0.3119  0.5093 -0.8378
 5270TIP3    H137225   4.842   1.726   5.265 -0.1236  1.8806 -0.5844
 5270TIP3    H237226   4.816   1.812   5.143 -0.5451  0.3969 -1.5692
 5271TIP3   OH237227   6.431   2.286   1.261  0.0661  0.8495 -0.4857
 5271TIP3    H137228   6.366   2.346   1.298  0.5357  0.9682  0.1567
 5271TIP3    H237229   6.431   2.306   1.167 -1.4812  0.2162 -0.6424
 5272TIP3   OH237230   0.603   2.378  12.014  0.2841  0.0895 -0.4768
 5272TIP3    H137231   0.631   2.440  11.947 -0.8099  0.2734 -0.7849
 5272TIP3    H237232   0.661   2.304  12.005  1.0028  0.6750 -0.7355
 5273TIP3   OH237233   0.579   0.997  11.252  0.4165 -0.2394  0.0461
 5273TIP3    H137234   0.579   1.087  11.219  1.3140  0.1964  1.1580
 5273TIP3    H237235   0.658   0.958  11.214 -0.0315 -0.6046 -0.5240
 5274TIP3   OH237236   1.718   4.110   0.638 -0.2638  0.1499  0.6276
 5274TIP3    H137237   1.672   4.144   0.561 -1.4524 -0.3243  1.1172
 5274TIP3    H237238   1.649   4.093   0.702  0.3657 -2.1640  0.7886
 5275TIP3   OH237239   0.312   1.067   3.479  0.1616  0.3642 -0.0480
 5275TIP3    H137240   0.401   1.090   3.455  0.4503 -1.5285 -1.0201
 5275TIP3    H237241   0.257   1.132   3.435  1.0159  1.3261  0.2689
 5276TIP3   OH237242   6.662   6.518  13.540 -0.0003 -0.1398 -0.9574
 5276TIP3    H137243   6.690   6.510  13.631 -1.4216  0.0363 -0.4796
 5276TIP3    H237244   6.629   6.608  13.533 -0.1435 -0.2340 -1.5760
 5277TIP3   OH237245   6.039   5.179   3.924  0.7178  0.5863 -0.7235
 5277TIP3    H137246   6.020   5.086   3.933  2.9122  0.1725  0.3281
 5277TIP3    H237247   5.986   5.221   3.992  0.7404 -0.0716 -0.2872
 5278TIP3   OH237248   4.232   1.092   3.875  0.4837 -0.3569 -0.2458
 5278TIP3    H137249   4.301   1.033   3.903 -0.5989 -1.4557  0.2185
 5278TIP3    H237250   4.158   1.034   3.853 -1.1068  0.8550  1.5570
 5279TIP3   OH237251   1.965   2.479   6.132 -0.2789  0.1449 -0.4319
 5279TIP3    H137252   1.983   2.474   6.226 -0.1147  2.2174 -0.3185
 5279TIP3    H237253   2.052   2.472   6.092 -0.2888 -0.1507 -0.4036
 5280TIP3   OH237254   6.467   5.416   4.818  0.2196 -0.4170 -0.0641
 5280TIP3    H137255   6.522   5.468   4.875  0.3152  0.1425 -0.6554
 5280TIP3    H237256   6.525   5.385   4.748  0.1851 -1.3947  0.3147
 5281TIP3   OH237257   5.734   5.102   4.089 -0.5286 -0.3021 -0.0362
 5281TIP3    H137258   5.722   5.134   4.000 -0.8361 -0.6424 -0.1228
 5281TIP3    H237259   5.700   5.172   4.145 -0.0474  0.0430 -0.1699
 5282TIP3   OH237260   4.023   4.074   6.148 -0.1014 -0.4649  0.2931
 5282TIP3    H137261   4.060   4.011   6.086  0.2485 -1.4008  1.4176
 5282TIP3    H237262   4.063   4.158   6.123  2.3475 -1.3264  1.0579
 5283TIP3   OH237263   5.868   4.234   0.387 -0.7320  0.4962 -0.2203
 5283TIP3    H137264   5.829   4.295   0.324  1.5176  1.4527 -0.7649
 5283TIP3    H237265   5.908   4.165   0.333 -3.2199 -1.5946  0.3804
 5284TIP3   OH237266   1.294   2.690   1.275  0.3269  0.1213  0.0525
 5284TIP3    H137267   1.346   2.706   1.197  0.1217 -0.8129 -0.2914
 5284TIP3    H237268   1.240   2.615   1.252 -0.9467  0.8596  0.5053
 5285TIP3   OH237269   5.820   6.337   3.164 -0.3005  0.2908  0.1664
 5285TIP3    H137270   5.811   6.293   3.248 -0.4408 -0.5887 -0.2960
 5285TIP3    H237271   5.913   6.337   3.146 -0.4113 -1.3941 -0.6236
 5286TIP3   OH237272   2.252   1.006  12.076 -0.4877  0.8160  0.1050
 5286TIP3    H137273   2.246   1.021  11.981  3.2816 -1.2498 -0.6254
 5286TIP3    H237274   2.277   1.091  12.112  3.1853  0.6407 -1.5794
 5287TIP3   OH237275   1.553   2.772  12.374  0.3068  1.0409 -0.3008
 5287TIP3    H137276   1.545   2.797  12.281  1.8327  0.0986 -0.7076
 5287TIP3    H237277   1.531   2.679  12.376 -0.7414  1.2849  0.4765
 5288TIP3   OH237278   6.584   0.817  15.517 -0.2847  0.6482 -0.5668
 5288TIP3    H137279   6.675   0.839  15.535 -0.7515  1.0735  1.5147
 5288TIP3    H237280   6.577   0.818  15.422  1.7342  1.1782 -0.7451
 5289TIP3   OH237281   5.025   5.825   5.935 -0.3580 -0.3191 -0.8293
 5289TIP3    H137282   5.086   5.837   6.008  0.9126  0.9851 -2.0510
 5289TIP3    H237283   4.947   5.873   5.961 -0.1315 -0.3367 -0.0965
 5290TIP3   OH237284   5.135   4.832  11.225 -0.2957 -0.2933 -0.2556
 5290TIP3    H137285   5.207   4.894  11.235 -0.9188  0.6153 -1.2786
 5290TIP3    H237286   5.106   4.842  11.135 -0.8663 -1.5882 -0.2429
 5291TIP3   OH237287   5.148   3.163   1.363 -0.6364 -0.1631 -0.2749
 5291TIP3    H137288   5.127   3.228   1.296 -0.8429 -0.2756 -0.3193
 5291TIP3    H237289   5.228   3.121   1.331 -0.5288  0.0353 -0.2699
 5292TIP3   OH237290   1.352   0.468   2.114  0.0319 -0.4289 -0.4329
 5292TIP3    H137291   1.264   0.444   2.084 -0.4493  1.1878 -0.4124
 5292TIP3    H237292   1.337   0.538   2.177  1.2474 -1.4031  1.0072
 5293TIP3   OH237293   3.029   5.037   3.771 -0.1271  0.1580  0.2570
 5293TIP3    H137294   2.995   5.057   3.684 -0.5007 -1.1391  0.0885
 5293TIP3    H237295   3.102   4.978   3.755 -0.1573 -0.0399  0.8229
 5294TIP3   OH237296   1.721   3.941  12.785 -0.4456  0.4155 -0.6478
 5294TIP3    H137297   1.656   4.000  12.747 -2.0878 -1.1379 -0.4214
 5294TIP3    H237298   1.675   3.857  12.792  1.2343 -0.4554  0.6290
 5295TIP3   OH237299   6.232   1.986  17.222  0.0812  0.2560  0.2335
 5295TIP3    H137300   6.166   1.995  17.290 -0.4099  2.7084 -0.4714
 5295TIP3    H237301   6.235   2.072  17.179  0.2238 -1.1865 -2.9620
 5296TIP3   OH237302   3.000   2.803   1.278 -0.1589  0.7506  0.5515
 5296TIP3    H137303   3.094   2.788   1.275  0.0858  2.3219 -1.7656
 5296TIP3    H237304   2.981   2.855   1.200 -3.3694 -1.7113 -0.5049
 5297TIP3   OH237305   0.076   5.607   4.359  0.3072 -0.4694 -0.0332
 5297TIP3    H137306   0.101   5.536   4.419  1.7673  1.0094  1.2168
 5297TIP3    H237307   0.138   5.677   4.379  1.6838 -0.2815 -4.1382
 5298TIP3   OH237308   3.922   4.472   1.968 -0.3901  0.9391 -1.0058
 5298TIP3    H137309   3.932   4.379   1.945  1.1825  0.7413  0.3004
 5298TIP3    H237310   3.908   4.472   2.062  3.2606  2.1108 -0.3088
 5299TIP3   OH237311   4.430   5.435  12.476  0.2697  0.1031  0.0998
 5299TIP3    H137312   4.386   5.381  12.410  2.2600 -1.1428 -0.2790
 5299TIP3    H237313   4.428   5.382  12.556  2.9048 -0.9928 -0.4616
 5300TIP3   OH237314   5.370   5.645   3.985 -0.0186 -0.0432  0.0991
 5300TIP3    H137315   5.383   5.680   4.073 -0.5877  0.6462 -0.0787
 5300TIP3    H237316   5.353   5.722   3.931 -2.1657 -0.6086 -0.1556
 5301TIP3   OH237317   3.829   1.182  14.264 -0.0630 -0.1274  0.5032
 5301TIP3    H137318   3.888   1.112  14.238  0.5346  0.3807  0.4655
 5301TIP3    H237319   3.745   1.158  14.225  0.2740 -0.5336  0.0133
 5302TIP3   OH237320   5.020   0.933   0.566  0.4951  0.5658  0.3321
 5302TIP3    H137321   4.973   0.897   0.641 -1.2008  0.7781 -0.5706
 5302TIP3    H237322   4.985   0.886   0.491  1.1580  1.3170 -0.4710
 5303TIP3   OH237323   1.741   0.814   5.679 -0.5639  0.1252 -0.0833
 5303TIP3    H137324   1.689   0.748   5.633  0.5498  0.1101 -1.4028
 5303TIP3    H237325   1.681   0.888   5.690 -1.5411 -0.7262  0.5566
 5304TIP3   OH237326   1.223   0.087  13.018  0.2847  0.6811 -0.3126
 5304TIP3    H137327   1.316   0.102  13.004  0.3308  0.6234 -0.0645
 5304TIP3    H237328   1.215  -0.008  13.031  0.4508  0.9093  1.6372
 5305TIP3   OH237329   1.721   2.680   3.088  0.0467  0.3209  0.5054
 5305TIP3    H137330   1.780   2.749   3.058  0.8967 -1.0311 -1.0833
 5305TIP3    H237331   1.777   2.621   3.139  0.2471 -1.1796 -1.3313
 5306TIP3   OH237332   5.674   6.030   4.053 -0.1688 -0.3163  0.1987
 5306TIP3    H137333   5.729   5.997   3.982  1.3808  1.7536  0.3599
 5306TIP3    H237334   5.594   6.060   4.010  1.0959  1.7186 -0.8773
 5307TIP3   OH237335   1.924   1.083  12.899 -0.1853 -0.2208  0.8844
 5307TIP3    H137336   2.012   1.047  12.907  0.9673  1.6261 -1.9323
 5307TIP3    H237337   1.870   1.009  12.874  0.4814 -1.4024  2.7324
 5308TIP3   OH237338   6.303   0.385  12.673 -0.0459  0.4056  0.0276
 5308TIP3    H137339   6.224   0.439  12.674 -0.0041  0.4614  0.3417
 5308TIP3    H237340   6.352   0.417  12.597 -0.2418  0.4885 -0.0664
 5309TIP3   OH237341   0.918   1.799  14.019 -0.8875 -0.9938  0.6534
 5309TIP3    H137342   0.902   1.884  14.062  0.0215  0.8594 -2.3882
 5309TIP3    H237343   0.840   1.748  14.038 -1.6338  0.6213  2.2840
 5310TIP3   OH237344   6.400   2.454  16.212 -0.2435  0.8154 -0.1288
 5310TIP3    H137345   6.419   2.542  16.242 -2.2875  1.0413  0.6596
 5310TIP3    H237346   6.304   2.449  16.209 -0.1880 -1.3406 -0.2413
 5311TIP3   OH237347   4.478   5.515   2.541 -0.5107 -0.0537 -0.3462
 5311TIP3    H137348   4.511   5.426   2.556 -0.4267 -0.1708 -1.1826
 5311TIP3    H237349   4.556   5.569   2.535 -0.5771  0.1598  0.6361
 5312TIP3   OH237350   0.599   5.436  16.598 -0.1197 -0.0517 -0.5732
 5312TIP3    H137351   0.611   5.342  16.600  1.0863  0.0881 -0.3920
 5312TIP3    H237352   0.509   5.449  16.567 -0.2236 -1.2453 -0.7923
 5313TIP3   OH237353   0.368   4.995  16.519  0.5114  0.5447  0.1301
 5313TIP3    H137354   0.408   4.994  16.432  1.0738 -1.0380  0.3646
 5313TIP3    H237355   0.440   4.978  16.579 -0.1010  0.1151  0.7694
 5314TIP3   OH237356   1.723   5.316   1.123 -0.8275  0.4182 -0.9208
 5314TIP3    H137357   1.695   5.376   1.192  0.7153 -0.2008  0.2847
 5314TIP3    H237358   1.643   5.269   1.099 -1.7266  1.8251 -0.7750
 5315TIP3   OH237359   0.541   0.232  17.238  0.0895  0.2780  0.4011
 5315TIP3    H137360   0.627   0.219  17.197  0.3456  1.3676  0.5555
 5315TIP3    H237361   0.487   0.161  17.204  1.2911 -0.9887  1.0048
 5316TIP3   OH237362   4.092   1.716  13.476 -0.4528 -0.2846 -0.3187
 5316TIP3    H137363   4.119   1.668  13.554  0.0023  2.7129  1.5601
 5316TIP3    H237364   4.029   1.659  13.432 -0.3816 -2.2934  1.9904
 5317TIP3   OH237365   3.954   2.177   2.650 -0.3962 -0.0868  0.2844
 5317TIP3    H137366   4.036   2.209   2.612 -0.2033 -1.3409 -0.4092
 5317TIP3    H237367   3.980   2.134   2.731 -0.1730 -1.5228 -0.5086
 5318TIP3   OH237368   0.508   5.013   1.785  0.3581  0.0551 -0.2295
 5318TIP3    H137369   0.597   5.004   1.750  0.0623  0.9026 -1.2578
 5318TIP3    H237370   0.469   4.927   1.772  1.4234 -0.7570  1.4941
 5319TIP3   OH237371   3.965   1.791   5.078 -0.5386  0.3493 -0.0859
 5319TIP3    H137372   3.929   1.813   5.164 -1.5609 -1.0774 -0.1192
 5319TIP3    H237373   3.894   1.810   5.017  0.0173  0.8943 -0.5759
 5320TIP3   OH237374   5.932   3.748   2.010 -0.0036  0.7445 -0.4641
 5320TIP3    H137375   5.870   3.793   2.068 -0.1448 -0.6151  0.4909
 5320TIP3    H237376   5.991   3.701   2.070  0.9947  0.7697 -1.3908
 5321TIP3   OH237377   1.019   5.571  13.647 -0.7174 -0.1671  0.8866
 5321TIP3    H137378   0.963   5.538  13.577  0.4797  0.0884 -0.2567
 5321TIP3    H237379   0.966   5.637  13.692 -1.0660  0.6889 -0.7015
 5322TIP3   OH237380   5.070   1.697   1.384  0.2306  0.1842  0.2978
 5322TIP3    H137381   5.060   1.640   1.460 -0.6267 -0.9012 -0.5973
 5322TIP3    H237382   5.131   1.650   1.327 -0.8105 -0.0463 -0.6364
 5323TIP3   OH237383   3.530   0.575  16.936 -0.0539 -0.0275  0.7245
 5323TIP3    H137384   3.609   0.562  16.988  0.8040 -0.5013 -0.6384
 5323TIP3    H237385   3.464   0.519  16.976 -0.1485  1.3795  2.7086
 5324TIP3   OH237386   3.408   1.608   5.862  0.8651 -0.6126  0.2707
 5324TIP3    H137387   3.365   1.651   5.935  1.1325  1.3960 -0.7072
 5324TIP3    H237388   3.390   1.514   5.876  0.2676 -0.2285  2.4474
 5325TIP3   OH237389   6.122   1.571   2.569 -0.4794 -0.1145  0.1674
 5325TIP3    H137390   6.044   1.516   2.562 -0.2630 -0.4343  0.1970
 5325TIP3    H237391   6.141   1.598   2.480 -1.1496  0.7259  0.2621
 5326TIP3   OH237392   0.807   1.720  12.100 -0.4199  0.2980  0.6753
 5326TIP3    H137393   0.860   1.728  12.020 -0.2314  0.9209  0.8552
 5326TIP3    H237394   0.717   1.725  12.070 -0.3512  0.4574  0.4953
 5327TIP3   OH237395   0.843   2.577   0.293 -0.8621  0.1220 -0.4376
 5327TIP3    H137396   0.821   2.657   0.340 -0.1046 -0.1511  0.4182
 5327TIP3    H237397   0.897   2.605   0.219  2.7660  0.2164  1.9626
 5328TIP3   OH237398   4.810   5.022   4.176  0.0251 -0.2786  0.1806
 5328TIP3    H137399   4.832   5.068   4.095 -1.8218  0.5105  0.0989
 5328TIP3    H237400   4.894   4.989   4.208  0.7932 -0.7347 -2.1185
 5329TIP3   OH237401   2.847   4.211   5.908 -0.0408 -0.1338  0.5676
 5329TIP3    H137402   2.909   4.176   5.972  0.6731  0.1678  0.0508
 5329TIP3    H237403   2.899   4.226   5.829 -1.0637 -1.2151 -0.3500
 5330TIP3   OH237404   1.938   4.806  14.065  0.0234 -0.1032 -0.1653
 5330TIP3    H137405   1.994   4.809  14.142  0.1233 -0.4434 -0.2235
 5330TIP3    H237406   1.850   4.793  14.099 -0.0092  0.3066 -0.0800
 5331TIP3   OH237407   6.597   2.486   4.138 -0.1250 -0.5520  0.1005
 5331TIP3    H137408   6.635   2.424   4.076  0.3542  1.0416 -1.3081
 5331TIP3    H237409   6.538   2.540   4.084 -1.2677 -0.3916  1.4515
 5332TIP3   OH237410   3.200   0.352  11.816  0.2962 -0.0986  0.1565
 5332TIP3    H137411   3.185   0.299  11.895 -0.4258 -0.9895 -0.5678
 5332TIP3    H237412   3.294   0.372  11.819  0.6651 -1.7349  0.2567
 5333TIP3   OH237413   5.364   3.076   0.653  0.1394 -0.5497 -0.1628
 5333TIP3    H137414   5.321   3.064   0.738  1.2368 -2.0565  0.2183
 5333TIP3    H237415   5.405   3.162   0.660  1.1727 -1.1175  1.3095
 5334TIP3   OH237416   2.635   1.767   3.670 -0.2134 -0.2462  0.4603
 5334TIP3    H137417   2.567   1.726   3.617 -1.3258 -0.5489  2.0459
 5334TIP3    H237418   2.715   1.718   3.649 -0.3968  0.2744 -1.6067
 5335TIP3   OH237419   4.667   4.790  12.492  0.9396 -0.4167  0.2122
 5335TIP3    H137420   4.691   4.808  12.583  0.8561  1.4023 -0.0759
 5335TIP3    H237421   4.749   4.768  12.449  1.5335  1.6826  0.1346
 5336TIP3   OH237422   4.031   4.128  16.774  0.2091 -0.2947 -0.7932
 5336TIP3    H137423   3.986   4.210  16.793  1.1169  0.0010  0.1730
 5336TIP3    H237424   3.962   4.069  16.744 -0.8928  0.0515  0.9279
 5337TIP3   OH237425   3.640   5.849  17.157  0.2151  0.3822  0.6777
 5337TIP3    H137426   3.722   5.813  17.190  0.2254  2.2477  2.9411
 5337TIP3    H237427   3.581   5.848  17.233 -0.1648  3.7733  0.5825
 5338TIP3   OH237428   5.631   1.379  13.324 -0.3021  0.1060  0.1486
 5338TIP3    H137429   5.700   1.446  13.325  0.0808 -0.2776  0.9752
 5338TIP3    H237430   5.673   1.302  13.363 -0.8495 -0.5006 -0.4475
 5339TIP3   OH237431   6.185   0.662   3.117 -0.0221  0.6216 -0.7547
 5339TIP3    H137432   6.098   0.651   3.156  0.1236  0.7747 -0.3847
 5339TIP3    H237433   6.172   0.725   3.046  0.1271  2.1499  0.5065
 5340TIP3   OH237434   0.662   3.905  17.206  0.2486  0.4239 -0.3580
 5340TIP3    H137435   0.622   3.979  17.160 -0.8922  0.2789  0.3614
 5340TIP3    H237436   0.721   3.866  17.142  1.4768  2.4001 -0.5269
 5341TIP3   OH237437   3.031   5.259   4.424 -0.0551 -0.4581  0.9289
 5341TIP3    H137438   3.016   5.267   4.519  2.0108 -0.2013  1.2738
 5341TIP3    H237439   3.064   5.345   4.398 -1.5141 -0.2119 -0.2593
 5342TIP3   OH237440   5.239   6.076  15.820 -0.2080 -0.3993  0.1033
 5342TIP3    H137441   5.219   6.167  15.798  0.1574 -0.6696 -1.4355
 5342TIP3    H237442   5.318   6.080  15.873  0.6908  0.0940 -1.2510
 5343TIP3   OH237443   1.152   2.904  16.311 -0.1519  0.3164  0.0055
 5343TIP3    H137444   1.145   2.991  16.350  1.3960  0.7050 -0.5095
 5343TIP3    H237445   1.243   2.898  16.282 -0.8204 -0.5739 -2.0862
 5344TIP3   OH237446   0.386   3.581  16.491  0.6879 -0.2664 -0.1888
 5344TIP3    H137447   0.413   3.495  16.458  0.0619  0.0775 -1.7100
 5344TIP3    H237448   0.346   3.624  16.415 -0.4475  0.7666  0.9473
 5345TIP3   OH237449   5.958   6.213   0.797  0.1480  0.0685  0.5712
 5345TIP3    H137450   5.863   6.209   0.784  0.2259  0.6333 -0.2399
 5345TIP3    H237451   5.983   6.300   0.766  0.8131  0.2772  1.6288
 5346TIP3   OH237452   2.518   4.824  16.976 -0.3722  0.4271 -0.3157
 5346TIP3    H137453   2.564   4.878  17.040 -0.7666  0.7463 -0.2918
 5346TIP3    H237454   2.444   4.787  17.024  0.0989 -0.4318 -0.2379
 5347TIP3   OH237455   1.546   4.881   4.284  0.2652  0.3549  0.0268
 5347TIP3    H137456   1.627   4.831   4.274  0.2520  0.1959  0.7045
 5347TIP3    H237457   1.478   4.822   4.252  0.2758  0.0254  0.6104
 5348TIP3   OH237458   2.079   2.036  10.718  0.0534  0.1990  0.1800
 5348TIP3    H137459   2.051   1.975  10.649 -0.5608  0.1993  0.4277
 5348TIP3    H237460   2.165   2.003  10.744  0.6763  0.6731 -1.1465
 5349TIP3   OH237461   5.646   6.513   4.574 -0.0950 -0.6188  0.4625
 5349TIP3    H137462   5.626   6.566   4.497 -0.6486 -0.7952  0.4807
 5349TIP3    H237463   5.723   6.463   4.550  0.9889  0.8306  0.7495
 5350TIP3   OH237464   5.808   2.118   3.764  0.1871 -0.8030  0.5120
 5350TIP3    H137465   5.843   2.175   3.695 -0.6774 -1.6270 -0.6397
 5350TIP3    H237466   5.870   2.128   3.837  0.1517  1.4852  0.3127
 5351TIP3   OH237467   3.899   4.263   0.535 -0.4252 -0.0496 -0.0519
 5351TIP3    H137468   3.942   4.260   0.450 -0.3093 -0.0199  0.0052
 5351TIP3    H237469   3.966   4.297   0.595 -0.6750  0.4401 -0.0482
 5352TIP3   OH237470   4.092   4.171   1.375  0.0604  0.1304  0.3121
 5352TIP3    H137471   4.187   4.184   1.382 -0.0496  1.2450 -0.1339
 5352TIP3    H237472   4.056   4.259   1.365 -1.0712 -0.2360  0.9420
 5353TIP3   OH237473   2.854   1.961  15.729  0.3891  0.0593  0.1617
 5353TIP3    H137474   2.822   2.022  15.662 -0.1384 -1.1828 -0.7602
 5353TIP3    H237475   2.828   1.875  15.697  0.6814 -0.6227  1.6755
 5354TIP3   OH237476   2.436   2.146   1.146 -0.5002  0.0003 -0.4350
 5354TIP3    H137477   2.497   2.112   1.080 -0.3412 -0.8260  0.1244
 5354TIP3    H237478   2.453   2.093   1.224 -0.8455  0.8113  0.2071
 5355TIP3   OH237479   3.933   4.248  11.987  0.2413 -0.2879  0.1424
 5355TIP3    H137480   3.937   4.310  11.914  1.3907 -0.7566 -0.2125
 5355TIP3    H237481   3.905   4.301  12.061  1.3073  0.7109 -0.1286
 5356TIP3   OH237482   4.090   2.456  12.237  0.3370 -0.2942  0.3921
 5356TIP3    H137483   4.170   2.464  12.185  0.0884  0.7387  0.1488
 5356TIP3    H237484   4.050   2.543  12.234 -0.2395 -0.4999  1.4158
 5357TIP3   OH237485   2.838   2.134  11.093  0.3356  0.1491 -0.6754
 5357TIP3    H137486   2.865   2.069  11.029  0.6544 -1.3979  0.9578
 5357TIP3    H237487   2.913   2.194  11.099  0.3844  0.1856 -1.5573
 5358TIP3   OH237488   0.492   2.299   2.707 -0.2459  0.4511 -0.9667
 5358TIP3    H137489   0.513   2.389   2.681  0.9709  0.7019  0.7145
 5358TIP3    H237490   0.575   2.263   2.739 -1.7488  0.7872  4.0338
 5359TIP3   OH237491   6.132   5.431  10.369  0.5345 -0.4347  0.0492
 5359TIP3    H137492   6.086   5.496  10.317  0.8100  3.0155  3.6132
 5359TIP3    H237493   6.063   5.379  10.410  0.2400 -1.1891 -1.3532
 5360TIP3   OH237494   4.413   6.441   2.457 -0.5081  0.0981 -0.2060
 5360TIP3    H137495   4.489   6.422   2.403 -1.5923 -0.1348 -1.7041
 5360TIP3    H237496   4.449   6.458   2.544  1.1994 -0.5166 -0.7550
 5361TIP3   OH237497   6.303   5.197   2.462 -0.1317  0.0804 -0.1658
 5361TIP3    H137498   6.325   5.109   2.431 -0.5745 -0.7146  1.6278
 5361TIP3    H237499   6.383   5.248   2.447  0.9711 -1.2493  0.8743
 5362TIP3   OH237500   5.602   2.267  13.562 -0.1613 -0.1170  0.2084
 5362TIP3    H137501   5.675   2.255  13.623 -0.4843 -1.3157  0.3856
 5362TIP3    H237502   5.629   2.219  13.484 -0.9211 -0.9357  0.4292
 5363TIP3   OH237503   3.944   6.618   5.127  0.3109  0.0074  0.0989
 5363TIP3    H137504   3.954   6.598   5.034  0.4993  1.8110 -0.2961
 5363TIP3    H237505   4.027   6.589   5.166  0.6054  0.0901 -0.4513
 5364TIP3   OH237506   5.335   1.725  12.141 -0.5347  0.3903  0.4548
 5364TIP3    H137507   5.328   1.804  12.087  0.5533  0.3151  0.1799
 5364TIP3    H237508   5.398   1.670  12.094 -1.5229 -0.7917  0.4689
 5365TIP3   OH237509   2.229   4.611   0.597 -0.3209  0.0051  0.3865
 5365TIP3    H137510   2.251   4.601   0.504  2.0742  1.2353  0.7309
 5365TIP3    H237511   2.226   4.522   0.631 -1.1133 -0.4523 -0.8287
 5366TIP3   OH237512   4.560   0.773   0.201  0.4469  0.1848  0.1408
 5366TIP3    H137513   4.478   0.737   0.237  1.2579 -0.3693  1.5241
 5366TIP3    H237514   4.551   0.762   0.106 -2.1411  2.4781 -0.0015
 5367TIP3   OH237515   1.394   0.659  17.174 -0.8545  0.4764 -0.3167
 5367TIP3    H137516   1.349   0.620  17.249 -0.8771 -2.0131 -1.5227
 5367TIP3    H237517   1.477   0.692  17.210 -2.2150  2.3462  1.3539
 5368TIP3   OH237518   4.840   4.558   5.028  0.1295  0.5208  0.0037
 5368TIP3    H137519   4.815   4.467   5.037 -0.4087  0.1578 -3.5990
 5368TIP3    H237520   4.774   4.607   5.076 -0.0448 -0.9297  1.2861
 5369TIP3   OH237521   3.059   5.329  12.143 -0.1696  0.1738  0.2429
 5369TIP3    H137522   3.046   5.418  12.177 -0.8333  0.7269 -1.3823
 5369TIP3    H237523   2.979   5.282  12.169 -0.5469  0.5137 -0.2916
 5370TIP3   OH237524   3.151   4.937  16.854 -0.2156 -0.0316 -0.3854
 5370TIP3    H137525   3.190   5.009  16.905  0.0270 -0.2941 -0.1956
 5370TIP3    H237526   3.183   4.858  16.897 -1.3590 -0.2592  0.0768
 5371TIP3   OH237527   0.243   4.068  17.475  0.2151  0.1965  0.1150
 5371TIP3    H137528   0.334   4.041  17.473 -0.2553 -1.4603 -0.9379
 5371TIP3    H237529   0.193   3.986  17.484 -1.2051  0.9149 -0.7619
 5372TIP3   OH237530   6.409   2.946   0.395  0.8053 -0.0384  0.2204
 5372TIP3    H137531   6.357   2.877   0.438 -1.3370  2.0831  1.2821
 5372TIP3    H237532   6.436   3.003   0.467  0.7390  1.3418 -0.8146
 5373TIP3   OH237533   3.243   2.489   2.922 -0.2876 -0.6327  0.3131
 5373TIP3    H137534   3.263   2.507   3.013  1.9560  0.7947 -0.3804
 5373TIP3    H237535   3.326   2.461   2.884 -1.0206 -0.5996 -1.4196
 5374TIP3   OH237536   3.296   2.085   3.051 -0.0030  1.0794 -0.0294
 5374TIP3    H137537   3.322   2.120   3.137  0.8064  2.1793 -0.6989
 5374TIP3    H237538   3.379   2.064   3.008 -0.4381 -1.1165  0.0778
 5375TIP3   OH237539   3.211   0.006  13.942 -0.1316 -0.0679  0.0004
 5375TIP3    H137540   3.180   0.050  14.022  1.8417  3.0196 -0.7545
 5375TIP3    H237541   3.278  -0.055  13.973  1.9957  2.4455  0.7353
 5376TIP3   OH237542   5.224   2.974  15.201  0.3371  0.5227  0.1798
 5376TIP3    H137543   5.223   3.065  15.169  0.8537  0.1988 -0.8140
 5376TIP3    H237544   5.132   2.950  15.205  0.2457  0.4461 -1.5500
 5377TIP3   OH237545   3.296   3.888  15.194 -0.0042 -0.5978 -0.1827
 5377TIP3    H137546   3.289   3.908  15.288 -0.6834  1.0771 -0.5517
 5377TIP3    H237547   3.278   3.795  15.188  1.9567 -1.1530  1.5434
 5378TIP3   OH237548   5.180   3.958   3.686  0.1522  0.0117 -0.1177
 5378TIP3    H137549   5.220   4.039   3.718 -1.7795  1.4938 -1.2309
 5378TIP3    H237550   5.150   3.913   3.765 -0.2135  1.2108  0.4501
 5379TIP3   OH237551   4.451   2.674  15.573  0.0195  0.2527 -0.4484
 5379TIP3    H137552   4.483   2.764  15.578 -0.4599  0.4241 -0.3934
 5379TIP3    H237553   4.483   2.632  15.652 -0.0355  0.4698 -0.3115
 5380TIP3   OH237554   4.780   5.217   0.761  0.2398  0.4992 -0.2622
 5380TIP3    H137555   4.769   5.170   0.678  2.6636 -1.3560  0.3201
 5380TIP3    H237556   4.874   5.208   0.781  0.1297  2.6965  1.6612
 5381TIP3   OH237557   6.208   5.309  14.951 -0.1069  0.1155  0.1483
 5381TIP3    H137558   6.129   5.277  14.995 -0.5303  2.2971  1.1133
 5381TIP3    H237559   6.175   5.371  14.885  0.6315 -1.8015 -2.1472
 5382TIP3   OH237560   4.159   5.615   3.925 -0.1399  0.0603  0.4277
 5382TIP3    H137561   4.130   5.679   3.860  1.8958  1.7948  1.0894
 5382TIP3    H237562   4.230   5.567   3.883 -0.0554 -0.0940  0.7390
 5383TIP3   OH237563   2.375   4.948  13.766  0.4616  0.0892  0.1754
 5383TIP3    H137564   2.345   4.858  13.782  1.7195 -0.2437  0.8347
 5383TIP3    H237565   2.299   5.002  13.786 -0.0946 -0.7832  0.5175
 5384TIP3   OH237566   0.181   6.027  12.976 -0.3012 -0.6942  0.2092
 5384TIP3    H137567   0.223   6.000  12.895  0.0298 -2.1293  0.8316
 5384TIP3    H237568   0.229   5.982  13.045 -2.0649 -1.4287  1.0324
 5385TIP3   OH237569   4.969   6.075   0.924  0.1253  0.2518  0.1962
 5385TIP3    H137570   4.970   6.171   0.919  2.6805  0.3173  0.5859
 5385TIP3    H237571   4.981   6.056   1.017  1.5573 -0.3920 -0.0934
 5386TIP3   OH237572   4.407   1.227  11.065 -0.9543 -0.2446 -0.2300
 5386TIP3    H137573   4.356   1.305  11.086  0.9756  0.4182  2.5860
 5386TIP3    H237574   4.469   1.256  10.998  1.3883  1.5689  2.4550
 5387TIP3   OH237575   4.937   2.290  12.785  0.0389  0.2314 -0.0858
 5387TIP3    H137576   4.927   2.347  12.861 -0.8637  1.5998 -1.1875
 5387TIP3    H237577   4.942   2.350  12.710 -0.1006 -1.1029 -1.2080
 5388TIP3   OH237578   4.084   6.468   1.753 -0.5871 -0.4079 -0.3739
 5388TIP3    H137579   4.138   6.489   1.829  0.5948 -1.0061 -1.0031
 5388TIP3    H237580   4.078   6.550   1.703 -1.0363 -0.1145  0.1580
 5389TIP3   OH237581   4.884   6.214  16.914 -0.0262  0.1714  0.2273
 5389TIP3    H137582   4.899   6.122  16.936  1.4141  0.1309 -0.7539
 5389TIP3    H237583   4.845   6.212  16.827 -3.9148  0.3961  1.7926
 5390TIP3   OH237584   5.474   2.661   0.139 -0.0602  1.2350  0.4903
 5390TIP3    H137585   5.463   2.696   0.227 -1.2167  0.9897  0.4597
 5390TIP3    H237586   5.567   2.641   0.132 -0.1684  0.0016  2.1173
 5391TIP3   OH237587   0.810   3.531   0.057 -0.8560 -0.8877 -0.0469
 5391TIP3    H137588   0.748   3.529   0.130  0.0495 -0.3078  0.7559
 5391TIP3    H237589   0.881   3.588   0.087  0.5059 -2.2360 -0.6159
 5392TIP3   OH237590   1.912   3.937  13.237  0.3269 -0.8163  0.5579
 5392TIP3    H137591   1.851   3.863  13.241 -0.2982 -0.2857  1.4565
 5392TIP3    H237592   1.972   3.923  13.310 -0.3083 -0.0250  1.2510
 5393TIP3   OH237593   0.471   1.661   1.316 -0.3176  0.0192  0.3488
 5393TIP3    H137594   0.384   1.700   1.321 -0.3558 -0.2064  1.9709
 5393TIP3    H237595   0.459   1.570   1.346  0.2869 -0.3655 -0.5165
 5394TIP3   OH237596   1.158   3.780  13.250  0.0718  0.4630  0.0963
 5394TIP3    H137597   1.084   3.728  13.282 -0.1054  0.5764 -0.1191
 5394TIP3    H237598   1.122   3.828  13.175  0.6690 -0.3484 -0.7391
 5395TIP3   OH237599   0.680   6.173   0.688  0.0162 -0.6140  0.6535
 5395TIP3    H137600   0.747   6.131   0.742  0.6308 -0.1478  0.2743
 5395TIP3    H237601   0.598   6.159   0.735  0.5484 -0.1719  1.7302
 5396TIP3   OH237602   4.826   6.594  16.859  0.1638  0.4555 -0.0034
 5396TIP3    H137603   4.858   6.522  16.914  0.0800 -0.1355 -0.7240
 5396TIP3    H237604   4.837   6.563  16.770  0.7083  1.5874 -0.3503
 5397TIP3   OH237605   2.985   1.136  16.395  0.5750 -0.0662  0.3346
 5397TIP3    H137606   2.974   1.054  16.346 -1.0705  0.6850 -0.6605
 5397TIP3    H237607   3.064   1.123  16.447  0.5721 -2.1344 -0.0940
 5398TIP3   OH237608   1.641   2.810  16.441  0.0495  0.4610 -1.2315
 5398TIP3    H137609   1.717   2.866  16.456 -0.2487  0.5919 -0.0547
 5398TIP3    H237610   1.675   2.735  16.392  1.2559 -0.1850  0.5024
 5399TIP3   OH237611   5.722   6.404  11.478 -0.4475  0.8637  0.2479
 5399TIP3    H137612   5.718   6.371  11.568 -1.0538  1.5616  0.4930
 5399TIP3    H237613   5.642   6.455  11.468 -0.8933 -0.0493 -1.0458
 5400TIP3   OH237614   1.558   1.353  14.463 -0.0823 -0.2048 -0.0956
 5400TIP3    H137615   1.568   1.440  14.501  2.6348 -0.0977 -0.8775
 5400TIP3    H237616   1.521   1.300  14.534 -1.4203  1.4479  0.5126
 5401TIP3   OH237617   6.503   3.588  14.921  0.0961  0.0957 -0.2049
 5401TIP3    H137618   6.411   3.605  14.940 -0.0190 -0.3552 -0.3651
 5401TIP3    H237619   6.502   3.518  14.856  0.5093  0.9175 -1.1283
 5402TIP3   OH237620   3.236   4.327   3.064 -0.4903 -0.1531 -0.2780
 5402TIP3    H137621   3.274   4.244   3.092  2.9471  1.1103 -0.6121
 5402TIP3    H237622   3.166   4.344   3.127  1.4182 -1.4044  2.3734
 5403TIP3   OH237623   4.123   3.086  14.572 -0.3319  0.5568 -0.2312
 5403TIP3    H137624   4.035   3.060  14.543 -0.0154 -1.3434  0.4023
 5403TIP3    H237625   4.182   3.032  14.520  0.4233  0.9447  0.2111
 5404TIP3   OH237626   1.584   5.697   4.485 -0.1119 -0.4183  0.0989
 5404TIP3    H137627   1.550   5.733   4.403  1.4698 -0.2200 -0.4950
 5404TIP3    H237628   1.599   5.773   4.541  0.1163 -0.4277  0.0534
 5405TIP3   OH237629   2.021   3.811  14.902 -0.3383 -0.1108 -0.1514
 5405TIP3    H137630   1.944   3.754  14.902 -1.4319  1.3023  0.7448
 5405TIP3    H237631   1.989   3.895  14.868  0.1658  1.2372  2.4096
 5406TIP3   OH237632   3.619   0.201   3.673 -0.4197 -0.8752  0.3975
 5406TIP3    H137633   3.628   0.296   3.687 -3.7653 -0.3769 -0.0507
 5406TIP3    H237634   3.657   0.186   3.587  0.6713 -0.0816  0.7147
 5407TIP3   OH237635   2.105   5.682   1.012 -0.6295  0.0397 -0.3423
 5407TIP3    H137636   2.047   5.608   1.028 -1.2868  0.5611 -0.2385
 5407TIP3    H237637   2.052   5.759   1.034 -0.0377  0.5504 -0.6616
 5408TIP3   OH237638   4.760   6.590  17.274 -0.2992 -0.2404 -0.5369
 5408TIP3    H137639   4.785   6.501  17.300  0.3838 -0.4589 -1.9001
 5408TIP3    H237640   4.843   6.637  17.264 -0.6536  0.5870  0.2167
 5409TIP3   OH237641   1.662   2.326   5.461 -0.2782 -0.1507  0.0087
 5409TIP3    H137642   1.567   2.339   5.463 -0.4148 -1.1281  0.3283
 5409TIP3    H237643   1.691   2.346   5.550 -0.2056 -0.0112 -0.0459
 5410TIP3   OH237644   2.142   2.145   1.261 -0.5695 -0.2484  0.2551
 5410TIP3    H137645   2.079   2.217   1.266 -0.0587  0.1347  1.4979
 5410TIP3    H237646   2.183   2.156   1.175 -0.8164  0.6718  0.2391
 5411TIP3   OH237647   1.577   1.368   5.490  0.2396  0.8800 -0.4126
 5411TIP3    H137648   1.514   1.389   5.559  1.1216 -2.0096  1.4627
 5411TIP3    H237649   1.533   1.301   5.437  0.7238  0.8151 -0.7436
 5412TIP3   OH237650   5.002   1.427   3.250  0.0861 -0.1629  0.0891
 5412TIP3    H137651   5.044   1.352   3.292  0.8225 -0.8451 -1.7347
 5412TIP3    H237652   4.912   1.399   3.237 -0.2952  0.2618  1.6086
 5413TIP3   OH237653   1.804   0.358   5.346  0.1094 -0.0730  0.2557
 5413TIP3    H137654   1.783   0.358   5.253  0.2538 -0.3212  0.2202
 5413TIP3    H237655   1.748   0.425   5.384  1.2108  1.1883 -0.2708
 5414TIP3   OH237656   1.182   3.229  12.362  0.0291  0.7204 -0.6218
 5414TIP3    H137657   1.266   3.256  12.323  0.8382 -0.8298 -0.0581
 5414TIP3    H237658   1.152   3.158  12.305 -1.3136  1.7533 -1.2466
 5415TIP3   OH237659   5.218   0.990  11.316  0.6272 -0.8238  0.1508
 5415TIP3    H137660   5.221   1.026  11.405 -0.2353 -2.3306  0.8273
 5415TIP3    H237661   5.134   1.021  11.281 -0.3761 -2.5388  0.9345
 5416TIP3   OH237662   3.546   4.053   1.702  0.1381 -0.7566 -0.0488
 5416TIP3    H137663   3.586   3.966   1.706  1.0324 -0.3255  0.7437
 5416TIP3    H237664   3.572   4.095   1.783 -0.8912  0.0095 -0.0984
 5417TIP3   OH237665   2.061   3.771   3.255  0.1407 -0.1472 -0.2309
 5417TIP3    H137666   2.137   3.828   3.269  0.3027 -0.2303 -0.7723
 5417TIP3    H237667   1.999   3.797   3.324  0.3516  0.4401 -0.2563
 5418TIP3   OH237668   2.176   0.281   1.694  0.5730  0.4312  0.0437
 5418TIP3    H137669   2.145   0.368   1.668 -1.1630  0.1667  1.0449
 5418TIP3    H237670   2.217   0.246   1.616  3.3299  2.9398  0.1658
 5419TIP3   OH237671   3.781   0.590   2.269 -0.2879 -0.3850 -0.4536
 5419TIP3    H137672   3.801   0.666   2.213  1.3414  0.7391  1.5177
 5419TIP3    H237673   3.838   0.521   2.236  2.5614  0.9979  1.2252
 5420TIP3   OH237674   2.871   5.433   5.949  0.1042  0.6027  0.5675
 5420TIP3    H137675   2.900   5.357   5.998 -2.6045 -1.0485 -0.1576
 5420TIP3    H237676   2.797   5.401   5.897  1.0097  2.9120 -2.4323
 5421TIP3   OH237677   1.672   0.731  14.136 -0.3763  0.3809 -0.1401
 5421TIP3    H137678   1.646   0.814  14.176  0.4801  1.4574 -1.7104
 5421TIP3    H237679   1.618   0.725  14.057 -0.1078 -0.3344 -0.2690
 5422TIP3   OH237680   1.431   4.663  16.134 -0.3757 -0.0241 -0.3716
 5422TIP3    H137681   1.476   4.640  16.053  0.8782  1.6359 -0.2002
 5422TIP3    H237682   1.402   4.579  16.170  0.4857 -0.9374 -1.6981
 5423TIP3   OH237683   2.054   4.146  12.462 -0.0330  0.0336 -0.0458
 5423TIP3    H137684   2.103   4.129  12.542 -0.4815  2.4474  0.7949
 5423TIP3    H237685   2.070   4.068  12.408  1.5931 -0.9311  1.7050
 5424TIP3   OH237686   1.378   0.524   1.314 -0.0811 -0.2518 -0.5432
 5424TIP3    H137687   1.288   0.512   1.344 -0.0969  0.4018 -0.3225
 5424TIP3    H237688   1.425   0.450   1.352 -0.3182 -0.0239  0.2256
 5425TIP3   OH237689   3.040   0.624  13.124  0.4175 -0.6488  0.3460
 5425TIP3    H137690   3.036   0.532  13.097 -1.8585 -0.6340  0.4525
 5425TIP3    H237691   2.991   0.671  13.056  1.5570  0.4940  0.2902
 5426TIP3   OH237692   3.414   5.606   5.951 -0.4250  0.2436 -0.2473
 5426TIP3    H137693   3.493   5.554   5.964 -0.3235 -0.3498 -2.7501
 5426TIP3    H237694   3.352   5.571   6.014  0.9143 -0.1035  0.9384
 5427TIP3   OH237695   4.902   0.386   1.153  0.2129 -0.0437  0.3599
 5427TIP3    H137696   4.925   0.394   1.061  0.7167  1.0676  0.5665
 5427TIP3    H237697   4.856   0.467   1.174 -0.9186 -0.7685  0.8173
 5428TIP3   OH237698   1.977   1.860   4.775  1.1841  0.3687  0.3860
 5428TIP3    H137699   1.921   1.814   4.713  2.5875  0.9232 -1.3636
 5428TIP3    H237700   1.994   1.945   4.735  3.2674  0.2167  0.8126
 5429TIP3   OH237701   0.423   3.970   2.432 -0.0675 -0.0871 -0.1547
 5429TIP3    H137702   0.460   4.055   2.453 -2.2318  1.2856 -1.4327
 5429TIP3    H237703   0.435   3.961   2.337 -0.6980 -0.7339 -0.1889
 5430TIP3   OH237704   5.892   4.674  12.008 -0.2104  0.8737  0.4056
 5430TIP3    H137705   5.855   4.597  11.966 -1.0913  1.9003 -0.7838
 5430TIP3    H237706   5.970   4.642  12.053 -1.1467 -0.8937  0.8694
 5431TIP3   OH237707   2.781   2.366   2.649  0.7177 -0.4420 -0.1017
 5431TIP3    H137708   2.821   2.450   2.629  0.1660  0.5124  2.4955
 5431TIP3    H237709   2.795   2.354   2.743 -1.7365 -1.8682  0.1661
 5432TIP3   OH237710   2.440   4.154  11.402  0.0117 -0.0530  0.1844
 5432TIP3    H137711   2.368   4.157  11.339 -1.7972  2.6901  2.1257
 5432TIP3    H237712   2.405   4.104  11.476  0.9401 -0.5767  0.2839
 5433TIP3   OH237713   2.552   2.377  15.893  0.1286  0.1912  0.1502
 5433TIP3    H137714   2.472   2.413  15.933  0.1401 -0.4768  0.8047
 5433TIP3    H237715   2.613   2.368  15.966  1.2477  1.8148 -0.5277
 5434TIP3   OH237716   1.165   0.924  13.547 -0.2847 -0.2575  1.1719
 5434TIP3    H137717   1.118   0.999  13.512 -2.2580 -0.8731  2.3133
 5434TIP3    H237718   1.254   0.932  13.513 -0.8475  1.7467  0.0580
 5435TIP3   OH237719   4.357   6.131   0.036  0.4221 -0.3306  0.4393
 5435TIP3    H137720   4.278   6.139  -0.017  1.6567  0.2379 -1.4470
 5435TIP3    H237721   4.401   6.054  -0.000  1.0599 -0.2249  0.9826
 5436TIP3   OH237722   5.801   1.566  13.437 -0.1957  0.4300 -0.1047
 5436TIP3    H137723   5.801   1.540  13.530 -1.2727 -1.0398 -0.4700
 5436TIP3    H237724   5.773   1.657  13.438 -0.2520  0.4182  1.0244
 5437TIP3   OH237725   5.825   0.500   0.863  0.0611 -0.4184  0.0653
 5437TIP3    H137726   5.777   0.438   0.919 -3.2872  1.2236 -0.7356
 5437TIP3    H237727   5.775   0.503   0.782  1.1442  1.9703 -0.6055
 5438TIP3   OH237728   5.715   3.847   3.558  0.0267  0.2972 -0.0575
 5438TIP3    H137729   5.650   3.899   3.606  0.8667  1.6676 -0.3484
 5438TIP3    H237730   5.682   3.758   3.563 -0.2194  0.4500  2.5788
 5439TIP3   OH237731   1.574   5.643   1.187 -0.3556 -0.0687  0.1511
 5439TIP3    H137732   1.503   5.578   1.190 -0.5449  0.1377  0.1320
 5439TIP3    H237733   1.649   5.598   1.227 -0.3354 -0.4839 -0.3452
 5440TIP3   OH237734   5.027   1.080   2.271  0.2298  0.0010  0.1445
 5440TIP3    H137735   4.949   1.024   2.271 -1.3019  1.8822 -2.5362
 5440TIP3    H237736   5.088   1.036   2.212  0.1689 -0.2629  0.2793
 5441TIP3   OH237737   0.563   1.359   5.920  0.4704 -0.4498 -0.0391
 5441TIP3    H137738   0.516   1.281   5.950 -1.6067  0.7985  0.1485
 5441TIP3    H237739   0.627   1.376   5.989 -0.5237 -0.7898  1.0115
 5442TIP3   OH237740   1.377   6.537   1.916 -0.0223 -0.0432  0.0914
 5442TIP3    H137741   1.360   6.524   1.823  1.2137  1.5216 -0.4230
 5442TIP3    H237742   1.325   6.471   1.960  0.4552 -1.7740 -1.7804
 5443TIP3   OH237743   0.782   5.231  13.351  0.1911 -0.1978 -0.4728
 5443TIP3    H137744   0.783   5.312  13.403  0.2443  0.1407 -0.9928
 5443TIP3    H237745   0.757   5.163  13.414  1.8525 -0.0789  0.3935
 5444TIP3   OH237746   3.967   2.747   4.843 -0.4605  0.0150 -0.1922
 5444TIP3    H137747   4.003   2.812   4.782  0.9104  0.9662  1.5529
 5444TIP3    H237748   3.920   2.799   4.908  0.8480 -0.6641  1.3667
 5445TIP3   OH237749   2.704   4.852   2.906  0.0436  0.1574 -0.8476
 5445TIP3    H137750   2.708   4.786   2.837 -0.0295  0.4996 -1.1855
 5445TIP3    H237751   2.617   4.841   2.944  0.4975 -0.8001 -0.0245
 5446TIP3   OH237752   2.023   3.823   1.860 -0.2969 -0.2472  0.3374
 5446TIP3    H137753   2.117   3.809   1.851 -0.2395 -0.8927  1.7050
 5446TIP3    H237754   1.990   3.741   1.898 -1.0082  0.8370  2.1838
 5447TIP3   OH237755   3.164   2.312   5.985 -0.0257  0.5321 -0.2888
 5447TIP3    H137756   3.246   2.268   5.965 -0.9953 -0.6755 -1.8712
 5447TIP3    H237757   3.109   2.245   6.026 -0.2518  1.3183  0.7401
 5448TIP3   OH237758   6.503   0.407  11.604  0.2916  0.3797  0.5891
 5448TIP3    H137759   6.598   0.414  11.595  0.0502  2.3004 -1.2041
 5448TIP3    H237760   6.471   0.405  11.514 -1.3119 -2.5745  1.0719
 5449TIP3   OH237761   3.832   3.009   3.935 -0.0516  0.1638  0.5945
 5449TIP3    H137762   3.796   2.935   3.885 -0.3496  0.6031  0.1445
 5449TIP3    H237763   3.907   2.972   3.981 -1.3643 -0.9061  1.9837
 5450TIP3   OH237764   2.795   1.173   2.003  0.5256 -0.8633 -0.2955
 5450TIP3    H137765   2.704   1.150   1.981  0.2671  0.4890 -0.7563
 5450TIP3    H237766   2.793   1.191   2.097 -0.4225  2.0516 -0.7499
 5451TIP3   OH237767   5.713   5.458   2.521  0.3429  0.4327  0.4141
 5451TIP3    H137768   5.779   5.390   2.537 -1.9122 -1.9274  0.2873
 5451TIP3    H237769   5.688   5.488   2.608 -0.8441 -1.2195  0.6965
 5452TIP3   OH237770   2.212   1.769  14.018  0.2146 -0.3106 -0.4412
 5452TIP3    H137771   2.141   1.832  14.024  1.0622  0.7031 -0.7601
 5452TIP3    H237772   2.264   1.784  14.097  0.6273 -0.3381 -0.7029
 5453TIP3   OH237773   2.231   6.040  15.305  0.0412  0.7094 -0.4384
 5453TIP3    H137774   2.147   6.032  15.349 -0.0834  0.7671 -0.6654
 5453TIP3    H237775   2.225   6.121  15.255 -0.0390  0.3483 -1.0298
 5454TIP3   OH237776   3.569   3.628   3.048 -0.1369  0.5611 -0.1693
 5454TIP3    H137777   3.578   3.560   2.980  0.3395 -0.6408  1.0452
 5454TIP3    H237778   3.487   3.606   3.092  0.8176 -0.2748  1.2900
 5455TIP3   OH237779   0.067   3.504  13.023  0.2602 -0.2558  0.1806
 5455TIP3    H137780   0.122   3.438  12.981 -0.2918 -1.4798  1.3063
 5455TIP3    H237781   0.012   3.454  13.083 -0.5691  1.1832  0.6567
 5456TIP3   OH237782   2.949   0.191   3.111  0.3485 -0.1038  0.3962
 5456TIP3    H137783   2.867   0.143   3.128  0.1171 -0.3611 -1.2841
 5456TIP3    H237784   2.988   0.146   3.036  0.9600  1.3306 -0.1766
 5457TIP3   OH237785   0.984   2.501  14.887  0.1338 -0.3192 -0.5562
 5457TIP3    H137786   0.946   2.584  14.916  2.7523  0.6767  0.3229
 5457TIP3    H237787   0.963   2.497  14.793  0.1639  1.4936 -0.6913
 5458TIP3   OH237788   4.450   2.681   1.537 -0.5039 -0.1560  0.1427
 5458TIP3    H137789   4.460   2.701   1.444  1.1090 -0.1310  0.2908
 5458TIP3    H237790   4.532   2.710   1.577  0.0139 -2.6777  1.1104
 5459TIP3   OH237791   3.312   6.633   0.153 -0.1642  0.0953 -0.2748
 5459TIP3    H137792   3.350   6.719   0.172 -1.0288  0.2514  0.8619
 5459TIP3    H237793   3.222   6.639   0.185 -0.4553 -1.0124 -0.8286
 5460TIP3   OH237794   1.625   6.732   3.895 -0.5163 -0.1889  0.0234
 5460TIP3    H137795   1.647   6.760   3.806  0.6238 -0.5934  0.1580
 5460TIP3    H237796   1.627   6.813   3.946 -0.8689  0.0011 -0.2589
 5461TIP3   OH237797   1.491   1.027   2.973  0.4597  0.5951 -0.4303
 5461TIP3    H137798   1.473   1.030   2.879  1.8912 -0.0283 -0.7516
 5461TIP3    H237799   1.570   1.080   2.984 -0.5295  1.9564  0.6841
 5462TIP3   OH237800   5.104   6.477  11.659 -0.3110  0.1819  0.4008
 5462TIP3    H137801   5.066   6.425  11.730  0.4865 -0.6310  0.2431
 5462TIP3    H237802   5.054   6.452  11.582  1.1257 -1.6346 -0.0014
 5463TIP3   OH237803   1.156   0.574  17.141 -0.2140  0.2187  0.2016
 5463TIP3    H137804   1.241   0.617  17.133 -0.0498 -0.3441 -1.3641
 5463TIP3    H237805   1.121   0.575  17.052 -1.8330  0.3868  0.8126
 5464TIP3   OH237806   4.438   2.704  16.317  0.9129 -0.1361 -0.4271
 5464TIP3    H137807   4.408   2.656  16.240  0.9683 -0.1119 -0.4640
 5464TIP3    H237808   4.396   2.790  16.309 -0.6391 -0.7458  0.5610
 5465TIP3   OH237809   3.085   6.473  12.355  0.1960 -0.3228 -0.4602
 5465TIP3    H137810   3.030   6.467  12.433 -0.9176 -1.6469 -1.2922
 5465TIP3    H237811   3.117   6.563  12.355 -1.5170  0.3376  0.3723
 5466TIP3   OH237812   4.031   4.558   0.266  0.3457 -0.1873  0.6202
 5466TIP3    H137813   3.995   4.640   0.300  1.0496  0.6216 -0.5380
 5466TIP3    H237814   4.122   4.558   0.296  1.1619  0.8251 -1.6286
 5467TIP3   OH237815   5.997   1.402  13.296 -0.5350  0.2725 -0.5468
 5467TIP3    H137816   6.080   1.447  13.282 -1.8422  2.0583 -3.5723
 5467TIP3    H237817   5.936   1.472  13.319 -1.6621 -0.6496 -0.6673
 5468TIP3   OH237818   0.662   5.605  16.859 -0.2186  0.4311 -0.0435
 5468TIP3    H137819   0.671   5.690  16.815  0.2265 -0.9850 -2.9618
 5468TIP3    H237820   0.608   5.553  16.799 -1.1904 -1.1198  2.0599
 5469TIP3   OH237821   1.961   1.237   3.717  0.2945 -0.0877  0.2136
 5469TIP3    H137822   1.918   1.231   3.632  0.0023 -0.1406  0.3636
 5469TIP3    H237823   2.027   1.167   3.716 -0.4284 -0.7846  0.4360
 5470TIP3   OH237824   2.829   3.444   5.571  0.1917  0.2925 -0.2172
 5470TIP3    H137825   2.858   3.389   5.497 -0.6762  0.2229 -0.5144
 5470TIP3    H237826   2.734   3.440   5.568  0.1166  1.5851 -0.0591
 5471TIP3   OH237827   3.234   1.133  11.793 -0.0487 -0.6650 -0.3661
 5471TIP3    H137828   3.206   1.173  11.876 -0.3566 -1.9980  0.2040
 5471TIP3    H237829   3.249   1.041  11.815 -1.3038 -1.3345 -2.0373
 5472TIP3   OH237830   0.818   3.548  15.686 -0.5616  0.3587 -0.1277
 5472TIP3    H137831   0.759   3.579  15.617  1.5792  2.6967 -1.0582
 5472TIP3    H237832   0.841   3.459  15.660  0.5964  1.3532 -2.8201
 5473TIP3   OH237833   3.225   2.628   1.683 -0.1005  0.4162 -0.5300
 5473TIP3    H137834   3.294   2.693   1.675  0.4274 -0.3541 -3.2891
 5473TIP3    H237835   3.144   2.680   1.691  0.4374  1.3918 -1.2147
 5474TIP3   OH237836   4.292   5.861   6.407  0.5552  0.3816 -0.1501
 5474TIP3    H137837   4.203   5.838   6.379  0.2565 -0.2979  1.2899
 5474TIP3    H237838   4.306   5.948   6.371 -1.0960  0.9448  0.4819
 5475TIP3   OH237839   6.586   2.044   5.030 -0.0315 -0.4945 -0.1353
 5475TIP3    H137840   6.613   2.055   4.939  0.6393 -0.9774 -0.0024
 5475TIP3    H237841   6.494   2.017   5.024 -0.2091  0.1754 -0.6336
 5476TIP3   OH237842   3.958   6.081  13.037 -0.1649 -0.3683 -0.3745
 5476TIP3    H137843   4.047   6.087  13.069 -0.2540  0.1811 -0.2308
 5476TIP3    H237844   3.944   5.987  13.024  0.5864 -0.4255 -0.8421
 5477TIP3   OH237845   5.712   6.100  14.880 -0.6477  0.3333 -0.3910
 5477TIP3    H137846   5.673   6.032  14.936 -0.5762  0.7922  0.2208
 5477TIP3    H237847   5.637   6.144  14.841 -0.7176  0.4838 -0.0891
 5478TIP3   OH237848   3.452   5.394  14.002  0.0363  0.1707 -0.9293
 5478TIP3    H137849   3.504   5.345  14.067 -0.7285  1.4749  0.7429
 5478TIP3    H237850   3.412   5.326  13.947 -1.3189 -1.1836  1.5397
 5479TIP3   OH237851   3.973   3.266  16.577  0.1420  0.1829 -0.7100
 5479TIP3    H137852   4.021   3.198  16.624 -0.8163  0.0986  0.1885
 5479TIP3    H237853   3.930   3.219  16.505  0.8503  0.1420 -1.1087
 5480TIP3   OH237854   6.363   1.744  15.802 -0.2248 -0.1759 -0.1861
 5480TIP3    H137855   6.275   1.758  15.836 -0.3199  0.4575 -0.6728
 5480TIP3    H237856   6.372   1.649  15.798 -0.8404 -0.2473 -0.0225
 5481TIP3   OH237857   2.108   1.953   5.034  0.2338 -0.1829  0.5845
 5481TIP3    H137858   2.017   1.964   5.061 -0.4008 -0.7914 -1.1850
 5481TIP3    H237859   2.104   1.941   4.939  2.2402  0.6187  0.3447
 5482TIP3   OH237860   2.657   6.568  13.277  0.2412 -0.0559  0.1488
 5482TIP3    H137861   2.659   6.542  13.369 -0.7175 -1.2088 -0.1253
 5482TIP3    H237862   2.579   6.622  13.269  1.4069  1.7193  0.3989
 5483TIP3   OH237863   6.689   0.224   5.255 -0.2551 -0.6696  0.3572
 5483TIP3    H137864   6.710   0.317   5.243  0.0764 -0.8005 -0.1071
 5483TIP3    H237865   6.718   0.205   5.344 -2.4109  0.2277  1.3299
 5484TIP3   OH237866   0.016   6.500  14.620 -0.6906  0.2490  0.4349
 5484TIP3    H137867  -0.018   6.537  14.702  0.6695  1.7026  0.3917
 5484TIP3    H237868  -0.009   6.563  14.553 -0.3043 -0.0470  0.0073
 5485TIP3   OH237869   0.355   2.982  14.130  0.2392 -0.1307  0.7873
 5485TIP3    H137870   0.373   2.961  14.222  0.6379 -0.3490  0.6636
 5485TIP3    H237871   0.260   2.987  14.125  0.1890 -0.6355  1.1077
 5486TIP3   OH237872   1.130   3.715   3.415 -0.5531  0.0776  0.2376
 5486TIP3    H137873   1.096   3.633   3.450 -1.0601 -0.0771 -0.5877
 5486TIP3    H237874   1.202   3.689   3.358 -0.4214  0.2376  0.3321
 5487TIP3   OH237875   0.584   1.245  14.121 -0.2837  0.6293  0.1321
 5487TIP3    H137876   0.545   1.177  14.067  1.6126  0.3300 -0.9213
 5487TIP3    H237877   0.614   1.200  14.200 -2.8269  1.0266  1.4535
 5488TIP3   OH237878   5.718   4.118  17.478  0.3150  0.1677  0.1227
 5488TIP3    H137879   5.725   4.163  17.394  0.0077  0.3592  0.1982
 5488TIP3    H237880   5.727   4.026  17.457  1.5646  0.2886  0.0385
 5489TIP3   OH237881   3.174   0.678   3.552 -0.6066  0.1125  0.0382
 5489TIP3    H137882   3.158   0.701   3.643 -1.3251 -0.5211  0.0780
 5489TIP3    H237883   3.089   0.649   3.518 -0.8354  2.2695 -1.4361
 5490TIP3   OH237884   1.307   6.125  13.208 -0.8105 -0.1146 -0.0427
 5490TIP3    H137885   1.302   6.216  13.238  0.4138 -0.0389  0.0039
 5490TIP3    H237886   1.336   6.131  13.117 -2.3581 -0.4226 -0.5847
 5491TIP3   OH237887   2.476   1.476   4.165 -0.1110 -0.4786 -0.1190
 5491TIP3    H137888   2.437   1.499   4.081 -0.2951  3.0434  0.7786
 5491TIP3    H237889   2.403   1.444   4.218 -1.4113  3.0124  0.4929
 5492TIP3   OH237890   5.444   0.091  11.676 -0.0995  0.2732 -0.5281
 5492TIP3    H137891   5.409   0.169  11.634 -0.5858  1.0554  1.2448
 5492TIP3    H237892   5.425   0.020  11.614 -2.8197  1.0045 -0.6351
 5493TIP3   OH237893   2.247   1.940   1.809 -0.6795  0.2486  0.4850
 5493TIP3    H137894   2.222   1.929   1.901  1.4446 -0.4739  1.0219
 5493TIP3    H237895   2.325   1.995   1.812 -0.1109 -0.4610 -0.8271
 5494TIP3   OH237896   2.306   3.050  14.417  0.4789 -1.0222 -0.5849
 5494TIP3    H137897   2.232   3.084  14.366 -0.6707 -2.2990  0.1688
 5494TIP3    H237898   2.347   3.128  14.454 -1.7529 -0.3407  0.6596
 5495TIP3   OH237899   5.771   6.127  17.506  0.3150 -0.1483  0.2687
 5495TIP3    H137900   5.683   6.110  17.472  0.1837  1.2430 -0.1164
 5495TIP3    H237901   5.828   6.123  17.429  0.2042  1.5975  0.0512
 5496TIP3   OH237902   2.745   0.840  16.719 -0.2779 -0.0522 -0.0811
 5496TIP3    H137903   2.749   0.924  16.673  1.9560 -0.7652 -1.3369
 5496TIP3    H237904   2.681   0.789  16.670 -1.6089  0.8292  0.6546
 5497TIP3   OH237905   5.938   4.770   3.192  0.2573 -0.4250 -0.4039
 5497TIP3    H137906   5.997   4.696   3.205  2.0991  1.0022 -0.2011
 5497TIP3    H237907   5.876   4.766   3.265  1.0122 -1.1529  0.2081
 5498TIP3   OH237908   1.577   1.266   4.385  0.0226 -0.5865 -0.8459
 5498TIP3    H137909   1.629   1.186   4.379  2.4332  0.7031  1.0023
 5498TIP3    H237910   1.546   1.269   4.475 -2.1274 -0.5887 -1.5362
 5499TIP3   OH237911   5.721   0.862  14.625  0.3307  0.0677  0.0678
 5499TIP3    H137912   5.671   0.944  14.619 -0.8314 -0.5449  0.9107
 5499TIP3    H237913   5.656   0.794  14.608  1.4914 -0.6742 -1.7120
 5500TIP3   OH237914   5.522   6.525   4.225  0.2096 -0.3135 -0.0269
 5500TIP3    H137915   5.447   6.474   4.196 -0.2783 -0.4046  1.3328
 5500TIP3    H237916   5.598   6.475   4.197 -0.2195 -0.1991 -1.4513
 5501TIP3   OH237917   6.246   6.661   3.103  0.6115  0.0955  0.2387
 5501TIP3    H137918   6.295   6.705   3.034  1.5202 -1.4886 -0.1637
 5501TIP3    H237919   6.291   6.685   3.184  1.1018 -0.0803  0.0205
 5502TIP3   OH237920   2.227   0.101  10.772 -0.8391 -0.6662  0.2277
 5502TIP3    H137921   2.228   0.090  10.868  0.7674 -1.6940  0.1215
 5502TIP3    H237922   2.309   0.145  10.752 -2.4793  2.3351 -0.4514
 5503TIP3   OH237923   3.488   1.980   2.367 -0.0199  0.0948  0.0732
 5503TIP3    H137924   3.437   1.906   2.400 -1.2384  0.6915 -0.3935
 5503TIP3    H237925   3.526   2.020   2.445 -0.3962 -0.2787  0.4564
 5504TIP3   OH237926   2.310   3.471  12.551  0.2550 -0.1665 -0.3813
 5504TIP3    H137927   2.331   3.463  12.644 -2.4298  2.7340  0.6679
 5504TIP3    H237928   2.314   3.565  12.534  0.3038 -0.5900 -3.1540
 5505TIP3   OH237929   0.158   4.089   1.068  0.0340  0.3269  0.0704
 5505TIP3    H137930   0.132   4.052   1.153 -0.2486  1.9237  0.7271
 5505TIP3    H237931   0.254   4.091   1.072  0.1991 -2.2421 -0.8755
 5506TIP3   OH237932   5.842   3.826   0.188 -0.0452  0.2641 -0.7451
 5506TIP3    H137933   5.755   3.796   0.161 -0.2961  0.5068 -0.2284
 5506TIP3    H237934   5.878   3.752   0.238 -1.0067  1.0815  1.2631
 5507TIP3   OH237935   2.584   0.574   0.518  0.2896  0.6997 -0.1052
 5507TIP3    H137936   2.498   0.610   0.538  0.5265  2.8827 -2.5449
 5507TIP3    H237937   2.583   0.487   0.557 -2.4121  1.2389  1.2825
 5508TIP3   OH237938   1.164   3.525   2.258  0.7552  0.0983  0.5648
 5508TIP3    H137939   1.185   3.586   2.329  0.9400  0.8418 -0.1170
 5508TIP3    H237940   1.248   3.485   2.235  1.0703  1.3696 -0.6015
 5509TIP3   OH237941   3.957   2.096  15.335  0.4303  0.1486 -0.1759
 5509TIP3    H137942   4.039   2.137  15.363  0.5536 -0.2506  0.0552
 5509TIP3    H237943   3.899   2.102  15.411  0.0435  0.9470 -0.5249
 5510TIP3   OH237944   3.724   5.631  11.247 -1.0166 -0.0242 -0.6633
 5510TIP3    H137945   3.761   5.586  11.171  0.0333 -0.6137  0.1704
 5510TIP3    H237946   3.725   5.723  11.222 -1.7214 -0.2950 -1.7811
 5511TIP3   OH237947   1.511   0.228   3.135 -0.6239  0.1883 -0.1630
 5511TIP3    H137948   1.585   0.202   3.190  0.1174 -0.9697 -1.6071
 5511TIP3    H237949   1.541   0.307   3.090 -0.9159  0.6603  0.4530
 5512TIP3   OH237950   0.150   4.458  15.058 -0.0963  0.4844  0.4730
 5512TIP3    H137951   0.092   4.415  14.995  0.2573 -0.6767  0.9072
 5512TIP3    H237952   0.218   4.392  15.076  1.1528  1.6647  0.2564
 5513TIP3   OH237953   0.136   3.845   1.467 -0.0565  0.0610  0.2396
 5513TIP3    H137954   0.101   3.862   1.380 -0.7196  0.3970  0.5631
 5513TIP3    H237955   0.177   3.928   1.492 -2.9224  1.2073  1.6475
 5514TIP3   OH237956   5.885   4.134   3.257 -0.1715 -0.2681  0.8109
 5514TIP3    H137957   5.842   4.219   3.253  0.8850  0.2304 -1.2617
 5514TIP3    H237958   5.813   4.071   3.249 -0.8679  0.4168  1.4341
 5515TIP3   OH237959   5.371   0.976  16.448  0.6666  0.0064  0.6997
 5515TIP3    H137960   5.418   1.056  16.472  0.6893  0.4828 -0.8199
 5515TIP3    H237961   5.279   0.999  16.460  0.6998  0.0416  0.8932
 5516TIP3   OH237962   2.869   2.238  13.063  0.3496 -0.2555  0.2407
 5516TIP3    H137963   2.951   2.220  13.017  0.4755  1.3880 -0.2310
 5516TIP3    H237964   2.858   2.164  13.123  0.8612 -1.7852 -1.4669
 5517TIP3   OH237965   0.931   5.231   3.293 -0.5497 -0.6663  0.2766
 5517TIP3    H137966   0.858   5.291   3.278  0.2615  0.0604 -0.9279
 5517TIP3    H237967   1.003   5.267   3.241  0.4575 -1.7739  0.8489
 5518TIP3   OH237968   0.160   4.240  13.518  0.3803 -0.2992 -0.2910
 5518TIP3    H137969   0.154   4.252  13.613 -2.7308  1.4122 -0.5842
 5518TIP3    H237970   0.247   4.274  13.495  0.3359  1.3218  1.7033
 5519TIP3   OH237971   1.724   4.761   6.365  0.3070  0.2795 -0.0714
 5519TIP3    H137972   1.662   4.691   6.342 -0.3571  1.2900 -1.5135
 5519TIP3    H237973   1.791   4.717   6.417 -0.6608 -1.2086 -0.0031
 5520TIP3   OH237974   6.342   2.055  16.810 -0.0202 -0.2575 -0.7271
 5520TIP3    H137975   6.266   2.027  16.861 -1.9783  1.6467 -2.4199
 5520TIP3    H237976   6.315   2.136  16.768  3.1653  0.7962 -1.0287
 5521TIP3   OH237977   5.729   1.816   0.527  0.1766  0.2602 -0.6420
 5521TIP3    H137978   5.643   1.858   0.535  0.0783  0.0899 -0.7948
 5521TIP3    H237979   5.715   1.727   0.558  0.9077  0.9421  1.9831
 5522TIP3   OH237980   2.725   4.114   7.058  0.0379  0.2122  0.5370
 5522TIP3    H137981   2.793   4.157   7.006 -0.8410  1.2998  0.2345
 5522TIP3    H237982   2.644   4.129   7.009 -0.3656 -1.5884  0.5698
 5523TIP3   OH237983   1.098   2.872   6.213  0.1405  0.3644  0.5819
 5523TIP3    H137984   1.066   2.873   6.123  2.0362 -1.1584 -0.1828
 5523TIP3    H237985   1.097   2.964   6.240  0.6842  1.0028 -1.4189
 5524TIP3   OH237986   4.407   0.706  16.337  0.2204 -0.2219 -0.0395
 5524TIP3    H137987   4.342   0.648  16.296 -1.4170 -0.5998  2.8078
 5524TIP3    H237988   4.491   0.665  16.317 -0.3407 -0.1051 -3.2736
 5525TIP3   OH237989   1.424   3.445   2.263  0.7744 -0.1695  0.4044
 5525TIP3    H137990   1.458   3.517   2.211  1.3012 -1.9417 -1.8693
 5525TIP3    H237991   1.500   3.389   2.280  0.2295 -0.6521  1.3677
 5526TIP3   OH237992   4.442   4.766  11.689 -0.4007  0.2357  0.1605
 5526TIP3    H137993   4.524   4.785  11.644  0.2785 -2.6488 -0.0486
 5526TIP3    H237994   4.462   4.689  11.742 -2.8513 -0.2452  0.5017
 5527TIP3   OH237995   1.831   6.071   1.417 -0.1983  0.4163  0.1114
 5527TIP3    H137996   1.850   6.003   1.481  0.2918 -0.2936 -0.7643
 5527TIP3    H237997   1.783   6.026   1.348 -0.2321  1.0411 -0.2792
 5528TIP3   OH237998   1.856   0.914  17.422 -0.0379  0.1050 -0.0892
 5528TIP3    H137999   1.895   0.942  17.340  0.8779  0.4252  0.4427
 5528TIP3    H238000   1.879   0.984  17.484 -1.7999  0.5159  0.1598
 5529TIP3   OH238001   1.450   0.966   0.250  0.1323  0.6164  0.1851
 5529TIP3    H138002   1.404   1.003   0.175  0.5350  0.8518  0.0484
 5529TIP3    H238003   1.382   0.950   0.315 -0.3335 -0.2969 -0.5078
 5530TIP3   OH238004   5.520   6.169  17.349 -0.0290  0.0028  0.1229
 5530TIP3    H138005   5.469   6.096  17.386 -0.4236  1.2569  2.2371
 5530TIP3    H238006   5.558   6.133  17.269 -1.7312 -1.9344  0.0918
 5531TIP3   OH238007   1.827   3.066   5.940  0.4747  0.4678  0.0101
 5531TIP3    H138008   1.776   2.993   5.906  0.8030  0.7942 -1.2138
 5531TIP3    H238009   1.904   3.071   5.884  0.7430  1.4040  0.4282
 5532TIP3   OH238010   6.143   0.588  11.436 -0.1969 -0.3175  0.5139
 5532TIP3    H138011   6.195   0.617  11.360 -2.8494 -1.0578 -1.7192
 5532TIP3    H238012   6.077   0.657  11.447 -0.1516 -0.4687  1.8761
 5533TIP3   OH238013   3.223   1.831   3.103  0.7165  0.7791 -0.0799
 5533TIP3    H138014   3.280   1.764   3.065  2.0927  1.1845  1.1493
 5533TIP3    H238015   3.273   1.912   3.096 -0.5267  1.5309 -0.6777
 5534TIP3   OH238016   5.755   4.315   4.679  0.3082 -0.1264  0.1765
 5534TIP3    H138017   5.793   4.361   4.604 -0.8132 -0.5466 -0.6785
 5534TIP3    H238018   5.700   4.246   4.640  0.9219 -1.3670  1.4051
 5535TIP3   OH238019   4.066   1.692   3.867 -0.0822  0.0901 -0.3169
 5535TIP3    H138020   4.026   1.776   3.845 -1.0809 -0.0623  0.8138
 5535TIP3    H238021   4.102   1.705   3.955  0.4235 -0.4433 -0.4404
 5536TIP3   OH238022   6.645   4.382  15.851  0.5172  0.2753  0.1010
 5536TIP3    H138023   6.693   4.434  15.915 -0.5287 -0.6629  1.7214
 5536TIP3    H238024   6.563   4.429  15.839  1.0255  0.8785 -1.2270
 5537TIP3   OH238025   2.893   1.885  16.826  0.0150 -0.1009  0.6712
 5537TIP3    H138026   2.950   1.823  16.780  1.1435  2.0374 -1.0190
 5537TIP3    H238027   2.808   1.876  16.782  0.7449  1.0003 -1.0644
 5538TIP3   OH238028   4.529   5.374  13.935 -0.4698 -0.1961  0.0483
 5538TIP3    H138029   4.464   5.388  13.867 -2.4015  0.5768  1.9498
 5538TIP3    H238030   4.533   5.457  13.983 -1.4287 -1.5101  2.6527
 5539TIP3   OH238031   5.115   2.932   4.708 -0.0400 -0.6669 -0.0690
 5539TIP3    H138032   5.096   2.901   4.797 -0.8526 -1.2212 -0.4249
 5539TIP3    H238033   5.160   2.859   4.666  1.2611 -0.0419  0.1778
 5540TIP3   OH238034   2.998   2.500  15.831  0.3756  0.8165 -0.4161
 5540TIP3    H138035   2.951   2.419  15.851  0.2657  1.1724  0.9234
 5540TIP3    H238036   2.957   2.565  15.888  1.4105  1.4878 -0.4155
 5541TIP3   OH238037   4.227   2.000   0.802 -0.5332 -0.3226  0.0163
 5541TIP3    H138038   4.277   2.035   0.875 -2.4548 -0.5062  1.4896
 5541TIP3    H238039   4.243   1.906   0.805  0.3911 -0.2042 -0.6321
 5542TIP3   OH238040   2.647   6.505   6.062  0.1451 -0.0887  0.1295
 5542TIP3    H138041   2.647   6.598   6.041  0.7161 -0.0329  0.3723
 5542TIP3    H238042   2.596   6.499   6.143  1.8526  0.2878  1.2740
 5543TIP3   OH238043   2.805   6.596   0.546  0.0094 -0.6331 -0.6557
 5543TIP3    H138044   2.860   6.563   0.474  0.6567 -0.2035 -0.3742
 5543TIP3    H238045   2.817   6.691   0.543  1.0723 -0.6830  0.8051
 5544TIP3   OH238046   5.975   6.293  11.804 -0.0163  0.1805  0.1321
 5544TIP3    H138047   5.982   6.369  11.862  2.6070 -0.7374  1.1500
 5544TIP3    H238048   5.947   6.222  11.861 -0.7327 -0.0386 -0.4705
 5545TIP3   OH238049   6.301   5.462   5.270  0.0630 -0.3076 -0.7405
 5545TIP3    H138050   6.264   5.388   5.222 -1.3558 -0.5350  0.6396
 5545TIP3    H238051   6.294   5.437   5.362 -1.2414  1.8591 -0.1848
 5546TIP3   OH238052   0.175   4.654   4.730  0.1171  0.1185 -0.3379
 5546TIP3    H138053   0.264   4.678   4.756 -0.0388  0.6192 -0.2584
 5546TIP3    H238054   0.167   4.685   4.640 -0.2954  0.9328 -0.0240
 5547TIP3   OH238055   6.232   2.957  11.517 -0.0303 -0.1797  0.1407
 5547TIP3    H138056   6.214   2.936  11.425 -1.3320 -1.8849  0.7471
 5547TIP3    H238057   6.240   3.053  11.518 -0.0578 -0.1233 -1.7219
 5548TIP3   OH238058   0.630   5.809   4.491  0.2215 -0.3226 -0.2956
 5548TIP3    H138059   0.613   5.902   4.480 -0.3186 -0.3111  0.5185
 5548TIP3    H238060   0.603   5.790   4.581 -0.8172 -1.5076 -0.8181
 5549TIP3   OH238061   2.417   2.897  13.276  0.3500 -0.1691  0.3052
 5549TIP3    H138062   2.501   2.938  13.296  0.1883  0.1371  0.3525
 5549TIP3    H238063   2.380   2.950  13.205 -0.9860  1.2632  1.9901
 5550TIP3   OH238064   6.376   4.980  15.133  0.6756 -0.5344 -0.1477
 5550TIP3    H138065   6.334   4.963  15.049  0.5353 -0.0651 -0.1790
 5550TIP3    H238066   6.454   4.925  15.133  0.5540 -0.7064 -0.4911
 5551TIP3   OH238067   1.481   4.192  14.095  0.1420 -0.0226  0.3127
 5551TIP3    H138068   1.432   4.155  14.168  0.5695 -2.3601 -0.4812
 5551TIP3    H238069   1.570   4.202  14.128  0.2542 -0.7302  0.2410
 5552TIP3   OH238070   2.034   2.882   2.022 -0.3006 -0.4130 -0.1110
 5552TIP3    H138071   1.972   2.813   1.996  0.7232 -1.5259  0.2747
 5552TIP3    H238072   2.120   2.840   2.016  0.3827  0.9205 -0.0852
 5553TIP3   OH238073   4.487   5.067  17.448  0.4814 -0.4916 -0.6563
 5553TIP3    H138074   4.580   5.048  17.443  0.3664 -0.8143 -1.9941
 5553TIP3    H238075   4.481   5.140  17.510  1.6605 -0.2070 -0.8488
 5554TIP3   OH238076   1.701   6.430  16.342  0.0348  0.4715 -0.6756
 5554TIP3    H138077   1.608   6.444  16.362 -0.3728 -0.2742 -1.9502
 5554TIP3    H238078   1.738   6.518  16.335 -0.5573  0.7722 -0.0961
 5555TIP3   OH238079   2.245   5.778  14.139  0.2458 -0.7051  0.0771
 5555TIP3    H138080   2.180   5.784  14.069  0.9918 -0.7429 -0.6320
 5555TIP3    H238081   2.212   5.836  14.207 -1.3052 -1.8695  0.3738
 5556TIP3   OH238082   2.450   5.915   1.181 -0.2504  0.4580  0.1536
 5556TIP3    H138083   2.431   5.864   1.103  1.9627 -0.5569  0.1964
 5556TIP3    H238084   2.462   5.849   1.250 -0.3859  1.2331  0.9431
 5557TIP3   OH238085   5.993   2.733  11.088  0.0943  0.2836 -0.0465
 5557TIP3    H138086   6.002   2.652  11.038  0.6286 -0.4701  1.2159
 5557TIP3    H238087   6.049   2.796  11.044  0.9020 -0.4897 -0.1385
 5558TIP3   OH238088   4.062   6.488   0.527 -0.1992 -0.2118 -0.0741
 5558TIP3    H138089   4.024   6.461   0.611 -1.5915  0.7277 -0.3651
 5558TIP3    H238090   4.076   6.406   0.479  0.2561 -0.7311  0.9049
 5559TIP3   OH238091   0.393   2.480   4.156  0.3454 -0.3651  0.0521
 5559TIP3    H138092   0.396   2.496   4.062  0.5683  0.0805  0.1351
 5559TIP3    H238093   0.301   2.457   4.173  0.2531 -0.2079 -0.2336
 5560TIP3   OH238094   5.844   6.076   0.243 -0.2668  0.3302 -0.2690
 5560TIP3    H138095   5.860   6.166   0.271  0.5495 -0.3415  1.6583
 5560TIP3    H238096   5.821   6.082   0.150 -0.6645  2.5381 -0.0691
 5561TIP3   OH238097   5.926   2.590   0.363  0.0929 -0.4398 -0.0651
 5561TIP3    H138098   5.864   2.518   0.371 -0.0427 -0.2070  1.2354
 5561TIP3    H238099   6.011   2.547   0.354  0.1030 -0.8015  1.4487
 5562TIP3   OH238100   2.520   1.388  17.077 -0.0229  0.0272 -0.0538
 5562TIP3    H138101   2.519   1.348  16.991  2.6559 -0.5160  0.0686
 5562TIP3    H238102   2.537   1.481  17.061  0.7974 -0.1284 -0.1319
 5563TIP3   OH238103   1.479   4.124  12.718 -0.5596  0.0593  0.1679
 5563TIP3    H138104   1.492   4.122  12.623 -2.9709  0.6380 -0.2488
 5563TIP3    H238105   1.498   4.214  12.743  0.4373 -0.1810  0.3342
 5564TIP3   OH238106   0.928   4.234   3.312 -0.2872 -0.2200 -0.1420
 5564TIP3    H138107   0.968   4.149   3.296  1.8883  0.2428  2.1866
 5564TIP3    H238108   0.846   4.214   3.358  0.3943 -1.0728  0.7436
 5565TIP3   OH238109   0.335   5.166  15.481 -0.3937  0.0455 -0.0378
 5565TIP3    H138110   0.309   5.162  15.389 -0.4819 -0.8829  0.0110
 5565TIP3    H238111   0.271   5.223  15.522 -0.0086  0.9382 -0.6580
 5566TIP3   OH238112   4.724   4.907  17.500  0.5240  0.0125 -0.1311
 5566TIP3    H138113   4.754   4.877  17.414 -1.0049 -0.1687 -0.6265
 5566TIP3    H238114   4.748   4.835  17.559 -1.7813 -1.6586 -1.0736
 5567TIP3   OH238115   0.039   3.265  11.494 -1.2849 -0.3273 -0.5932
 5567TIP3    H138116   0.087   3.183  11.493 -0.0925  0.3181  0.5172
 5567TIP3    H238117   0.107   3.333  11.495 -2.1726  0.6142  0.9814
 5568TIP3   OH238118   6.117   4.938  17.320  0.1711 -0.0939 -0.1448
 5568TIP3    H138119   6.033   4.891  17.314  0.6731 -1.4120  2.0836
 5568TIP3    H238120   6.176   4.888  17.264  0.0566 -0.6553  0.2221
 5569TIP3   OH238121   2.388   5.785   4.097 -0.1900  0.0909 -0.1726
 5569TIP3    H138122   2.315   5.845   4.112 -1.4490 -1.6058  0.8088
 5569TIP3    H238123   2.392   5.776   4.001 -2.3062 -0.9177 -0.2357
 5570TIP3   OH238124   0.001   5.633  11.742 -0.3223  0.4977 -0.3590
 5570TIP3    H138125  -0.074   5.657  11.689 -1.3356  0.7233  1.1110
 5570TIP3    H238126  -0.029   5.643  11.833  0.7432 -1.6418  0.3047
 5571TIP3   OH238127   5.318   4.471  15.780 -0.0525  0.1131 -0.0067
 5571TIP3    H138128   5.285   4.551  15.820 -1.5376 -1.1204  1.3335
 5571TIP3    H238129   5.242   4.413  15.775  1.2985 -1.8086  0.5687
 5572TIP3   OH238130   1.159   5.891  13.678 -0.0447  0.5382  0.0447
 5572TIP3    H138131   1.202   5.926  13.599  0.6830 -0.4040  0.0007
 5572TIP3    H238132   1.226   5.836  13.719 -1.3182 -1.2931 -0.2195
 5573TIP3   OH238133   4.635   4.813  11.454 -0.2805  0.4514  0.0423
 5573TIP3    H138134   4.612   4.742  11.394 -0.5075 -0.0874  0.7503
 5573TIP3    H238135   4.679   4.878  11.399 -0.7453  0.1040 -0.7588
 5574TIP3   OH238136   5.054   1.370   5.799 -0.0491  0.2412 -0.2892
 5574TIP3    H138137   5.001   1.296   5.770  1.9957 -0.6878 -1.9115
 5574TIP3    H238138   5.035   1.440   5.737 -0.9707  0.6823  0.4527
 5575TIP3   OH238139   3.824   1.793  12.147 -0.2309  0.0955 -0.2813
 5575TIP3    H138140   3.824   1.824  12.056  0.8105  1.1828  0.0672
 5575TIP3    H238141   3.741   1.746  12.156  0.6682 -2.1976 -2.4859
 5576TIP3   OH238142   1.635   3.808   6.279 -0.7200  0.2706 -0.0205
 5576TIP3    H138143   1.540   3.799   6.278 -0.9291  1.9007  1.2586
 5576TIP3    H238144   1.652   3.876   6.344  1.3343 -0.0332 -0.1744
 5577TIP3   OH238145   1.051   0.424  12.599  0.2427  0.0778 -0.4273
 5577TIP3    H138146   1.027   0.332  12.590 -1.4806  0.4386  0.0304
 5577TIP3    H238147   1.117   0.425  12.668  0.1849 -0.7975 -0.3462
 5578TIP3   OH238148   2.131   1.004  14.607  0.1982  0.4322 -0.4133
 5578TIP3    H138149   2.140   1.082  14.553  1.1307 -0.5406 -1.7228
 5578TIP3    H238150   2.044   0.970  14.587  0.8246 -0.3622 -1.9931
 5579TIP3   OH238151   4.917   4.194   6.230  0.6174  0.0331  0.0400
 5579TIP3    H138152   4.927   4.148   6.314 -1.0223 -0.5663 -0.0543
 5579TIP3    H238153   4.893   4.283   6.254 -2.9863 -0.8545  0.3385
 5580TIP3   OH238154   5.206   6.164   0.685  0.6156 -0.3894  0.7570
 5580TIP3    H138155   5.130   6.155   0.629  1.5923 -0.9637 -0.5276
 5580TIP3    H238156   5.193   6.247   0.731 -1.0481 -0.7718  1.0153
 5581TIP3   OH238157   4.230   4.411   1.363  0.1740 -0.5625  0.1704
 5581TIP3    H138158   4.152   4.455   1.395 -0.2487 -1.7985  0.9144
 5581TIP3    H238159   4.266   4.470   1.297 -0.9774  0.3539  0.3366
 5582TIP3   OH238160   2.574   3.518   4.904 -0.0187 -0.2285  0.5869
 5582TIP3    H138161   2.554   3.605   4.938  2.7111  0.6877  0.1081
 5582TIP3    H238162   2.558   3.524   4.810 -0.6040 -0.5188  0.6615
 5583TIP3   OH238163   2.017   0.637  16.974  0.2253  0.1597 -0.1123
 5583TIP3    H138164   2.012   0.543  16.955  0.9595  0.3714 -1.5105
 5583TIP3    H238165   1.966   0.648  17.054  0.8238 -1.5544  0.5592
 5584TIP3   OH238166   5.861   4.901   0.878 -0.4110  0.6134 -0.1263
 5584TIP3    H138167   5.872   4.995   0.895  0.0755  0.7771 -1.2502
 5584TIP3    H238168   5.791   4.874   0.938 -1.2311  1.9040 -0.4617
 5585TIP3   OH238169   4.326   1.918  12.445  0.4710  0.5170  0.2109
 5585TIP3    H138170   4.409   1.927  12.491  0.5718  0.6752 -0.0005
 5585TIP3    H238171   4.311   2.004  12.406 -0.1720  0.7273  0.8858
 5586TIP3   OH238172   4.242   3.577   5.060  0.3452  0.1905 -0.0530
 5586TIP3    H138173   4.156   3.535   5.068  0.7383 -0.9623 -1.5735
 5586TIP3    H238174   4.283   3.536   4.984  1.5036  2.0325 -0.5115
 5587TIP3   OH238175   0.233   4.799   1.171  0.4189 -0.1273  0.2522
 5587TIP3    H138176   0.309   4.835   1.125  1.7844  0.5719  2.8519
 5587TIP3    H238177   0.162   4.859   1.149  0.4570 -0.9032 -2.3988
 5588TIP3   OH238178   3.075   1.257   4.146 -0.4592 -0.4977 -0.1473
 5588TIP3    H138179   3.110   1.334   4.100 -0.1964  0.0638  0.9529
 5588TIP3    H238180   3.151   1.199   4.156  0.0226  0.3405  1.4676
 5589TIP3   OH238181   0.220   5.999  16.503  0.1193 -0.1501  0.1800
 5589TIP3    H138182   0.262   5.914  16.515 -1.4876 -1.2231 -1.2720
 5589TIP3    H238183   0.126   5.979  16.498 -0.2720  1.6530 -0.5889
 5590TIP3   OH238184   2.245   2.036  11.190 -0.1977  0.0884  0.2187
 5590TIP3    H138185   2.196   1.990  11.122 -1.0922 -0.3119  1.1021
 5590TIP3    H238186   2.246   2.127  11.161 -1.2264  0.0518  0.0293
 5591TIP3   OH238187   6.262   0.778   3.497 -0.2225 -0.8713  0.3303
 5591TIP3    H138188   6.349   0.817   3.502 -0.6202  0.7905 -2.7947
 5591TIP3    H238189   6.276   0.696   3.449 -0.1484 -1.6982  1.7258
 5592TIP3   OH238190   2.114   2.580  16.435 -0.2261  0.2945  0.2058
 5592TIP3    H138191   2.209   2.584  16.425 -0.2166 -0.9281 -0.2771
 5592TIP3    H238192   2.080   2.605  16.350 -0.3318  0.2377  0.2328
 5593TIP3   OH238193   6.402   1.557   2.676 -0.1416 -0.5421 -0.0221
 5593TIP3    H138194   6.425   1.551   2.583  0.7404 -2.4383  0.2739
 5593TIP3    H238195   6.309   1.579   2.676 -0.2468 -0.8683 -1.3594
 5594TIP3   OH238196   0.300   2.942   4.749  0.6553 -0.1229 -0.2363
 5594TIP3    H138197   0.271   2.869   4.804  0.6917  0.6837  0.8846
 5594TIP3    H238198   0.254   2.928   4.666 -0.0292 -0.9293  0.2537
 5595TIP3   OH238199   4.297   0.204   2.779 -0.2883 -0.2522  0.1151
 5595TIP3    H138200   4.337   0.164   2.857 -0.1277  0.8133  0.6037
 5595TIP3    H238201   4.232   0.265   2.815 -1.5932 -1.1538 -0.6480
 5596TIP3   OH238202   5.706   4.464   0.673  0.2346 -0.7902  0.2722
 5596TIP3    H138203   5.744   4.379   0.648 -1.9953 -1.0494 -3.0428
 5596TIP3    H238204   5.613   4.455   0.650 -0.5570  1.8136  2.0528
 5597TIP3   OH238205   4.333   0.164  15.371 -0.2059 -0.3783  0.1429
 5597TIP3    H138206   4.254   0.161  15.425 -1.2041 -1.0208 -1.3008
 5597TIP3    H238207   4.380   0.084  15.393  0.3048  0.2247  1.3431
 5598TIP3   OH238208   4.814   1.351   2.915  0.3482 -0.7332  0.3043
 5598TIP3    H138209   4.847   1.376   2.829  0.1388 -0.1510  0.3890
 5598TIP3    H238210   4.731   1.307   2.897 -1.0770  1.7412  0.3174
 5599TIP3   OH238211   5.108   1.968  17.257 -0.1603 -0.1228  0.5026
 5599TIP3    H138212   5.144   1.986  17.170  1.3156 -0.8204  0.9371
 5599TIP3    H238213   5.173   2.005  17.318 -1.1745  0.3690  1.3282
 5600TIP3   OH238214   4.123   0.126  15.614  0.0234  0.0300  0.1175
 5600TIP3    H138215   4.079   0.206  15.640  0.8932  0.9335 -1.0348
 5600TIP3    H238216   4.091   0.109  15.525  0.5908 -0.3308 -0.0243
 5601TIP3   OH238217   0.972   4.872   6.755  0.4256 -0.3828 -0.4345
 5601TIP3    H138218   0.880   4.871   6.728  0.2980  0.2508 -0.0491
 5601TIP3    H238219   0.991   4.965   6.769  1.3789 -0.4198 -1.3661
 5602TIP3   OH238220   4.359   4.438  12.920 -0.2401 -0.2517 -0.2326
 5602TIP3    H138221   4.353   4.453  12.825 -1.8234 -1.2446 -0.3247
 5602TIP3    H238222   4.446   4.398  12.932  0.7518  1.5681 -0.9790
 5603TIP3   OH238223   0.340   4.598   4.998 -0.1394  0.3566  0.3860
 5603TIP3    H138224   0.276   4.559   5.057 -0.3910  0.2560  0.0537
 5603TIP3    H238225   0.289   4.663   4.948  0.6196  2.4561  2.1713
 5604TIP3   OH238226   2.880   2.762  15.018 -0.0025 -0.0027  0.1945
 5604TIP3    H138227   2.953   2.717  14.976  0.1043  0.6307 -0.3206
 5604TIP3    H238228   2.922   2.826  15.076 -0.1490  0.2873 -0.0200
 5605TIP3   OH238229   0.838   4.402  13.959 -0.5411  0.0597 -0.3534
 5605TIP3    H138230   0.864   4.490  13.930  1.7673 -0.7882 -1.0790
 5605TIP3    H238231   0.892   4.386  14.036  1.8096 -2.0153 -2.2583
 5606TIP3   OH238232   4.124   1.003   3.331  0.5276  0.0308 -0.2556
 5606TIP3    H138233   4.184   0.943   3.288  1.7848  1.0258  0.0715
 5606TIP3    H238234   4.041   0.954   3.337  1.7974 -2.1178  1.0345
 5607TIP3   OH238235   3.628   6.138   4.519 -0.4676 -0.1270  0.4073
 5607TIP3    H138236   3.679   6.129   4.439 -1.5627  0.5379 -0.3838
 5607TIP3    H238237   3.588   6.052   4.532 -0.0917 -0.3077  0.3912
 5608TIP3   OH238238   3.589   1.052  15.399  0.7056 -0.5771  0.3274
 5608TIP3    H138239   3.626   1.081  15.483  0.4941  0.0880  0.1941
 5608TIP3    H238240   3.549   1.131  15.362  0.4912 -0.9483 -0.2386
 5609TIP3   OH238241   4.238   0.224  17.384  0.6089 -0.9272 -0.3248
 5609TIP3    H138242   4.310   0.169  17.354  1.7140 -0.0008  0.5427
 5609TIP3    H238243   4.238   0.299  17.324 -1.2311 -2.0610 -1.8351
 5610TIP3   OH238244   5.779   5.926  10.459 -0.5050  0.5261 -0.5842
 5610TIP3    H138245   5.874   5.933  10.453 -0.5700  0.8251 -1.6127
 5610TIP3    H238246   5.759   5.838  10.428 -0.5158  0.1835  0.3847
 5611TIP3   OH238247   0.089   0.825   4.060  0.7131 -0.4836 -0.1924
 5611TIP3    H138248   0.161   0.821   3.997 -0.2966 -0.0013 -1.4251
 5611TIP3    H238249   0.052   0.737   4.060  0.5196 -0.4064 -0.5357
 5612TIP3   OH238250   4.285   5.705   5.691 -0.7588  0.0427  0.4756
 5612TIP3    H138251   4.231   5.753   5.629 -0.1291 -0.3920 -0.4417
 5612TIP3    H238252   4.276   5.753   5.774 -0.8388  1.2195 -0.1909
 5613TIP3   OH238253   1.735   0.068  13.916 -0.0315  0.1239 -0.1570
 5613TIP3    H138254   1.755  -0.025  13.907  3.0540  0.4978  1.3425
 5613TIP3    H238255   1.681   0.073  13.994  0.2444 -0.3892  0.0739
 5614TIP3   OH238256   6.040   0.147  14.616 -0.2089 -0.0333 -0.2294
 5614TIP3    H138257   6.120   0.163  14.667 -0.6666 -1.5954  1.0746
 5614TIP3    H238258   6.071   0.108  14.534  0.3698 -2.4396  1.0313
 5615TIP3   OH238259   2.626   5.767   3.285  0.2677 -0.8910 -0.2816
 5615TIP3    H138260   2.547   5.805   3.246  0.5722 -1.6891 -1.7851
 5615TIP3    H238261   2.698   5.803   3.232  0.7538 -1.5393 -0.0757
 5616TIP3   OH238262   1.409   2.404  12.819  0.6410  0.0436  0.4308
 5616TIP3    H138263   1.335   2.369  12.771  1.1287  0.1167 -0.3836
 5616TIP3    H238264   1.371   2.473  12.874  0.2521  0.7797 -0.7363
 5617TIP3   OH238265   2.571   6.312   5.882 -0.7861 -0.4144  0.4265
 5617TIP3    H138266   2.617   6.350   5.957  0.5040 -0.5131 -0.2938
 5617TIP3    H238267   2.536   6.229   5.916 -1.4983  0.2324  1.3177
 5618TIP3   OH238268   5.134   4.718   4.475  0.8116 -0.3576 -0.0515
 5618TIP3    H138269   5.138   4.794   4.534  1.1342  0.3529 -0.9572
 5618TIP3    H238270   5.085   4.750   4.400  0.7892 -1.1183 -0.3613
 5619TIP3   OH238271   4.358   1.532  13.933  0.2840  0.2116  0.4705
 5619TIP3    H138272   4.307   1.470  13.881  0.9767 -1.3495  1.5524
 5619TIP3    H238273   4.405   1.477  13.996  0.2109  1.9318  2.1112
 5620TIP3   OH238274   0.423   1.196  13.393 -0.4304 -0.2907 -0.1655
 5620TIP3    H138275   0.506   1.171  13.433 -0.8255  0.8688  1.5257
 5620TIP3    H238276   0.440   1.281  13.354 -0.6024 -0.4604 -0.6150
 5621TIP3   OH238277   2.103   4.185  16.121  0.3262  1.1732 -0.3415
 5621TIP3    H138278   2.052   4.119  16.167  0.8410  1.7189  1.0726
 5621TIP3    H238279   2.066   4.187  16.033 -1.1484  0.5647  0.2312
 5622TIP3   OH238280   0.165   6.571   4.646  0.4743 -0.2992  0.6523
 5622TIP3    H138281   0.168   6.537   4.556  1.0601  0.1278  0.5100
 5622TIP3    H238282   0.213   6.506   4.697  0.6445 -0.2424  0.5634
 5623TIP3   OH238283   1.157   4.573   1.829  0.5915 -0.1587 -0.5866
 5623TIP3    H138284   1.197   4.492   1.860 -2.2137 -1.7879 -0.8672
 5623TIP3    H238285   1.159   4.632   1.904  2.1278 -0.6845 -0.1876
 5624TIP3   OH238286   6.467   6.144   5.888 -0.7762 -0.2720  0.0517
 5624TIP3    H138287   6.465   6.184   5.801 -0.4392  0.1855  0.2503
 5624TIP3    H238288   6.451   6.216   5.949  1.8837  0.0169  0.5447
 5625TIP3   OH238289   3.104   1.216   6.228 -0.0833 -0.1987  0.6785
 5625TIP3    H138290   3.026   1.205   6.283  0.0986 -0.0577  0.9684
 5625TIP3    H238291   3.122   1.310   6.232 -1.3860  0.2206 -1.4408
 5626TIP3   OH238292   3.154   1.889   4.239  0.0644 -0.1876 -0.1362
 5626TIP3    H138293   3.224   1.951   4.218  1.5728 -1.5244  0.7075
 5626TIP3    H238294   3.197   1.821   4.291 -1.8535 -1.1369  0.2994
 5627TIP3   OH238295   5.326   1.801   6.348  0.1918  0.1042  0.1946
 5627TIP3    H138296   5.387   1.734   6.316 -0.8875 -0.8144 -0.0461
 5627TIP3    H238297   5.380   1.861   6.398  1.2919 -0.6620 -0.0216
 5628TIP3   OH238298   3.566   3.548   6.551  0.0742 -0.2706 -0.1324
 5628TIP3    H138299   3.558   3.625   6.607 -1.0172 -0.5608  0.1212
 5628TIP3    H238300   3.564   3.474   6.611 -1.0490 -0.5843 -0.5308
 5629TIP3   OH238301   5.966   6.628   0.266 -0.0224  0.3324 -0.4548
 5629TIP3    H138302   6.020   6.699   0.301 -1.0466  0.2808  1.4023
 5629TIP3    H238303   6.011   6.599   0.187  0.4093  3.0614 -1.2994
 5630TIP3   OH238304   1.580   1.878   3.434  0.9081 -0.4541 -0.3887
 5630TIP3    H138305   1.525   1.857   3.509 -0.1936  0.6627 -0.8491
 5630TIP3    H238306   1.531   1.843   3.359 -0.3687  2.4850 -1.0471
 5631TIP3   OH238307   3.588   4.998  16.333  0.6084  0.2929 -0.6607
 5631TIP3    H138308   3.683   4.993  16.340  0.7031 -2.8372 -2.3293
 5631TIP3    H238309   3.570   5.086  16.300  2.9272  0.8819 -0.4712
 5632TIP3   OH238310   5.822   2.882   6.036 -0.0784 -0.4360 -0.0088
 5632TIP3    H138311   5.835   2.866   6.130 -1.3244 -0.1412  0.2285
 5632TIP3    H238312   5.799   2.796   6.001  1.0560 -0.6788 -0.1726
 5633TIP3   OH238313   1.006   6.008  14.840  0.8202 -0.0520 -0.1926
 5633TIP3    H138314   0.948   5.944  14.884  2.8999 -1.7361  0.2588
 5633TIP3    H238315   1.043   6.059  14.912  0.7042  0.2999 -0.3840
 5634TIP3   OH238316   0.363   0.477   3.122 -0.0987 -0.3420  0.2388
 5634TIP3    H138317   0.269   0.484   3.141 -0.1495  0.0681 -0.1618
 5634TIP3    H238318   0.393   0.568   3.113  0.4693 -0.4393  0.9990
 5635TIP3   OH238319   5.437   6.482  13.717  0.4560  0.2256  0.2867
 5635TIP3    H138320   5.381   6.423  13.768  1.3736 -2.5121 -1.6660
 5635TIP3    H238321   5.521   6.480  13.762  0.8400 -1.0038 -0.4524
 5636TIP3   OH238322   6.260   5.475  11.485 -0.0914  0.1842  0.3312
 5636TIP3    H138323   6.298   5.505  11.402  1.7488  0.4922  1.2379
 5636TIP3    H238324   6.170   5.506  11.483  0.4272  1.7035 -0.8047
 5637TIP3   OH238325   4.590   0.528   5.372 -0.0416  0.2493 -0.2050
 5637TIP3    H138326   4.626   0.588   5.438 -0.9047 -0.1341  0.6353
 5637TIP3    H238327   4.653   0.457   5.366 -0.2133  0.0212  0.6134
 5638TIP3   OH238328   2.093   0.934   5.546  0.3143  0.0416  0.3274
 5638TIP3    H138329   2.080   1.023   5.580 -1.3086  0.7676 -1.9895
 5638TIP3    H238330   2.184   0.933   5.517  0.2264  1.1069 -0.0408
 5639TIP3   OH238331   2.469   5.786   3.828 -0.1633 -0.3369 -0.4426
 5639TIP3    H138332   2.530   5.841   3.778  2.0197 -1.1426  1.1954
 5639TIP3    H238333   2.415   5.744   3.761  2.1594 -0.8415 -2.1276
 5640TIP3   OH238334   2.515   1.175   2.585  0.0345  0.5583 -0.1244
 5640TIP3    H138335   2.499   1.189   2.492 -2.4073 -1.8167 -0.1877
 5640TIP3    H238336   2.438   1.213   2.628  2.5089  4.4548  1.3645
 5641TIP3   OH238337   0.333   5.535  16.831 -0.9323  0.0892  0.3935
 5641TIP3    H138338   0.337   5.611  16.772 -1.5178  0.7283  1.1568
 5641TIP3    H238339   0.248   5.545  16.875 -0.3355 -0.1765  1.6186
 5642TIP3   OH238340   0.980   2.584   1.567 -0.4555  0.1641 -0.0979
 5642TIP3    H138341   0.949   2.631   1.644  1.9767 -0.3234  1.2771
 5642TIP3    H238342   1.069   2.559   1.589 -0.1662 -1.2265 -2.5528
 5643TIP3   OH238343   6.164   4.523   5.440  0.3212  0.3476  0.4131
 5643TIP3    H138344   6.168   4.616   5.417 -0.0644  0.3883  0.5055
 5643TIP3    H238345   6.156   4.522   5.535 -2.4652  0.3239  0.2583
 5644TIP3   OH238346   4.726   1.272  12.524  0.0425  0.9983 -0.2854
 5644TIP3    H138347   4.676   1.350  12.500 -0.9717  0.5620  0.3532
 5644TIP3    H238348   4.683   1.201  12.476  1.8063  0.9764 -1.9722
 5645TIP3   OH238349   1.488   2.091   3.842 -0.0864 -0.8130  0.4981
 5645TIP3    H138350   1.577   2.127   3.841 -0.6299  0.6085  0.7241
 5645TIP3    H238351   1.461   2.099   3.933 -0.4027 -1.3583  0.4506
 5646TIP3   OH238352   1.626   4.064   0.103  0.4833  0.8534  0.7642
 5646TIP3    H138353   1.718   4.038   0.102  0.9850  2.5234 -0.6625
 5646TIP3    H238354   1.611   4.094   0.193  0.9833 -0.4838  1.3206
 5647TIP3   OH238355   0.096   2.219  15.717  0.2256  0.3266  0.2796
 5647TIP3    H138356   0.140   2.251  15.796  1.0163 -1.0165  0.4163
 5647TIP3    H238357   0.116   2.126  15.715 -2.2799 -0.2748  0.0779
 5648TIP3   OH238358   3.442   1.315  15.769  0.1199 -0.1954 -0.2959
 5648TIP3    H138359   3.383   1.253  15.812 -0.7164  0.3636 -0.5924
 5648TIP3    H238360   3.402   1.401  15.785  0.0888  0.0757 -1.6901
 5649TIP3   OH238361   5.788   6.039   0.604  0.1348 -0.0174  0.1522
 5649TIP3    H138362   5.713   5.993   0.566 -0.4331 -1.7633  3.0396
 5649TIP3    H238363   5.864   5.989   0.574 -0.3919 -2.1899  2.1432
 5650TIP3   OH238364   2.297   6.101   6.274 -0.4143  0.1709 -0.1748
 5650TIP3    H138365   2.307   6.040   6.347  2.5187 -0.3330 -0.8807
 5650TIP3    H238366   2.263   6.047   6.203 -0.3483 -0.0397 -0.0480
 5651TIP3   OH238367   0.125   1.034   0.968 -0.2725  0.2821 -0.0533
 5651TIP3    H138368   0.057   0.971   0.947 -1.3406  1.7343 -1.1881
 5651TIP3    H238369   0.126   1.094   0.893  2.2807  0.3235 -0.0965
 5652TIP3   OH238370   1.135   2.650   4.074  0.0435 -0.4970  0.0759
 5652TIP3    H138371   1.185   2.714   4.023  0.4534 -0.8669  0.0164
 5652TIP3    H238372   1.057   2.632   4.021 -0.5296  0.6270  0.4967
 5653TIP3   OH238373   3.115   4.808   0.201 -0.1475  0.3347 -0.5133
 5653TIP3    H138374   3.093   4.901   0.213 -0.5705  0.1373  0.3465
 5653TIP3    H238375   3.141   4.801   0.109  0.2115  1.3691 -0.5036
 5654TIP3   OH238376   3.424   3.283  11.851 -0.3907  0.5111  0.7643
 5654TIP3    H138377   3.438   3.262  11.758 -2.9544 -0.0699  0.4373
 5654TIP3    H238378   3.501   3.248  11.895  1.4645  1.8145 -1.2306
 5655TIP3   OH238379   1.789   2.385   0.849 -0.5617 -0.4760 -0.6015
 5655TIP3    H138380   1.748   2.325   0.788 -1.1046 -0.6888 -0.0358
 5655TIP3    H238381   1.806   2.464   0.798 -0.1483 -0.9828 -1.2625
 5656TIP3   OH238382   0.542   0.408   1.601 -0.6329 -0.3360  0.3122
 5656TIP3    H138383   0.516   0.316   1.595 -0.3162 -0.5357  1.7175
 5656TIP3    H238384   0.602   0.420   1.527 -0.3443 -1.3728  0.3537
 5657TIP3   OH238385   6.577   3.773   1.207 -0.2123 -0.6566  0.1566
 5657TIP3    H138386   6.669   3.795   1.193 -0.6388  0.4064 -1.2552
 5657TIP3    H238387   6.575   3.726   1.290  1.5459 -0.3500  0.3981
 5658TIP3   OH238388   3.941   3.570  16.487  0.1968 -0.4144  0.0814
 5658TIP3    H138389   3.919   3.611  16.403 -1.3400 -0.7030  0.3158
 5658TIP3    H238390   3.884   3.493  16.492 -0.8820  0.4398  2.0647
 5659TIP3   OH238391   0.237   3.448  11.510  0.2450 -0.3302  0.6422
 5659TIP3    H138392   0.196   3.517  11.563  1.4909 -0.5211  1.9166
 5659TIP3    H238393   0.297   3.494  11.452 -0.7670 -0.1635 -0.3165
 5660TIP3   OH238394   5.410   1.371  17.140  0.0756  0.4874  0.1721
 5660TIP3    H138395   5.489   1.425  17.135 -0.0240  0.7858  1.3692
 5660TIP3    H238396   5.389   1.370  17.234 -0.6625 -0.5640  0.0074
 5661TIP3   OH238397   3.367   4.558   4.424  0.5992  0.5713 -0.1018
 5661TIP3    H138398   3.308   4.559   4.500  1.0827  1.4439  0.2676
 5661TIP3    H238399   3.343   4.636   4.375  0.8712  0.4635 -0.4020
 5662TIP3   OH238400   6.050   4.062   1.037 -0.0278 -0.0514 -0.1496
 5662TIP3    H138401   6.055   4.134   1.100  2.2009  0.5449 -0.9024
 5662TIP3    H238402   5.968   4.077   0.990 -0.2531  1.2327  0.6096
 5663TIP3   OH238403   0.021   3.847  10.592  0.0692  0.2649  0.4272
 5663TIP3    H138404  -0.059   3.897  10.577  1.1667  2.2580  0.8227
 5663TIP3    H238405   0.009   3.806  10.677 -1.5785 -1.7214 -0.6757
 5664TIP3   OH238406   0.202   1.613   5.646 -0.0770 -0.5161  0.2438
 5664TIP3    H138407   0.296   1.630   5.655  0.3892 -2.1836 -0.8680
 5664TIP3    H238408   0.164   1.698   5.623  1.2057  0.1304  0.4380
 5665TIP3   OH238409   1.778   2.211   4.011  0.5801  0.0556  0.1302
 5665TIP3    H138410   1.770   2.116   4.018 -0.0871  0.0705 -0.2790
 5665TIP3    H238411   1.845   2.225   3.944 -0.1779 -0.1499 -0.7021
 5666TIP3   OH238412   6.449   6.491   4.702  0.0768  0.1225 -0.3723
 5666TIP3    H138413   6.529   6.484   4.754  0.1596  3.1779  0.1019
 5666TIP3    H238414   6.478   6.529   4.619 -0.8365  1.0902 -0.2623
 5667TIP3   OH238415   4.552   0.736   1.691  0.2653 -0.6296 -0.1319
 5667TIP3    H138416   4.520   0.650   1.665  1.6907 -1.5386  1.0033
 5667TIP3    H238417   4.627   0.752   1.634  0.7054 -0.6454  0.4456
 5668TIP3   OH238418   4.267   5.418   6.632 -0.4448 -0.2687  0.0179
 5668TIP3    H138419   4.208   5.458   6.567 -2.0204 -0.6979  1.1194
 5668TIP3    H238420   4.213   5.352   6.675  1.0575 -1.1179  0.6663
 5669TIP3   OH238421   5.060   1.585  13.087 -0.2190  0.7358 -0.0258
 5669TIP3    H138422   5.115   1.547  13.156 -0.3413  0.0003 -0.3184
 5669TIP3    H238423   5.117   1.648  13.043  0.1238  0.6026  0.2233
 5670TIP3   OH238424   2.847   1.703   1.054 -0.4676  0.3671 -0.0335
 5670TIP3    H138425   2.847   1.674   0.963  0.9460 -0.1496  0.1057
 5670TIP3    H238426   2.939   1.704   1.079 -0.8248  0.5492  1.3826
 5671TIP3   OH238427   3.373   5.334   0.757 -0.8381 -0.0556 -0.1467
 5671TIP3    H138428   3.298   5.390   0.743 -1.7070 -1.2025 -0.2553
 5671TIP3    H238429   3.341   5.245   0.739  0.2596 -0.6896  0.8222
 5672TIP3   OH238430   4.044   5.606   5.915  0.5400  0.2381  0.0147
 5672TIP3    H138431   3.971   5.586   5.974  0.0983 -0.1171 -0.6293
 5672TIP3    H238432   4.113   5.639   5.971 -0.2088  0.8107  0.6120
 5673TIP3   OH238433   2.622   3.702  17.424  0.0984  0.0596  0.7013
 5673TIP3    H138434   2.629   3.752  17.343  0.6349  1.8756  1.8022
 5673TIP3    H238435   2.585   3.618  17.398  0.2821  0.5900 -1.4097
 5674TIP3   OH238436   0.155   6.095  13.414 -0.0099  0.9743  0.7643
 5674TIP3    H138437   0.072   6.138  13.434 -0.4742  0.4379  0.0435
 5674TIP3    H238438   0.215   6.167  13.396 -0.7502  1.3528 -0.3394
 5675TIP3   OH238439   2.250   1.415  17.111  0.1592 -0.1926 -0.3905
 5675TIP3    H138440   2.342   1.387  17.114  0.2002  0.0355  1.7704
 5675TIP3    H238441   2.227   1.433  17.202 -1.9466  0.0890 -0.9248
 5676TIP3   OH238442   1.168   4.781   5.535  0.1160 -0.0650  0.7812
 5676TIP3    H138443   1.200   4.713   5.477 -1.0707 -1.0811  1.2831
 5676TIP3    H238444   1.215   4.767   5.617 -0.4116 -0.5368  1.0074
 5677TIP3   OH238445   4.441   1.254   3.589 -0.2823  0.3250 -0.0595
 5677TIP3    H138446   4.513   1.316   3.581  1.8275 -2.2156 -3.3158
 5677TIP3    H238447   4.403   1.272   3.675  2.8169  3.2373  0.9004
 5678TIP3   OH238448   0.848   4.171   2.748 -0.5179  0.0272  0.5647
 5678TIP3    H138449   0.844   4.084   2.787 -0.5733  0.3754  1.3803
 5678TIP3    H238450   0.821   4.230   2.819  0.3075  0.7759  0.2857
 5679TIP3   OH238451   0.156   6.500  16.508  0.3562  0.8778 -0.0888
 5679TIP3    H138452   0.065   6.498  16.538  0.5438 -0.5576  0.4466
 5679TIP3    H238453   0.179   6.593  16.509 -1.3927  1.3775 -1.1518
 5680TIP3   OH238454   4.418   1.139  14.996 -0.2780 -0.0843  0.5351
 5680TIP3    H138455   4.495   1.193  14.977  0.2800 -1.0106  0.0643
 5680TIP3    H238456   4.436   1.103  15.083 -0.0286 -0.5437  0.2965
 5681TIP3   OH238457   5.638   0.787   0.878  0.3255  0.4140  0.0190
 5681TIP3    H138458   5.685   0.759   0.799  0.6095  3.0596 -0.8592
 5681TIP3    H238459   5.561   0.731   0.882  1.4233 -1.2193 -0.9042
 5682TIP3   OH238460   5.840   3.267  11.456  0.3891  0.0458  0.4885
 5682TIP3    H138461   5.899   3.236  11.386  0.0205 -0.9887  0.6180
 5682TIP3    H238462   5.873   3.224  11.535 -0.1773 -0.0803  0.6589
 5683TIP3   OH238463   2.310   2.099  15.408 -0.2384  0.2527  0.2317
 5683TIP3    H138464   2.226   2.122  15.369 -0.3215  0.4048  0.5046
 5683TIP3    H238465   2.354   2.182  15.422  0.1956  0.1473 -0.4307
 5684TIP3   OH238466   3.408   2.293   1.956 -0.6512  0.3023 -0.5322
 5684TIP3    H138467   3.319   2.313   1.926  0.4219  2.4660 -2.5982
 5684TIP3    H238468   3.439   2.374   1.996  0.4524 -0.3788  0.0421
 5685TIP3   OH238469   1.082   6.403  11.768  0.1777 -0.0164  0.0125
 5685TIP3    H138470   1.111   6.312  11.768  0.8958  0.2022 -0.8340
 5685TIP3    H238471   1.040   6.415  11.683  2.2123  1.0827 -0.8950
 5686TIP3   OH238472   2.288   1.773   1.582  0.2240  0.3469  0.0393
 5686TIP3    H138473   2.332   1.700   1.625  1.8712  1.8087  0.9736
 5686TIP3    H238474   2.260   1.830   1.653 -1.4574  0.4396 -0.6459
 5687TIP3   OH238475   1.658   2.178  15.467  0.5049 -0.5390  0.1296
 5687TIP3    H138476   1.576   2.131  15.456 -0.5982  1.2897  0.1300
 5687TIP3    H238477   1.658   2.243  15.398  1.2122  0.4952  1.0661
 5688TIP3   OH238478   1.545   5.101   6.188 -0.2188 -0.8188 -0.7574
 5688TIP3    H138479   1.554   5.080   6.280 -1.3013 -0.0812 -0.4616
 5688TIP3    H238480   1.625   5.068   6.147 -0.1026 -1.8859  0.2977
 5689TIP3   OH238481   0.546   5.698  17.457 -0.2425 -0.0407  0.7078
 5689TIP3    H138482   0.491   5.620  17.448  2.3569 -2.1619  1.9741
 5689TIP3    H238483   0.521   5.736  17.541  0.4434 -1.2354  1.4796
 5690TIP3   OH238484   3.916   0.350  12.865  0.4996  0.5688  0.1453
 5690TIP3    H138485   3.934   0.444  12.866  0.8246  0.5101  0.1352
 5690TIP3    H238486   3.998   0.310  12.835 -0.3649  0.4335 -2.1727
 5691TIP3   OH238487   3.693   5.254   2.981  0.0220 -0.6384 -0.0897
 5691TIP3    H138488   3.644   5.298   2.911  0.1478 -3.1233 -1.8532
 5691TIP3    H238489   3.653   5.286   3.062 -0.3453  2.0937 -1.2508
 5692TIP3   OH238490   1.575   3.460  14.241  0.1805  0.2989  0.2455
 5692TIP3    H138491   1.582   3.515  14.319  0.0318  0.3650  0.2120
 5692TIP3    H238492   1.663   3.460  14.203  0.7414 -1.2251  1.4245
 5693TIP3   OH238493   5.270   2.889  15.992  0.4848  0.2116  0.0517
 5693TIP3    H138494   5.293   2.805  16.030  1.0585  0.5518  0.4797
 5693TIP3    H238495   5.320   2.953  16.043 -0.9127  0.9354  0.5805
 5694TIP3   OH238496   5.290   1.406  14.007  0.4284  0.5968  0.3043
 5694TIP3    H138497   5.331   1.430  13.924 -1.8339  1.3243 -0.6807
 5694TIP3    H238498   5.293   1.486  14.059  0.1756  0.6758  0.1973
 5695TIP3   OH238499   1.543   0.184   0.235  0.4200  0.2090 -0.2263
 5695TIP3    H138500   1.506   0.268   0.264 -0.2543 -0.3749  0.6606
 5695TIP3    H238501   1.569   0.199   0.144  0.6606  1.4942  0.0330
 5696TIP3   OH238502   0.416   6.632  16.182  0.2766 -0.1938  0.5124
 5696TIP3    H138503   0.336   6.650  16.132 -0.0459 -1.6973  0.4168
 5696TIP3    H238504   0.479   6.698  16.152 -1.3203  1.9454  1.6588
 5697TIP3   OH238505   2.623   1.135  14.887 -0.4123 -0.1289 -0.3065
 5697TIP3    H138506   2.622   1.218  14.935 -3.0728 -0.7097  0.7927
 5697TIP3    H238507   2.708   1.097  14.907  0.6889  2.0689 -0.4343
 5698TIP3   OH238508   2.597   4.995   3.326  0.0444 -0.2864 -0.0678
 5698TIP3    H138509   2.534   4.940   3.279  0.7613 -0.7145 -0.5556
 5698TIP3    H238510   2.561   5.002   3.414 -0.2642 -1.2328 -0.1006
 5699TIP3   OH238511   3.218   0.873  12.360  0.4250  0.1180 -0.4960
 5699TIP3    H138512   3.200   0.835  12.275 -0.9891  3.1708 -1.7272
 5699TIP3    H238513   3.132   0.886  12.400  0.8218  1.7153 -0.0684
 5700TIP3   OH238514   2.383   2.755   2.913 -0.3495  0.0277 -0.5621
 5700TIP3    H138515   2.443   2.696   2.867 -1.3094 -1.8354  0.4804
 5700TIP3    H238516   2.296   2.733   2.879 -0.6389  1.5762 -0.8886
 5701TIP3   OH238517   5.767   0.562   5.817  0.3487  0.0325 -0.1171
 5701TIP3    H138518   5.786   0.606   5.734 -0.6903 -0.8980 -0.8756
 5701TIP3    H238519   5.788   0.627   5.884  0.1268  1.2158 -1.1541
 5702TIP3   OH238520   5.831   4.095   3.572 -0.0386 -0.6627  0.5035
 5702TIP3    H138521   5.797   4.014   3.534 -0.8479  0.9003 -2.3198
 5702TIP3    H238522   5.753   4.149   3.586  0.7094  0.5745 -0.0282
 5703TIP3   OH238523   1.493   6.191   0.269 -0.7047 -0.3197 -0.0083
 5703TIP3    H138524   1.463   6.116   0.218 -0.6158  0.5660 -1.3930
 5703TIP3    H238525   1.572   6.160   0.312 -0.0264 -0.7045 -1.4700
 5704TIP3   OH238526   2.909   4.193  14.458  0.1448  0.3948  0.3960
 5704TIP3    H138527   2.913   4.265  14.396  1.5269  0.3700  0.4425
 5704TIP3    H238528   2.989   4.200  14.509 -0.4086 -0.2923  1.4006
 5705TIP3   OH238529   3.073   6.686   1.863  0.0619  0.1603 -0.2612
 5705TIP3    H138530   3.033   6.773   1.871 -1.4675 -0.3846 -1.5096
 5705TIP3    H238531   3.033   6.648   1.784  0.3268 -1.8634  0.5122
 5706TIP3   OH238532   4.502   1.317  10.814  0.4608  0.4776  0.2871
 5706TIP3    H138533   4.583   1.276  10.785  0.0818 -1.3480  1.6218
 5706TIP3    H238534   4.442   1.308  10.739  0.6283 -0.7448  0.2914
 5707TIP3   OH238535   3.294   4.917  15.429 -0.0530 -0.1297  0.0328
 5707TIP3    H138536   3.300   5.012  15.418  0.6811 -0.0626  0.9066
 5707TIP3    H238537   3.290   4.904  15.524 -2.8918 -0.8339 -0.0829
 5708TIP3   OH238538   6.369   0.168  14.357 -0.2653 -0.3562  0.3602
 5708TIP3    H138539   6.389   0.255  14.392 -2.8445  0.8515 -0.8741
 5708TIP3    H238540   6.311   0.129  14.421 -1.8198  0.2674 -0.6053
 5709TIP3   OH238541   2.110   2.180  13.616  0.1696  0.1853  0.3183
 5709TIP3    H138542   2.134   2.270  13.592 -0.6640  0.1015 -0.9408
 5709TIP3    H238543   2.161   2.126  13.556  0.2426 -0.1646  0.6961
 5710TIP3   OH238544   2.284   2.748   4.513  0.6579 -0.0995  0.4743
 5710TIP3    H138545   2.342   2.821   4.492  3.6950 -2.0493  1.4318
 5710TIP3    H238546   2.275   2.700   4.430  1.2627 -0.3251  0.5348
 5711TIP3   OH238547   3.744   3.244  13.716  0.4760 -0.0463  0.1760
 5711TIP3    H138548   3.804   3.248  13.791  0.2380  0.9362  0.3322
 5711TIP3    H238549   3.672   3.302  13.740  0.0501 -0.2705 -0.5266
 5712TIP3   OH238550   0.326   0.491  13.132 -0.1789  0.1820 -0.0931
 5712TIP3    H138551   0.299   0.548  13.059 -2.2778 -1.5688 -0.8108
 5712TIP3    H238552   0.375   0.421  13.090  0.1029  0.0674  0.4241
 5713TIP3   OH238553   2.998   2.498   0.708  0.3139 -0.0130 -0.3687
 5713TIP3    H138554   2.965   2.449   0.633 -1.3190 -1.1024  0.9823
 5713TIP3    H238555   2.944   2.577   0.710  1.1346  0.5705 -0.9925
 5714TIP3   OH238556   3.089   4.404  13.145  0.4676 -0.2502 -0.0156
 5714TIP3    H138557   3.029   4.368  13.211 -0.1456 -2.5479 -1.6844
 5714TIP3    H238558   3.173   4.409  13.189 -0.3863  0.6179  1.6291
 5715TIP3   OH238559   5.308   5.108   4.478  0.1184  0.5284 -0.1876
 5715TIP3    H138560   5.378   5.163   4.444 -0.0883  0.0037 -1.5020
 5715TIP3    H238561   5.349   5.023   4.492 -0.2553  0.1970 -1.0399
 5716TIP3   OH238562   3.279   5.436  16.116 -0.5457 -0.1984  0.3988
 5716TIP3    H138563   3.313   5.399  16.034  2.7793 -0.8864  1.9423
 5716TIP3    H238564   3.246   5.361  16.164 -0.5349 -0.0976  0.5637
 5717TIP3   OH238565   3.644   5.092  11.823  0.0115  0.2109  0.0165
 5717TIP3    H138566   3.694   5.165  11.858 -1.6546  1.1593  0.5041
 5717TIP3    H238567   3.634   5.032  11.897  0.0271  0.2238  0.0294
 5718TIP3   OH238568   4.163   4.984   1.025  0.6366 -0.6417 -0.4723
 5718TIP3    H138569   4.117   5.048   0.970  1.9145 -0.7620 -1.7680
 5718TIP3    H238570   4.222   5.037   1.079 -0.9645 -0.4847  1.2111
 5719TIP3   OH238571   2.552   3.137  11.395  0.1073  0.3755  0.5802
 5719TIP3    H138572   2.481   3.131  11.459  0.7350 -0.2918  1.2250
 5719TIP3    H238573   2.632   3.126  11.446  0.7873  2.5963  0.0817
 5720TIP3   OH238574   6.038   0.457  14.875 -0.2752  0.2639  0.6188
 5720TIP3    H138575   6.076   0.528  14.824 -0.9080  1.6149  1.9562
 5720TIP3    H238576   6.113   0.412  14.915  0.1890 -0.4847 -1.0162
 5721TIP3   OH238577   2.674   4.400   1.766 -0.3260  0.3642  0.6276
 5721TIP3    H138578   2.762   4.422   1.794 -0.1685 -0.7270  1.0544
 5721TIP3    H238579   2.680   4.308   1.737 -1.4564  0.0454  1.3326
 5722TIP3   OH238580   3.816   2.902   1.975  0.0815  0.4506  0.0972
 5722TIP3    H138581   3.821   2.810   1.999  1.2043  0.5030  0.1048
 5722TIP3    H238582   3.767   2.903   1.893  0.7367 -0.2379 -0.3140
 5723TIP3   OH238583   4.430   4.618   4.266  0.5166  0.6728 -0.3500
 5723TIP3    H138584   4.391   4.698   4.300 -0.3082  0.0267  0.2614
 5723TIP3    H238585   4.496   4.649   4.204 -1.0082  1.8248 -1.5032
 5724TIP3   OH238586   2.531   4.188   0.470  0.3773  0.0974  0.3432
 5724TIP3    H138587   2.473   4.173   0.544  0.0729  0.5050  0.1927
 5724TIP3    H238588   2.476   4.175   0.393  0.0303  2.0681  0.2021
 5725TIP3   OH238589   3.486   3.022  17.210  0.3446  0.0024 -0.1305
 5725TIP3    H138590   3.531   2.985  17.134 -0.2505 -0.7758 -0.1206
 5725TIP3    H238591   3.455   2.945  17.259 -2.4028  0.4786 -0.9795
 5726TIP3   OH238592   1.862   0.764   0.144  0.0752  0.2589 -0.8373
 5726TIP3    H138593   1.831   0.780   0.055 -1.1415 -1.1608 -0.7129
 5726TIP3    H238594   1.818   0.683   0.170 -1.0110  1.5348  1.6809
 5727TIP3   OH238595   4.430   6.466  13.845  0.0883 -0.1632 -0.0894
 5727TIP3    H138596   4.343   6.466  13.884 -0.6313  0.4794 -1.6034
 5727TIP3    H238597   4.444   6.557  13.818 -0.7545 -0.9793 -3.9524
 5728TIP3   OH238598   1.161   0.335  17.270  0.1822 -0.4808 -0.0818
 5728TIP3    H138599   1.182   0.387  17.193 -0.2146 -0.8932 -0.4753
 5728TIP3    H238600   1.135   0.399  17.336 -2.2421 -0.2536 -1.1702
 5729TIP3   OH238601   2.861   1.686   3.288 -0.2036 -0.0207  0.2852
 5729TIP3    H138602   2.856   1.626   3.213 -0.4996 -0.5684  0.7317
 5729TIP3    H238603   2.796   1.753   3.271  0.9771  0.8930 -0.8259
 5730TIP3   OH238604   1.286   3.454   4.549  0.0454 -0.5492 -0.4325
 5730TIP3    H138605   1.368   3.412   4.523  0.5469  0.5449 -0.6653
 5730TIP3    H238606   1.276   3.431   4.641  2.2715  1.8340  0.5142
 5731TIP3   OH238607   1.869   0.692  14.318  0.0414  0.6687 -0.0340
 5731TIP3    H138608   1.803   0.707  14.251 -0.3071 -0.6288 -0.0090
 5731TIP3    H238609   1.883   0.597  14.318 -2.7294 -0.0148  4.2131
 5732TIP3   OH238610   2.118   2.080  12.786 -0.3469 -0.2754 -0.4733
 5732TIP3    H138611   2.033   2.091  12.829  0.1166 -0.6866  0.5906
 5732TIP3    H238612   2.159   2.166  12.790 -0.8469  0.0040 -1.2905
 5733TIP3   OH238613   6.327   1.945   3.149 -0.0220 -0.4453  0.1087
 5733TIP3    H138614   6.236   1.956   3.177 -0.2555 -0.9686 -0.4156
 5733TIP3    H238615   6.324   1.876   3.082  0.7981 -0.6885  0.2999
 5734TIP3   OH238616   2.195   5.698   2.417 -0.0669  0.0862 -0.7174
 5734TIP3    H138617   2.288   5.722   2.412 -0.0205  0.2820  0.7199
 5734TIP3    H238618   2.149   5.772   2.377  0.2744  1.1641  0.7819
 5735TIP3   OH238619   0.334   3.840   0.996 -0.1144 -0.3974  0.1029
 5735TIP3    H138620   0.344   3.899   0.922 -1.9253 -0.2226 -0.0590
 5735TIP3    H238621   0.349   3.896   1.073 -1.8268  0.3481 -0.0462
 5736TIP3   OH238622   3.073   2.605  11.872 -0.0395 -0.0324 -0.0189
 5736TIP3    H138623   2.983   2.638  11.879  0.1449  0.3278  0.7847
 5736TIP3    H238624   3.095   2.577  11.960  1.3875  1.8943  0.3088
 5737TIP3   OH238625   0.854   2.761  14.773  0.8023 -0.4755 -0.1702
 5737TIP3    H138626   0.927   2.821  14.788  0.6883 -0.1409 -0.9185
 5737TIP3    H238627   0.852   2.748  14.679  2.3726 -3.6311  0.1077
 5738TIP3   OH238628   5.782   5.325  13.518  0.0837  0.2856  0.2742
 5738TIP3    H138629   5.690   5.347  13.504 -0.0843  1.8357  2.9927
 5738TIP3    H238630   5.789   5.232  13.498 -2.1856  0.0338  0.4395
 5739TIP3   OH238631   0.034   6.162  12.644  0.2529 -0.4179 -0.1069
 5739TIP3    H138632   0.014   6.124  12.729  0.0520  0.4297  0.2318
 5739TIP3    H238633  -0.013   6.245  12.642  1.7667  0.4839 -0.2625
 5740TIP3   OH238634   3.406   6.474   4.301  0.7997 -0.1682 -0.0485
 5740TIP3    H138635   3.406   6.388   4.259  0.1536 -0.0674 -0.2635
 5740TIP3    H238636   3.315   6.502   4.298  0.9410  0.3514  0.3844
 5741TIP3   OH238637   3.360   3.242  17.131 -0.3493  0.4384 -0.0697
 5741TIP3    H138638   3.413   3.162  17.127  0.7756  1.1611 -0.1295
 5741TIP3    H238639   3.269   3.211  17.131  0.0349 -0.8000 -1.1415
 5742TIP3   OH238640   5.251   5.541  17.092  0.4491 -0.6008 -0.6540
 5742TIP3    H138641   5.199   5.467  17.122  1.1845 -0.1970  1.8145
 5742TIP3    H238642   5.341   5.507  17.087  0.4154 -0.5623 -2.2384
 5743TIP3   OH238643   5.615   5.923  16.828 -0.4187 -0.4370  0.2102
 5743TIP3    H138644   5.592   6.015  16.820  1.8129  0.2492  1.1033
 5743TIP3    H238645   5.547   5.886  16.884 -0.1194  1.1928  1.7414
 5744TIP3   OH238646   0.974   5.239  11.711  0.0327 -0.8004 -0.5352
 5744TIP3    H138647   1.007   5.201  11.630  1.8109 -2.9670  1.0692
 5744TIP3    H238648   0.894   5.190  11.730 -1.1796  0.6662 -1.6077
 5745TIP3   OH238649   5.246   0.242   2.402  0.3345 -0.7619 -0.1434
 5745TIP3    H138650   5.224   0.264   2.492  1.2722 -0.1835 -0.0447
 5745TIP3    H238651   5.284   0.154   2.407  0.3335 -0.7529  0.0128
 5746TIP3   OH238652   1.726   3.949   2.134 -0.0826  0.0416 -0.0258
 5746TIP3    H138653   1.637   3.915   2.136 -0.1224  0.1129 -0.4447
 5746TIP3    H238654   1.716   4.044   2.145 -0.0635  0.0595 -0.1633
 5747TIP3   OH238655   0.072   4.534  13.747 -0.3791  0.3101  0.0674
 5747TIP3    H138656   0.152   4.556  13.796  1.3695 -2.5330 -1.2792
 5747TIP3    H238657   0.010   4.507  13.815  1.1488 -1.1240  0.9860
 5748TIP3   OH238658   4.390   2.438  12.529 -1.1214 -0.3249  0.2196
 5748TIP3    H138659   4.446   2.360  12.526  1.0408  1.1493 -2.4108
 5748TIP3    H238660   4.402   2.473  12.617  1.4394 -0.5906  0.0513
 5749TIP3   OH238661   1.515   4.390  11.917  0.3452  0.8688 -0.1144
 5749TIP3    H138662   1.518   4.392  11.821 -0.8104  1.5261 -0.1508
 5749TIP3    H238663   1.430   4.351  11.938  0.3845  1.1724  0.6454
 5750TIP3   OH238664   1.725   1.660  17.263 -0.2947  0.0755 -0.2957
 5750TIP3    H138665   1.632   1.678  17.246 -0.0037  2.6221  0.4684
 5750TIP3    H238666   1.763   1.745  17.281  1.6040 -1.1879  2.4151
 5751TIP3   OH238667   5.433   5.336  11.513  0.3135  0.7468 -0.2130
 5751TIP3    H138668   5.387   5.344  11.429  2.2607  0.7252 -1.3443
 5751TIP3    H238669   5.390   5.400  11.570 -2.1764 -0.4302 -0.6438
 5752TIP3   OH238670   1.531   5.048  13.778  0.2319  0.0496  0.0981
 5752TIP3    H138671   1.575   4.995  13.844 -1.7694 -1.0569  0.6204
 5752TIP3    H238672   1.481   5.112  13.828  0.8902  1.0275 -0.4659
 5753TIP3   OH238673   1.750   5.870   0.357  0.1234 -0.1318 -0.0154
 5753TIP3    H138674   1.715   5.862   0.268 -1.6855 -2.0049  0.7780
 5753TIP3    H238675   1.794   5.786   0.372  3.0890  1.2570 -0.1013
 5754TIP3   OH238676   4.428   0.849  14.451  0.0830 -0.8088 -0.1500
 5754TIP3    H138677   4.457   0.812  14.367  1.5812  0.2815 -0.1501
 5754TIP3    H238678   4.408   0.772  14.505  2.1575 -1.6680 -0.4794
 5755TIP3   OH238679   6.422   4.350   1.275 -0.0105  0.4957  0.5038
 5755TIP3    H138680   6.449   4.298   1.199 -1.2528 -1.6529  1.4430
 5755TIP3    H238681   6.327   4.340   1.278 -0.1248  1.6642  1.5967
 5756TIP3   OH238682   4.787   5.690   3.325 -0.4455  0.4399 -0.1957
 5756TIP3    H138683   4.839   5.765   3.295  0.9800 -0.9151 -1.2707
 5756TIP3    H238684   4.796   5.691   3.420  0.8424  0.7666 -0.2976
 5757TIP3   OH238685   0.748   3.354   3.689  0.2995  0.0179 -0.1972
 5757TIP3    H138686   0.710   3.267   3.703 -0.8219  0.8945  3.1748
 5757TIP3    H238687   0.840   3.344   3.714  0.1400 -0.1897  0.3286
 5758TIP3   OH238688   0.625   4.032   4.606 -0.4141  0.1013  0.3833
 5758TIP3    H138689   0.688   4.092   4.645  0.4295 -1.4447  1.4640
 5758TIP3    H238690   0.677   3.973   4.551 -0.8621 -1.2138  1.3107
 5759TIP3   OH238691   6.103   1.160   5.334 -0.0049  0.2183  0.0631
 5759TIP3    H138692   6.075   1.121   5.417 -1.3458 -0.9522 -0.8837
 5759TIP3    H238693   6.106   1.254   5.352 -0.7483  0.0297  1.3164
 5760TIP3   OH238694   0.187   5.727  15.052 -0.1175 -0.6319 -1.1752
 5760TIP3    H138695   0.107   5.678  15.071 -0.0433 -0.4253 -0.3044
 5760TIP3    H238696   0.249   5.661  15.021 -0.2141 -0.9980 -0.6053
 5761TIP3   OH238697   1.440   3.499  13.092  0.5085 -0.2723 -0.1105
 5761TIP3    H138698   1.456   3.440  13.166 -2.1921 -1.0660 -0.0244
 5761TIP3    H238699   1.418   3.583  13.133  1.0900 -0.1226 -0.1025
 5762TIP3   OH238700   3.109   2.456  16.276 -0.0449  0.1264  0.2496
 5762TIP3    H138701   3.106   2.380  16.218 -3.4758 -0.4962  0.9733
 5762TIP3    H238702   3.166   2.429  16.348 -2.1688 -2.4335  1.1403
 5763TIP3   OH238703   1.278   2.784  14.331  0.3056 -0.0077 -0.0400
 5763TIP3    H138704   1.241   2.697  14.348 -0.6962  0.6978  1.5682
 5763TIP3    H238705   1.215   2.826  14.273  0.7732 -0.3044 -0.7892
 5764TIP3   OH238706   3.749   5.208   1.012 -0.5198 -0.3351 -0.6414
 5764TIP3    H138707   3.709   5.237   0.930 -1.3348 -1.4401 -0.6493
 5764TIP3    H238708   3.676   5.178   1.066  0.0316  0.1114  0.3992
 5765TIP3   OH238709   3.914   6.423   2.671  0.3921  0.8590 -0.0275
 5765TIP3    H138710   3.853   6.437   2.599 -0.0579  1.6082  0.4973
 5765TIP3    H238711   3.996   6.463   2.642  0.5371  0.1997 -0.5645
 5766TIP3   OH238712   3.271   5.571  13.782  0.1779 -0.5212  0.3925
 5766TIP3    H138713   3.209   5.499  13.793 -0.1772 -0.4372 -0.9665
 5766TIP3    H238714   3.228   5.647  13.822  0.4618 -0.9819  1.6331
 5767TIP3   OH238715   4.271   5.890  17.363 -0.0308 -0.2624  0.0411
 5767TIP3    H138716   4.363   5.905  17.343 -0.0955 -2.5523 -2.5941
 5767TIP3    H238717   4.226   5.968  17.331  0.9006  0.6067  0.7860
 5768TIP3   OH238718   5.980   6.584  14.607 -0.5669  0.1868  0.6441
 5768TIP3    H138719   6.004   6.503  14.650  0.2207  0.1579  0.1789
 5768TIP3    H238720   5.939   6.637  14.675  0.5765  0.1137  1.4086
 5769TIP3   OH238721   5.173   6.706  16.266  0.0941 -0.6349  0.4169
 5769TIP3    H138722   5.106   6.701  16.198  0.5144 -2.5478  0.0664
 5769TIP3    H238723   5.248   6.746  16.223 -0.4742  0.5852  0.5272
 5770TIP3   OH238724   6.248   5.256   4.084  0.0374 -0.1883  0.3583
 5770TIP3    H138725   6.297   5.212   4.154 -0.2745 -1.1749 -0.0231
 5770TIP3    H238726   6.196   5.187   4.044 -1.2803  0.7478  0.4044
 5771TIP3   OH238727   4.149   4.621   4.868 -0.2860 -0.1185  0.3379
 5771TIP3    H138728   4.170   4.687   4.801 -0.3289 -0.3802  0.0616
 5771TIP3    H238729   4.134   4.541   4.818 -2.4411  0.1542  0.4521
 5772TIP3   OH238730   3.511   5.830  15.163 -0.4469 -0.4887 -0.2303
 5772TIP3    H138731   3.599   5.864  15.174 -1.5983  2.6686  0.1058
 5772TIP3    H238732   3.489   5.849  15.072 -1.3783  0.3660  0.1560
 5773TIP3   OH238733   0.706   3.615  14.526 -0.2848  0.4143 -0.1612
 5773TIP3    H138734   0.719   3.589  14.434 -1.8474  1.0365 -0.5960
 5773TIP3    H238735   0.751   3.547  14.576 -0.4930 -0.6696 -1.3705
 5774TIP3   OH238736   1.897   6.167  15.628 -0.0552 -0.7521  0.1204
 5774TIP3    H138737   1.952   6.240  15.601 -1.4245  0.0370 -0.6602
 5774TIP3    H238738   1.840   6.204  15.695 -1.4587 -0.7908 -1.0075
 5775TIP3   OH238739   0.015   4.821  12.799 -0.5194 -0.3638  0.2456
 5775TIP3    H138740   0.042   4.730  12.795 -1.0088 -0.5556  1.1247
 5775TIP3    H238741  -0.051   4.824  12.868 -0.2156  0.7283  0.5165
 5776TIP3   OH238742   1.504   3.801   4.254 -0.2166 -0.4284 -0.0829
 5776TIP3    H138743   1.528   3.873   4.196 -1.0066  0.3018  0.4642
 5776TIP3    H238744   1.461   3.737   4.198 -1.6995  0.6268 -0.2004
 5777TIP3   OH238745   2.847   4.053  16.797  0.0879  0.3256 -0.3152
 5777TIP3    H138746   2.849   4.117  16.869 -0.4019  0.0174 -0.0226
 5777TIP3    H238747   2.934   4.013  16.798  0.8799  1.9372 -1.3754
 5778TIP3   OH238748   2.000   3.447  16.230 -0.3584 -0.1840  0.3158
 5778TIP3    H138749   2.081   3.422  16.186 -0.1786  0.5233  0.2406
 5778TIP3    H238750   1.939   3.467  16.159  0.0196  1.2378  0.3737
 5779TIP3   OH238751   3.100   0.730  17.154 -0.0733 -0.1829 -0.1852
 5779TIP3    H138752   3.187   0.746  17.117  0.4434  0.2367  1.1265
 5779TIP3    H238753   3.041   0.732  17.079  1.0454 -0.4885 -1.1054
 5780TIP3   OH238754   4.112   0.041   4.688  0.2688  0.2662  0.6069
 5780TIP3    H138755   4.198   0.076   4.663 -0.4722  0.3503 -2.0520
 5780TIP3    H238756   4.055   0.118   4.691 -0.1105 -0.0069  0.4827
 5781TIP3   OH238757   4.113   0.482  13.835 -0.5183  0.2423  0.4478
 5781TIP3    H138758   4.106   0.395  13.794  2.0765  0.7310 -1.2496
 5781TIP3    H238759   4.046   0.534  13.791 -1.5592 -0.6571  0.9097
 5782TIP3   OH238760   3.667   0.026   4.532 -0.2912  0.3667 -0.0743
 5782TIP3    H138761   3.606   0.019   4.458  0.2195  0.2541 -0.4847
 5782TIP3    H238762   3.703   0.114   4.525  1.2279 -0.2907 -1.1314
 5783TIP3   OH238763   1.080   2.855   6.742 -0.6533  0.0392  0.0362
 5783TIP3    H138764   1.127   2.932   6.774 -1.0784  0.3623 -0.1039
 5783TIP3    H238765   1.119   2.781   6.789 -0.8026  0.4290  0.7868
 5784TIP3   OH238766   0.858   5.292  14.307  0.3686 -0.5078  0.2378
 5784TIP3    H138767   0.915   5.220  14.278  0.1080  0.0789 -1.8915
 5784TIP3    H238768   0.777   5.279  14.257  0.4282  1.4071 -0.4182
 5785TIP3   OH238769   5.896   0.176  15.677  0.2993  0.2702 -0.1476
 5785TIP3    H138770   5.989   0.181  15.699  0.1035  1.3577  0.4951
 5785TIP3    H238771   5.870   0.266  15.662 -1.0013  0.1402  1.1508
 5786TIP3   OH238772   0.649   5.619   2.245 -0.5698 -0.1616  0.5037
 5786TIP3    H138773   0.645   5.670   2.164  0.5071 -1.2068 -0.2598
 5786TIP3    H238774   0.742   5.612   2.265 -0.7541 -0.8605  1.2025
 5787TIP3   OH238775   5.654   3.233  14.722 -0.4012 -0.1340  0.2162
 5787TIP3    H138776   5.710   3.245  14.799 -1.4983  0.2317  0.9743
 5787TIP3    H238777   5.715   3.238  14.648  0.6043  0.0016  1.0233
 5788TIP3   OH238778   3.175   4.533   4.967  0.3425  0.1267 -0.2185
 5788TIP3    H138779   3.163   4.546   5.061  1.0066 -1.3515  0.0942
 5788TIP3    H238780   3.254   4.480   4.959 -0.3660 -0.8099 -1.5348
 5789TIP3   OH238781   1.943   2.174   4.440  0.0042 -0.0481  0.5210
 5789TIP3    H138782   1.902   2.087   4.435 -1.5946  0.6492  0.7407
 5789TIP3    H238783   1.927   2.203   4.529  2.8966 -0.5760  1.2883
 5790TIP3   OH238784   4.962   4.575  12.536 -0.5389 -0.7251 -0.1735
 5790TIP3    H138785   4.964   4.662  12.576  3.6760 -0.3760 -0.7454
 5790TIP3    H238786   4.993   4.516  12.605  0.0723 -1.1876 -0.8263
 5791TIP3   OH238787   0.427   5.672  11.809  0.5254 -0.2875 -0.1304
 5791TIP3    H138788   0.462   5.761  11.812  0.8357 -0.3921 -0.5883
 5791TIP3    H238789   0.379   5.667  11.726  0.6620 -0.6032 -0.1912
 5792TIP3   OH238790   1.838   3.141   4.441  0.6132  0.1043  0.0082
 5792TIP3    H138791   1.869   3.096   4.363  0.8017 -1.0371  0.7202
 5792TIP3    H238792   1.800   3.072   4.496 -0.7507  1.0695  0.3447
 5793TIP3   OH238793   6.225   1.185   5.891  0.0038 -0.0970  0.1123
 5793TIP3    H138794   6.196   1.273   5.867  0.9550  0.2083  0.0570
 5793TIP3    H238795   6.144   1.134   5.893 -0.4304  0.5075 -0.9811
 5794TIP3   OH238796   2.623   0.445   5.254 -0.5909 -0.1125  0.1340
 5794TIP3    H138797   2.593   0.521   5.205 -0.8672  0.0736  0.5856
 5794TIP3    H238798   2.630   0.375   5.189 -0.3703  0.2859 -0.2769
 5795TIP3   OH238799   2.143   5.651  14.791 -0.2496  0.1659 -0.8611
 5795TIP3    H138800   2.090   5.729  14.777  0.1483  0.3979 -1.0812
 5795TIP3    H238801   2.080   5.579  14.790 -0.6487  0.5044 -0.4048
 5796TIP3   OH238802   3.294   1.911   3.702 -0.1416 -0.2228  0.8530
 5796TIP3    H138803   3.254   1.835   3.661 -0.0199  0.3542 -0.3954
 5796TIP3    H238804   3.285   1.981   3.636  1.0966  0.4431  1.3636
 5797TIP3   OH238805   5.189   2.261   5.226  0.0051  0.2228 -0.5820
 5797TIP3    H138806   5.245   2.335   5.250 -1.4922  1.9036 -1.9721
 5797TIP3    H238807   5.142   2.239   5.306  2.4799 -1.1837  0.6002
 5798TIP3   OH238808   3.717   1.479  10.926  0.1724  0.0625 -0.3831
 5798TIP3    H138809   3.787   1.527  10.883 -0.8307  0.7595 -1.3000
 5798TIP3    H238810   3.696   1.407  10.866  0.7014 -0.6850  0.3120
 5799TIP3   OH238811   4.964   2.413  16.149  0.1206 -0.5962  0.3643
 5799TIP3    H138812   4.955   2.505  16.174 -0.4060  0.1464 -2.2291
 5799TIP3    H238813   4.905   2.366  16.207 -0.8780  0.9262  0.6294
 5800TIP3   OH238814   5.478   1.167   2.403  0.2417 -0.5904 -0.4906
 5800TIP3    H138815   5.439   1.150   2.488  0.6694 -0.0206 -0.1802
 5800TIP3    H238816   5.440   1.100   2.346  1.1409 -1.9847  0.4865
 5801TIP3   OH238817   4.391   5.612  17.146 -0.0945  0.5045  0.1225
 5801TIP3    H138818   4.296   5.623  17.143 -0.2608 -0.6734  0.3156
 5801TIP3    H238819   4.408   5.538  17.086  0.3964 -0.9395  1.9459
 5802TIP3   OH238820   5.626   5.508   1.079  0.0903 -0.1196  0.0224
 5802TIP3    H138821   5.708   5.458   1.084 -0.7952 -1.7018 -0.6654
 5802TIP3    H238822   5.632   5.555   0.997  1.3076  1.6853  1.0683
 5803TIP3   OH238823   0.691   1.361   1.822  0.4519  0.2228 -0.2342
 5803TIP3    H138824   0.623   1.413   1.780  0.2245  0.6541  0.6446
 5803TIP3    H238825   0.653   1.334   1.906  0.0384 -2.4941 -1.1765
 5804TIP3   OH238826   5.501   6.104   6.021 -0.7750  0.2238 -0.2647
 5804TIP3    H138827   5.555   6.043   5.970  1.2031  0.8588  0.9524
 5804TIP3    H238828   5.560   6.177   6.041 -2.4803  1.5674  0.0726
 5805TIP3   OH238829   5.211   6.248   3.722  0.2721  0.5091  0.3184
 5805TIP3    H138830   5.268   6.323   3.706 -1.8717  1.9081 -1.3461
 5805TIP3    H238831   5.147   6.278   3.785 -0.1056 -0.2147  0.2973
 5806TIP3   OH238832   1.355   5.360   4.464  0.1141 -0.0415  0.7073
 5806TIP3    H138833   1.341   5.430   4.400  0.0786  1.0775  1.9109
 5806TIP3    H238834   1.422   5.394   4.523  1.2562 -1.6579  0.4217
 5807TIP3   OH238835   3.189   5.489   6.080  0.0138  0.1275  0.1846
 5807TIP3    H138836   3.219   5.455   6.164  0.2520 -0.2814 -0.0661
 5807TIP3    H238837   3.099   5.518   6.097  0.6040  1.6312  1.0165
 5808TIP3   OH238838   1.827   6.028   0.149 -0.1678 -0.2696 -0.7318
 5808TIP3    H138839   1.859   6.023   0.239  1.9320 -2.6719 -1.4796
 5808TIP3    H238840   1.820   6.121   0.131  1.1002  0.3031  1.3666
 5809TIP3   OH238841   0.806   5.774   6.014  0.4075 -0.1474 -0.8439
 5809TIP3    H138842   0.814   5.736   5.926  2.5507  0.2651 -0.8943
 5809TIP3    H238843   0.882   5.831   6.022  0.0146  0.1706  1.1347
 5810TIP3   OH238844   5.349   2.271  13.675 -0.3205  0.3128  1.0202
 5810TIP3    H138845   5.389   2.184  13.667 -0.3036  0.3178  1.0502
 5810TIP3    H238846   5.411   2.330  13.632 -0.4407  0.2797  0.8016
 5811TIP3   OH238847   0.999   3.158   1.227 -0.3934 -0.4991  0.3183
 5811TIP3    H138848   0.958   3.243   1.209 -0.2537 -0.6919 -0.9990
 5811TIP3    H238849   1.029   3.165   1.318 -1.7556  0.2844  0.7328
 5812TIP3   OH238850   6.083   2.307  15.885 -0.5102  0.1931 -0.1550
 5812TIP3    H138851   6.084   2.348  15.972 -1.8569 -1.2185  0.5846
 5812TIP3    H238852   6.048   2.374  15.827 -0.7397  0.7555  0.6158
 5813TIP3   OH238853   4.339   1.071  16.159 -0.3719  0.2273  0.0438
 5813TIP3    H138854   4.346   1.136  16.229  1.5047 -1.9814  2.0757
 5813TIP3    H238855   4.272   1.010  16.191 -1.0816  0.3480 -1.1686
 5814TIP3   OH238856   6.400   6.675   3.430  0.1031 -0.4293 -0.0010
 5814TIP3    H138857   6.397   6.652   3.523  0.0429 -0.6171 -0.0498
 5814TIP3    H238858   6.347   6.755   3.424  0.6974 -0.0016  0.2445
 5815TIP3   OH238859   1.008   2.942  12.613  0.5722  0.3443  0.1316
 5815TIP3    H138860   0.971   2.964  12.528  0.6936 -0.9696 -0.2801
 5815TIP3    H238861   1.098   2.975  12.610  0.8153 -0.3615 -0.5434
 5816TIP3   OH238862   4.169   2.874   5.458 -0.1288  0.2880  0.3701
 5816TIP3    H138863   4.247   2.909   5.500  0.3844 -0.3174 -0.0650
 5816TIP3    H238864   4.174   2.779   5.473 -0.7809  0.2476  0.3467
 5817TIP3   OH238865   4.853   0.087  14.556 -0.1180 -0.0525  0.1247
 5817TIP3    H138866   4.902   0.055  14.632  0.1991 -0.8392 -0.3937
 5817TIP3    H238867   4.918   0.137  14.506 -0.0158 -0.4889 -0.1932
 5818TIP3   OH238868   5.497   5.708   6.392 -0.3349  0.6442  0.5067
 5818TIP3    H138869   5.417   5.754   6.418 -0.5901  0.7230 -0.4152
 5818TIP3    H238870   5.523   5.749   6.309  0.3308  0.2109  0.4932
 5819TIP3   OH238871   0.347   3.284   5.435 -0.3303 -0.0879 -0.6352
 5819TIP3    H138872   0.259   3.290   5.473 -0.9026  0.2867 -1.9709
 5819TIP3    H238873   0.335   3.303   5.342  1.2025  0.1708 -0.8131
 5820TIP3   OH238874   0.737   4.761   4.163  0.6831  0.5736  0.5311
 5820TIP3    H138875   0.696   4.844   4.189 -0.2583  0.4905 -0.5996
 5820TIP3    H238876   0.718   4.701   4.234 -2.4058  0.1630 -0.5160
 5821TIP3   OH238877   6.109   6.259   4.830 -0.3990 -0.4765 -0.2038
 5821TIP3    H138878   6.161   6.315   4.772 -0.5045 -0.5079 -0.3271
 5821TIP3    H238879   6.162   6.252   4.910 -2.1246  3.2133  1.5202
 5822TIP3   OH238880   3.270   0.331  12.671  0.2348  0.1601  0.1858
 5822TIP3    H138881   3.324   0.255  12.694 -1.3245 -1.0167  0.0871
 5822TIP3    H238882   3.294   0.398  12.735  0.3997 -1.0039  1.3757
 5823TIP3   OH238883   4.534   6.477  11.125  0.4590 -0.1698 -0.2438
 5823TIP3    H138884   4.578   6.554  11.161  0.0621 -0.1849  0.2815
 5823TIP3    H238885   4.604   6.412  11.115  0.5369 -0.2585  0.7675
 5824TIP3   OH238886   5.069   5.923   5.322 -0.4010 -0.2641 -0.1889
 5824TIP3    H138887   5.003   5.953   5.259 -1.2946 -0.2678  0.7164
 5824TIP3    H238888   5.141   5.892   5.268 -0.8152  0.4628 -1.2004
 5825TIP3   OH238889   4.231   3.862   0.911  0.1191  0.5734 -0.0140
 5825TIP3    H138890   4.200   3.773   0.892 -2.8184  1.2378  1.1463
 5825TIP3    H238891   4.241   3.903   0.825 -1.8586  0.1170 -0.5119
 5826TIP3   OH238892   0.373   1.855   1.072  0.4596 -0.1241  0.1518
 5826TIP3    H138893   0.351   1.898   1.155 -0.3026  1.2946 -0.7253
 5826TIP3    H238894   0.431   1.917   1.029  0.4955 -0.6413 -0.5493
 5827TIP3   OH238895   1.906   2.945   1.723  0.1451  0.2719  0.2615
 5827TIP3    H138896   1.855   3.000   1.782  3.7669  3.3506  0.9395
 5827TIP3    H238897   1.969   2.901   1.780  0.5095 -0.6826 -0.8406
 5828TIP3   OH238898   1.392   4.006   5.530  0.5875  0.6549 -0.2586
 5828TIP3    H138899   1.462   3.941   5.523 -0.2291 -0.6770  2.4268
 5828TIP3    H238900   1.343   3.997   5.448 -1.0434 -4.1957  0.8662
 5829TIP3   OH238901   4.499   2.682   3.745  0.3580 -0.2815 -0.5101
 5829TIP3    H138902   4.437   2.663   3.815  1.2660  1.0383  0.7171
 5829TIP3    H238903   4.474   2.623   3.674  0.0587 -2.4997  1.2903
 5830TIP3   OH238904   6.500   6.667  11.570 -0.5431 -0.5289  0.1026
 5830TIP3    H138905   6.486   6.734  11.503 -0.4355 -0.2727  0.3336
 5830TIP3    H238906   6.510   6.586  11.521 -0.9090 -0.4106 -0.1665
 5831TIP3   OH238907   1.595   1.732   5.114  1.0745  0.4352  0.2075
 5831TIP3    H138908   1.564   1.650   5.151  1.8154 -0.4430 -1.0445
 5831TIP3    H238909   1.686   1.715   5.091  1.0319  1.3554 -0.7451
 5832TIP3   OH238910   5.541   6.482   0.873 -1.2854 -0.1692  0.3545
 5832TIP3    H138911   5.546   6.409   0.811  0.4529 -0.2853  0.5824
 5832TIP3    H238912   5.498   6.552   0.824 -0.9809 -0.6338 -0.5998
 5833TIP3   OH238913   1.842   4.936   1.312  0.7828 -0.8654  0.2486
 5833TIP3    H138914   1.876   4.996   1.246 -1.0444  1.6165  1.4304
 5833TIP3    H238915   1.803   4.865   1.261  1.1343 -0.0130 -1.2668
 5834TIP3   OH238916   2.245   0.006   3.267 -0.2343  0.0131  0.5883
 5834TIP3    H138917   2.269   0.074   3.204  0.4451 -0.6765  0.0912
 5834TIP3    H238918   2.318   0.003   3.329 -0.7171  0.4114  1.1904
 5835TIP3   OH238919   5.585   4.729  14.713  0.1291  0.1159  0.0585
 5835TIP3    H138920   5.569   4.716  14.806 -1.4212 -1.0665 -0.3406
 5835TIP3    H238921   5.590   4.641  14.677  1.4310  0.5509 -0.8819
 5836TIP3   OH238922   2.784   6.570  15.238  0.3627  0.1086  0.2459
 5836TIP3    H138923   2.851   6.504  15.221  2.0181  0.7103  3.4893
 5836TIP3    H238924   2.707   6.520  15.265  0.7538 -0.5281  0.2059
 5837TIP3   OH238925   1.329   3.635  14.831 -0.2285  0.2921 -0.2101
 5837TIP3    H138926   1.335   3.697  14.904  0.9142  0.5925 -0.5348
 5837TIP3    H238927   1.235   3.625  14.816 -0.4668  0.6812  0.9107
 5838TIP3   OH238928   1.233   6.165   0.455  0.0932  0.2098  0.1824
 5838TIP3    H138929   1.184   6.143   0.534 -1.4143  2.4098 -0.0356
 5838TIP3    H238930   1.324   6.170   0.483 -0.1059 -1.3401  1.2141
 5839TIP3   OH238931   2.861   3.989  17.090 -0.3989 -0.4626  0.4368
 5839TIP3    H138932   2.930   4.020  17.032 -1.1228 -1.7148 -1.1678
 5839TIP3    H238933   2.817   4.069  17.119  1.2512  0.3059  0.9459
 5840TIP3   OH238934   5.448   2.937  12.004 -0.2611 -0.0502 -0.5569
 5840TIP3    H138935   5.405   3.015  11.969  2.3794  1.2343 -1.2123
 5840TIP3    H238936   5.381   2.895  12.057 -2.1085  2.1054 -0.9973
 5841TIP3   OH238937   6.409   2.950   3.806 -0.0785  0.0611  0.0428
 5841TIP3    H138938   6.491   2.998   3.805 -0.5408  0.9480  1.3037
 5841TIP3    H238939   6.368   2.974   3.890 -0.1532 -2.8585  0.9491
 5842TIP3   OH238940   1.016   2.760   5.977  0.0873  0.2918  0.1014
 5842TIP3    H138941   1.003   2.778   5.884  2.1590 -1.0154 -0.5169
 5842TIP3    H238942   0.939   2.710   6.003 -0.0663 -0.1966 -1.2012
 5843TIP3   OH238943   3.955   4.280  16.414  0.2653 -0.4674  0.2754
 5843TIP3    H138944   4.049   4.291  16.428  0.2244  0.0200  0.1958
 5843TIP3    H238945   3.921   4.247  16.497  0.5590 -0.9998  0.1898
 5844TIP3   OH238946   0.961   1.603   0.310 -0.1487  0.4868  0.4098
 5844TIP3    H138947   1.011   1.663   0.364 -1.5195  1.3414  0.7819
 5844TIP3    H238948   0.936   1.532   0.369  1.2472 -0.3554  0.0331
 5845TIP3   OH238949   1.847   0.810   6.119  0.1388 -0.0699 -0.2101
 5845TIP3    H138950   1.837   0.783   6.210  0.6982  2.2457  0.6236
 5845TIP3    H238951   1.935   0.780   6.094  1.3890  2.1262  1.2070
 5846TIP3   OH238952   2.260   1.421  16.224  0.0611  0.0857 -0.5487
 5846TIP3    H138953   2.190   1.449  16.164  0.0151 -2.4922 -1.8189
 5846TIP3    H238954   2.214   1.378  16.296  0.2493 -2.3353 -1.7766
 5847TIP3   OH238955   4.404   0.673  11.409  0.4277  0.1338  0.4866
 5847TIP3    H138956   4.375   0.652  11.320  0.7135  0.8518  0.2124
 5847TIP3    H238957   4.410   0.769  11.410  0.6105  0.1206  1.2233
 5848TIP3   OH238958   5.456   4.451   3.980 -0.0027 -0.0157 -0.6677
 5848TIP3    H138959   5.517   4.412   4.043 -0.5153  0.8528  0.4181
 5848TIP3    H238960   5.512   4.483   3.909  0.6090 -0.8771 -0.5824
 5849TIP3   OH238961   3.420   5.828   1.400 -0.0430 -0.0387  0.6131
 5849TIP3    H138962   3.371   5.904   1.431 -0.4900 -0.9541  2.2641
 5849TIP3    H238963   3.384   5.754   1.449  2.0319 -0.9547  0.8784
 5850TIP3   OH238964   6.620   3.812  15.350  0.1175  0.4778 -0.2741
 5850TIP3    H138965   6.543   3.866  15.332 -0.1162 -0.1910 -1.3509
 5850TIP3    H238966   6.585   3.724  15.362  0.4297  0.6074  2.0237
 5851TIP3   OH238967   0.299   2.125   2.353  0.2249  0.5212  0.4039
 5851TIP3    H138968   0.208   2.110   2.329  0.1283  0.0166  1.0702
 5851TIP3    H238969   0.325   2.202   2.303 -0.9616  1.4769  1.2288
 5852TIP3   OH238970   5.084   3.029  11.958  0.0872 -0.3942  0.0641
 5852TIP3    H138971   5.093   2.935  11.973 -0.9040 -0.5510 -0.2425
 5852TIP3    H238972   5.171   3.058  11.931  0.3763 -1.2370  0.0778
 5853TIP3   OH238973   1.798   1.435   6.087 -0.3138 -0.1514 -0.2821
 5853TIP3    H138974   1.799   1.497   6.159  0.8885  0.1068 -0.4911
 5853TIP3    H238975   1.809   1.349   6.128  1.9800  0.1161 -0.2110
 5854TIP3   OH238976   2.769   5.669   5.291 -0.3771 -0.0530 -0.6590
 5854TIP3    H138977   2.816   5.745   5.255 -0.2055  0.1376 -0.0540
 5854TIP3    H238978   2.809   5.593   5.249  0.3406  0.1213 -0.2911
 5855TIP3   OH238979   3.638   5.061  17.024  0.2308 -0.2488 -0.2930
 5855TIP3    H138980   3.724   5.103  17.014 -0.0825  0.6348  0.5832
 5855TIP3    H238981   3.632   5.042  17.117 -0.2454 -0.9492 -0.4603
 5856TIP3   OH238982   6.244   3.737  11.679  0.2899 -0.5293 -0.1836
 5856TIP3    H138983   6.180   3.743  11.749 -0.1242  1.1576 -0.6572
 5856TIP3    H238984   6.308   3.806  11.698  0.3006 -0.2001 -1.3069
 5857TIP3   OH238985   3.114   5.025   3.290  0.3646  0.1314  0.1229
 5857TIP3    H138986   3.051   5.079   3.337 -0.2815 -0.4418 -0.0623
 5857TIP3    H238987   3.066   4.944   3.270  1.4912 -0.7689  0.9298
 5858TIP3   OH238988   2.549   3.084   0.582  0.1993 -0.4895  0.0585
 5858TIP3    H138989   2.614   3.078   0.512 -0.8780  0.8334 -1.0939
 5858TIP3    H238990   2.572   3.164   0.629  0.8039 -1.2722  1.1661
 5859TIP3   OH238991   0.008   1.151   5.122 -0.6020  0.1002 -0.1329
 5859TIP3    H138992   0.012   1.110   5.035  1.6957  2.1235 -1.0892
 5859TIP3    H238993   0.074   1.104   5.173 -0.5980  0.1720 -0.0735
 5860TIP3   OH238994   5.725   4.806   4.073  0.0080  0.0017 -0.1442
 5860TIP3    H138995   5.683   4.802   3.988 -0.1243  0.2589 -0.0922
 5860TIP3    H238996   5.726   4.899   4.095  0.4627 -0.0149 -0.0754
 5861TIP3   OH238997   2.359   2.244   2.960  0.1194  0.2680 -0.3259
 5861TIP3    H138998   2.300   2.242   2.885 -0.3130 -2.3223 -0.0356
 5861TIP3    H238999   2.440   2.207   2.927  0.2566  0.0644  0.2339
 5862TIP3   OH239000   2.865   2.496   5.991 -0.5490 -0.0568  0.1451
 5862TIP3    H139001   2.934   2.502   6.057 -0.0310 -1.4085 -0.2430
 5862TIP3    H239002   2.785   2.484   6.042 -0.2514 -0.3869  0.5427
 5863TIP3   OH239003   4.030   2.006  13.517  0.0971  0.3826 -0.4778
 5863TIP3    H139004   4.065   2.041  13.600 -0.0157  0.1336 -0.3245
 5863TIP3    H239005   4.051   1.913  13.520 -1.0667  0.1191 -0.1319
 5864TIP3   OH239006   4.157   0.600   0.526 -0.3646 -0.1851  0.9948
 5864TIP3    H139007   4.129   0.632   0.612 -1.4679  0.6549  0.3470
 5864TIP3    H239008   4.091   0.632   0.465  1.5789  1.2192 -0.5296
 5865TIP3   OH239009   5.240   0.914   3.492 -0.4859 -0.0243 -0.0663
 5865TIP3    H139010   5.314   0.935   3.435  0.7514 -1.7381  0.8136
 5865TIP3    H239011   5.235   0.988   3.552  0.6746  0.0334 -0.0073
 5866TIP3   OH239012   0.914   6.528   0.320  0.4431  0.0964  0.0131
 5866TIP3    H139013   0.908   6.451   0.263  2.4878 -0.2782  0.2131
 5866TIP3    H239014   0.951   6.596   0.263  1.5949 -0.0054  0.6088
 5867TIP3   OH239015   6.673   6.235  16.811 -0.3687  0.1269 -0.4718
 5867TIP3    H139016   6.673   6.223  16.906 -1.0834  0.3720 -0.4401
 5867TIP3    H239017   6.757   6.199  16.783  1.0645  2.4140  0.5642
 5868TIP3   OH239018   1.737   6.536  12.471 -0.0326 -0.3118 -0.6219
 5868TIP3    H139019   1.738   6.630  12.457  2.2371 -0.0209  0.8969
 5868TIP3    H239020   1.794   6.501  12.402  1.1018 -0.2529  0.2522
 5869TIP3   OH239021   4.525   1.321  12.201 -0.7817  0.4312 -0.1925
 5869TIP3    H139022   4.511   1.416  12.192  0.3688  0.5141 -1.3670
 5869TIP3    H239023   4.563   1.295  12.117 -0.4682 -0.9678  0.3702
 5870TIP3   OH239024   1.569   2.490  11.807  0.5984  0.4090 -0.1480
 5870TIP3    H139025   1.498   2.555  11.809  1.2810  1.2020 -0.6457
 5870TIP3    H239026   1.527   2.410  11.776  0.1520  1.2356 -1.8618
 5871TIP3   OH239027   0.415   1.634   3.225 -0.2847 -0.1973  0.0380
 5871TIP3    H139028   0.438   1.709   3.279 -1.4674  1.2492 -1.3917
 5871TIP3    H239029   0.386   1.671   3.142 -1.9548 -2.1547 -0.3464
 5872TIP3   OH239030   6.627   0.784  13.389  0.2328  0.4388 -0.3106
 5872TIP3    H139031   6.657   0.746  13.307 -1.0890  0.6275 -0.9007
 5872TIP3    H239032   6.702   0.777  13.448  0.4292 -1.9877 -0.7614
 5873TIP3   OH239033   3.104   3.532   1.765  0.1849  0.3963 -0.2225
 5873TIP3    H139034   3.177   3.470   1.771 -1.2025 -1.4992 -1.7168
 5873TIP3    H239035   3.136   3.611   1.809  2.1726 -1.2235  1.4435
 5874TIP3   OH239036   0.440   5.531  12.454  0.6693 -0.1149 -0.4674
 5874TIP3    H139037   0.462   5.439  12.437  1.5489  0.1555 -0.8286
 5874TIP3    H239038   0.523   5.578  12.446  0.1502  0.7814 -0.7692
 5875TIP3   OH239039   0.501   3.082  12.171 -0.3436  0.3911  0.2793
 5875TIP3    H139040   0.452   3.150  12.124 -0.9590  0.4188  0.9466
 5875TIP3    H239041   0.434   3.017  12.194  0.0167  0.2033  0.8015
 5876TIP3   OH239042   4.654   2.305  12.215  0.5839 -0.8850  0.6155
 5876TIP3    H139043   4.670   2.391  12.254  0.3122 -0.9142  0.7915
 5876TIP3    H239044   4.676   2.317  12.123  0.0051 -0.4754  0.5272
 5877TIP3   OH239045   1.788   3.323  15.468  0.6896 -0.7425 -0.0244
 5877TIP3    H139046   1.734   3.399  15.493 -0.3789 -0.9233 -1.5800
 5877TIP3    H239047   1.782   3.263  15.542 -0.2433 -0.2053  0.3555
 5878TIP3   OH239048   1.243   6.334   2.004 -0.0320 -0.2848  0.0477
 5878TIP3    H139049   1.176   6.279   2.044  0.8635 -1.0802  0.5122
 5878TIP3    H239050   1.241   6.310   1.911  1.2361 -2.1489  0.4341
 5879TIP3   OH239051   3.461   5.990  16.437 -0.0098  0.1064 -0.8337
 5879TIP3    H139052   3.489   6.042  16.513 -2.2100 -0.0534  0.1629
 5879TIP3    H239053   3.491   6.040  16.361 -0.8062  2.1356  0.1078
 5880TIP3   OH239054   2.480   2.271   1.563  0.0896 -0.3607 -0.5477
 5880TIP3    H139055   2.460   2.365   1.562 -2.5786 -0.5696  4.3996
 5880TIP3    H239056   2.561   2.265   1.614  0.8084 -0.7673 -1.7028
 5881TIP3   OH239057   1.484   2.585   5.681 -0.1695  0.8100 -0.0755
 5881TIP3    H139058   1.512   2.558   5.769 -0.7945 -0.1630 -0.1732
 5881TIP3    H239059   1.442   2.508   5.644  2.6823  0.1771 -2.3837
 5882TIP3   OH239060   6.173   1.788   4.508 -0.4366 -0.4615  0.4427
 5882TIP3    H139061   6.165   1.745   4.422 -1.8027 -0.5534  0.5938
 5882TIP3    H239062   6.135   1.725   4.569 -0.6786  0.1519  0.9349
 5883TIP3   OH239063   2.385   1.909  13.181 -0.1175  0.0897 -0.0694
 5883TIP3    H139064   2.437   1.865  13.115  1.9615  1.4005  0.6071
 5883TIP3    H239065   2.300   1.923  13.140  0.8203  0.0556 -2.1265
 5884TIP3   OH239066   3.528   2.238  14.583  0.1553  0.0203  0.2345
 5884TIP3    H139067   3.538   2.229  14.488 -0.4050 -0.2798  0.2012
 5884TIP3    H239068   3.517   2.148  14.615 -1.2976  0.2241  0.3876
 5885TIP3   OH239069   4.739   6.167  11.898  0.3735  0.4085  0.6552
 5885TIP3    H139070   4.738   6.164  11.994 -2.5240  0.8243  0.7032
 5885TIP3    H239071   4.682   6.240  11.875  0.0100 -0.4677 -1.4137
 5886TIP3   OH239072   6.005   5.923   2.905  0.0592 -0.1675  0.5595
 5886TIP3    H139073   6.013   5.998   2.845 -1.0441  0.0029  0.6115
 5886TIP3    H239074   6.077   5.935   2.968  1.1933 -0.3060 -0.6556
 5887TIP3   OH239075   1.712   0.210   6.440 -0.1024 -0.2265 -0.4828
 5887TIP3    H139076   1.779   0.150   6.407 -0.4761 -0.6704 -0.4432
 5887TIP3    H239077   1.652   0.155   6.491  0.4787  0.4512  0.9811
 5888TIP3   OH239078   2.575   3.984  14.563  0.3894  0.2326  0.0586
 5888TIP3    H139079   2.608   3.995  14.652  1.7039 -1.1960 -0.2028
 5888TIP3    H239080   2.547   3.892  14.559  0.3670  0.2752 -1.0137
 5889TIP3   OH239081   5.406   2.975   1.548  0.2264  0.0449 -0.1089
 5889TIP3    H139082   5.399   2.880   1.558 -3.1348  0.2576  0.5200
 5889TIP3    H239083   5.339   2.998   1.484  0.2430  2.1177  0.5528
 5890TIP3   OH239084   3.788   0.491   2.559 -0.9209 -0.3705 -0.0331
 5890TIP3    H139085   3.808   0.585   2.560 -1.2045 -0.2771 -1.2063
 5890TIP3    H239086   3.703   0.485   2.514 -0.8811 -1.1949 -0.0177
 5891TIP3   OH239087   2.901   3.692   3.954  0.2132 -0.5886 -0.2624
 5891TIP3    H139088   2.991   3.664   3.969  0.5589  0.0957 -0.9679
 5891TIP3    H239089   2.860   3.688   4.041  0.6953 -1.6312 -0.0586
 5892TIP3   OH239090   2.777   0.443  13.674  0.4721 -0.3389 -0.1382
 5892TIP3    H139091   2.862   0.455  13.716  0.9409 -2.5300 -0.2896
 5892TIP3    H239092   2.721   0.409  13.743  0.9428 -2.9020 -0.9028
 5893TIP3   OH239093   6.220   4.899   3.342  0.3536 -0.3813  0.3999
 5893TIP3    H139094   6.169   4.818   3.352  1.1406 -1.0307 -0.6925
 5893TIP3    H239095   6.239   4.904   3.249  1.1062  0.5884  0.5894
 5894TIP3   OH239096   5.816   5.664   3.512  0.4334  0.0078 -0.5732
 5894TIP3    H139097   5.822   5.705   3.426  1.0209 -0.5486 -0.8079
 5894TIP3    H239098   5.816   5.570   3.494  0.1631 -0.1111  0.0127
 5895TIP3   OH239099   2.424   6.540   5.849  0.4878  0.3354 -0.2691
 5895TIP3    H139100   2.510   6.579   5.834  1.1045 -0.6677  0.5522
 5895TIP3    H239101   2.442   6.452   5.882 -0.8559  0.0567 -0.1981
 5896TIP3   OH239102   4.641   6.295   1.764  0.2515  0.1050 -0.3938
 5896TIP3    H139103   4.704   6.228   1.786  1.2277  1.2149  0.3208
 5896TIP3    H239104   4.566   6.248   1.727  0.1217 -1.5098  1.8061
 5897TIP3   OH239105   2.532   3.617   0.681 -0.1416  0.1109  0.4057
 5897TIP3    H139106   2.455   3.650   0.636  0.9152 -1.7497 -3.1209
 5897TIP3    H239107   2.592   3.692   0.686 -0.8985  0.7392  0.1533
 5898TIP3   OH239108   4.534   5.557  14.675  0.0561 -0.7086  0.3031
 5898TIP3    H139109   4.499   5.551  14.587  0.0358 -1.0764  0.3342
 5898TIP3    H239110   4.612   5.501  14.674  0.9353  0.4727  0.0994
 5899TIP3   OH239111   2.808   3.498   4.158  0.0625 -0.5815  0.5644
 5899TIP3    H139112   2.902   3.511   4.147 -0.0580  0.2261  0.4251
 5899TIP3    H239113   2.789   3.417   4.111  0.2100  0.7512 -1.9238
 5900TIP3   OH239114   1.078   3.496   0.673 -0.6300  0.1497 -0.2815
 5900TIP3    H139115   1.132   3.482   0.595 -1.8737  1.2179 -1.3983
 5900TIP3    H239116   1.025   3.417   0.680  2.0125 -1.5622  1.6966
 5901TIP3   OH239117   0.199   1.783  12.352 -0.2880 -0.0336 -0.0409
 5901TIP3    H139118   0.126   1.831  12.311 -1.2202 -0.1954  1.3665
 5901TIP3    H239119   0.157   1.709  12.396  0.4711  0.8322  2.2980
 5902TIP3   OH239120   1.816   3.042   2.156 -0.0654  0.3560  0.0858
 5902TIP3    H139121   1.885   3.030   2.090  1.3210  1.8424  1.2048
 5902TIP3    H239122   1.847   2.992   2.232 -1.4088 -0.9171 -0.1468
 5903TIP3   OH239123   2.418   5.986  15.974 -0.6326 -0.1260 -0.0415
 5903TIP3    H139124   2.440   6.052  16.039 -0.7950 -0.1203  0.0098
 5903TIP3    H239125   2.415   6.033  15.891 -0.4278 -0.1328 -0.0532
 5904TIP3   OH239126   5.801   3.793   1.760 -0.6859 -0.2665 -0.0391
 5904TIP3    H139127   5.791   3.710   1.713  1.3075 -1.0113  0.7224
 5904TIP3    H239128   5.849   3.770   1.840 -0.2072  1.5885  0.2630
 5905TIP3   OH239129   1.908   3.602  11.450  0.1472  0.5181 -0.0322
 5905TIP3    H139130   1.847   3.654  11.397 -0.9643 -0.3337  0.3643
 5905TIP3    H239131   1.929   3.527  11.396  0.6333  0.6651 -0.0525
 5906TIP3   OH239132   6.217   2.338   5.664 -0.1743 -0.6040  0.2907
 5906TIP3    H139133   6.134   2.338   5.710 -0.4816 -0.7866 -0.2475
 5906TIP3    H239134   6.283   2.356   5.731 -0.8255  1.7187  0.3934
 5907TIP3   OH239135   5.159   5.796   1.459  0.1090  0.5384 -0.6437
 5907TIP3    H139136   5.245   5.801   1.418  0.3623  0.2576 -0.1589
 5907TIP3    H239137   5.109   5.735   1.404  0.8295 -0.7834  0.1260
 5908TIP3   OH239138   6.329   4.610  16.708 -0.3867 -0.2139 -0.0121
 5908TIP3    H139139   6.362   4.520  16.715  1.1941  0.0642 -2.5884
 5908TIP3    H239140   6.269   4.619  16.782 -0.3111 -3.2511  0.5658
 5909TIP3   OH239141   1.727   5.006  16.061 -0.4912 -0.4277  0.0618
 5909TIP3    H139142   1.708   5.089  16.018  0.2887 -0.5812 -0.6144
 5909TIP3    H239143   1.812   4.979  16.025 -0.7025 -1.4855  0.3097
 5910TIP3   OH239144   4.514   4.150   4.198  0.6554 -0.3103 -0.1109
 5910TIP3    H139145   4.488   4.143   4.290  3.1474 -0.7897  0.6312
 5910TIP3    H239146   4.497   4.063   4.162  2.5989 -1.1467  0.8118
 5911TIP3   OH239147   4.167   2.440   0.866 -0.5862  0.3218 -0.9306
 5911TIP3    H139148   4.117   2.362   0.893 -0.7094  0.2378 -1.3985
 5911TIP3    H239149   4.115   2.514   0.898 -0.0756  0.2054  0.2072
 5912TIP3   OH239150   5.420   3.275  11.285  0.6956  0.3560  0.7154
 5912TIP3    H139151   5.394   3.317  11.203  0.8338  0.2314  0.6066
 5912TIP3    H239152   5.499   3.322  11.313  0.5329  0.5300  0.8820
 5913TIP3   OH239153   3.025   6.476  15.620  0.1616 -0.7675 -0.0949
 5913TIP3    H139154   3.105   6.466  15.673  0.9463 -1.7898 -1.4290
 5913TIP3    H239155   3.055   6.467  15.530 -1.0979  1.3150 -0.7786
 5914TIP3   OH239156   2.873   3.331  14.648  0.3670  0.5237  0.7852
 5914TIP3    H139157   2.840   3.242  14.649 -0.2675  0.6347 -2.3885
 5914TIP3    H239158   2.949   3.329  14.707 -1.3218 -1.3155  3.0859
 5915TIP3   OH239159   3.875   4.367   3.869 -0.1702  0.1888  0.3731
 5915TIP3    H139160   3.925   4.448   3.879  0.0643  0.1230 -0.2047
 5915TIP3    H239161   3.935   4.307   3.825 -0.2005 -0.4412  1.1687
 5916TIP3   OH239162   2.588   0.004   5.226 -0.1059  0.3147 -0.1037
 5916TIP3    H139163   2.574   0.086   5.273 -0.3690  0.8836 -1.1310
 5916TIP3    H239164   2.613  -0.059   5.293 -0.3131  1.1350  0.7595
 5917TIP3   OH239165   6.607   6.308  13.369  0.0795 -0.1723  0.0119
 5917TIP3    H139166   6.604   6.344  13.458 -0.0956 -0.6080  0.1859
 5917TIP3    H239167   6.635   6.381  13.314  0.2246  0.0898  0.4320
 5918TIP3   OH239168   0.915   3.320   5.014 -0.0079 -0.1570  0.1711
 5918TIP3    H139169   0.954   3.394   5.061  1.9793  0.0347 -1.6284
 5918TIP3    H239170   0.856   3.361   4.950  0.3220 -0.1548 -0.1393
 5919TIP3   OH239171   1.065   2.313  16.889 -0.3151  0.2704 -0.1618
 5919TIP3    H139172   1.037   2.396  16.928 -0.1446  0.5804 -0.6941
 5919TIP3    H239173   1.108   2.266  16.961 -2.7040 -0.5017  0.9028
 5920TIP3   OH239174   1.887   4.007   0.104 -0.2295  0.0227  0.1036
 5920TIP3    H139175   1.911   3.918   0.079 -0.0373 -0.0458  0.5233
 5920TIP3    H239176   1.968   4.057   0.093  0.3801 -0.3602  2.2659
 5921TIP3   OH239177   6.662   1.877   0.837  0.7431  0.5447  0.3353
 5921TIP3    H139178   6.618   1.924   0.909 -0.7546  0.0143 -0.1945
 5921TIP3    H239179   6.601   1.884   0.764  1.6294 -0.1160 -0.4774
 5922TIP3   OH239180   6.525   3.785  17.231  0.2312 -0.3682 -0.3929
 5922TIP3    H139181   6.572   3.833  17.164 -1.6535  0.4632 -1.2090
 5922TIP3    H239182   6.517   3.847  17.304  1.3704 -0.9136  0.2248
 5923TIP3   OH239183   6.209   5.490  14.473  0.0255 -0.5707  0.0504
 5923TIP3    H139184   6.265   5.485  14.396 -0.5362  0.3163 -0.4460
 5923TIP3    H239185   6.157   5.410  14.470 -0.1076 -0.4723 -0.6074
 5924TIP3   OH239186   0.298   4.836   3.324  0.2204 -0.1657 -0.5470
 5924TIP3    H139187   0.352   4.759   3.343  0.6851  0.5471  1.2235
 5924TIP3    H239188   0.208   4.806   3.338  0.3766 -0.4858 -0.2054
 5925TIP3   OH239189   2.738   4.259  13.587  0.2179  0.1958 -0.7161
 5925TIP3    H139190   2.759   4.197  13.657 -1.0901 -0.6658 -1.0558
 5925TIP3    H239191   2.766   4.344  13.621  0.8103 -0.3897  0.3078
 5926TIP3   OH239192   4.116   6.597   6.026 -0.6066 -0.1767  0.2791
 5926TIP3    H139193   4.109   6.502   6.020  0.2143 -0.2304 -0.0138
 5926TIP3    H239194   4.186   6.619   5.965 -1.7840  0.7774 -0.7745
 5927TIP3   OH239195   2.496   5.824   2.903 -0.0639 -0.7733  0.0423
 5927TIP3    H139196   2.554   5.883   2.952  0.1621 -1.5599  0.7592
 5927TIP3    H239197   2.410   5.866   2.906  0.1989 -0.2403  0.1156
 5928TIP3   OH239198   2.995   5.286   4.689 -0.0514  0.4814 -0.1503
 5928TIP3    H139199   3.060   5.243   4.743  0.4204 -0.1936 -1.2205
 5928TIP3    H239200   2.913   5.276   4.737  0.5359  0.9254  0.9814
 5929TIP3   OH239201   6.349   1.056   2.381 -0.4233  0.2643 -0.7359
 5929TIP3    H139202   6.433   1.049   2.428 -0.0959 -0.1694 -1.3785
 5929TIP3    H239203   6.322   0.966   2.366 -1.7906  0.3675  0.8119
 5930TIP3   OH239204   1.343   3.103   2.409  0.1750  0.1319 -0.3890
 5930TIP3    H139205   1.321   3.187   2.449 -2.5397  0.7999 -2.8930
 5930TIP3    H239206   1.420   3.121   2.355 -0.8407  1.3167 -1.5142
 5931TIP3   OH239207   4.539   3.860  13.083  0.5497  0.7686  0.3549
 5931TIP3    H139208   4.495   3.912  13.016 -1.8893  1.2478  2.1759
 5931TIP3    H239209   4.511   3.899  13.166  1.7796 -1.0614  1.7137
 5932TIP3   OH239210   5.088   0.225  16.898 -0.3557  0.6109 -0.5393
 5932TIP3    H139211   5.152   0.294  16.912 -0.2458  0.4689 -0.3488
 5932TIP3    H239212   5.028   0.232  16.972  0.6255 -0.5882  0.4188
 5933TIP3   OH239213   4.724   0.025   4.005 -0.2571 -0.9663  0.4362
 5933TIP3    H139214   4.683   0.097   4.054  0.6594 -0.1063 -0.0353
 5933TIP3    H239215   4.774   0.068   3.936  0.8760 -2.0229  0.5676
 5934TIP3   OH239216   5.820   1.721   2.618 -0.3367 -0.2042  0.3747
 5934TIP3    H139217   5.762   1.667   2.671  0.0880  0.0923  1.1503
 5934TIP3    H239218   5.833   1.670   2.537 -1.1935 -0.5316  0.4392
 5935TIP3   OH239219   5.130   5.618   6.486  0.4866  0.6125  0.0797
 5935TIP3    H139220   5.121   5.712   6.500  1.7883  0.7791 -0.0837
 5935TIP3    H239221   5.151   5.610   6.393  1.8380  0.2798  0.4051
 5936TIP3   OH239222   3.827   2.842   0.614 -0.0470  0.3812 -0.2639
 5936TIP3    H139223   3.791   2.753   0.619 -0.1240  0.2843 -2.0200
 5936TIP3    H239224   3.862   2.858   0.701  2.3090 -2.3787 -0.5507
 5937TIP3   OH239225   0.313   5.418   6.138  0.0541  0.5343 -0.2550
 5937TIP3    H139226   0.228   5.452   6.165 -0.1329  1.3152 -1.6925
 5937TIP3    H239227   0.376   5.458   6.199 -0.6027 -0.1543  0.8994
 5938TIP3   OH239228   4.978   1.801  14.511  0.1914  0.0968 -1.0218
 5938TIP3    H139229   4.896   1.820  14.556 -0.5589 -0.3559 -2.1685
 5938TIP3    H239230   5.034   1.876  14.532 -1.3102  1.6029 -2.1445
 5939TIP3   OH239231   3.034   2.699   5.188 -0.3954 -0.3979  0.0390
 5939TIP3    H139232   3.001   2.732   5.272 -1.5923  1.6838 -1.1375
 5939TIP3    H239233   3.003   2.764   5.125  2.1139 -0.8634 -1.7778
 5940TIP3   OH239234   1.340   1.025  14.555 -0.1523  0.1047 -0.6687
 5940TIP3    H139235   1.293   0.962  14.499  2.4662 -1.1116 -1.6436
 5940TIP3    H239236   1.354   1.101  14.498 -0.2998  0.1861 -0.5976
 5941TIP3   OH239237   2.203   4.313   0.642  0.3485  0.6245 -0.5712
 5941TIP3    H139238   2.270   4.245   0.648 -0.1168  0.1435 -0.7679
 5941TIP3    H239239   2.123   4.272   0.676  0.2361  1.3136  0.0216
 5942TIP3   OH239240   1.364   2.109   0.370  0.4805  0.0269  0.2607
 5942TIP3    H139241   1.435   2.164   0.401 -0.0441  0.3805  0.8777
 5942TIP3    H239242   1.311   2.092   0.448 -0.5067  0.3735 -0.3062
 5943TIP3   OH239243   0.718   1.299   2.986  0.6542 -0.2585  0.4595
 5943TIP3    H139244   0.633   1.336   2.961  0.3180 -1.1080  0.3261
 5943TIP3    H239245   0.772   1.376   3.005  0.1599  0.3230 -0.4061
 5944TIP3   OH239246   3.872   2.598  13.523  0.5423 -0.1133  0.2667
 5944TIP3    H139247   3.793   2.553  13.553  0.1099 -0.2009 -0.9483
 5944TIP3    H239248   3.861   2.689  13.551 -0.9979  0.3591 -1.6401
 5945TIP3   OH239249   5.641   2.571  13.615 -0.3127  0.5903  0.1480
 5945TIP3    H139250   5.634   2.556  13.709  0.5939  0.8235  0.2563
 5945TIP3    H239251   5.608   2.491  13.575 -1.7615  0.9071  0.6380
 5946TIP3   OH239252   3.938   4.050  12.655  0.4378  0.3683 -0.5173
 5946TIP3    H139253   4.022   4.088  12.680 -0.2451  0.6404  1.5710
 5946TIP3    H239254   3.890   4.122  12.614  0.0836  1.1484  1.1747
 5947TIP3   OH239255   2.574   2.081  16.188  0.4067 -0.3349 -0.1591
 5947TIP3    H139256   2.579   1.992  16.224 -0.4212  0.2192  1.3842
 5947TIP3    H239257   2.574   2.067  16.093 -1.5032 -2.1338  0.0058
 5948TIP3   OH239258   3.953   4.015  16.249 -0.9208 -0.0556  0.0291
 5948TIP3    H139259   3.950   4.080  16.319 -0.5718  0.0965 -0.0961
 5948TIP3    H239260   4.036   4.031  16.205 -1.2735  0.0499 -0.6156
 5949TIP3   OH239261   5.040   2.341  17.204  0.0959 -0.5823  0.0221
 5949TIP3    H139262   5.134   2.327  17.210  0.2485 -0.3518 -1.5232
 5949TIP3    H239263   5.002   2.268  17.254  1.0795 -0.7075  0.6125
 5950TIP3   OH239264   3.629   0.635  14.433 -0.3082  0.5667  0.0722
 5950TIP3    H139265   3.709   0.583  14.425 -2.3395 -2.6609 -1.1549
 5950TIP3    H239266   3.630   0.694  14.358  0.9171  0.6361  0.1247
 5951TIP3   OH239267   3.832   4.737  14.647  0.1470 -0.0232  0.3738
 5951TIP3    H139268   3.793   4.807  14.596  0.8440 -0.1649 -0.3613
 5951TIP3    H239269   3.779   4.660  14.627  0.3269 -0.0450 -0.0339
 5952TIP3   OH239270   0.298   0.057   2.576  0.3687  0.0159  0.4961
 5952TIP3    H139271   0.327   0.079   2.487 -1.9897 -1.3407 -0.6856
 5952TIP3    H239272   0.306  -0.038   2.581  1.5922  0.1594  2.2206
 5953TIP3   OH239273   1.347   3.741   1.643  0.4146 -0.7370 -0.7657
 5953TIP3    H139274   1.266   3.787   1.622  0.3271 -0.9234 -0.8366
 5953TIP3    H239275   1.343   3.660   1.592 -0.0470 -1.4519  0.3519
 5954TIP3   OH239276   0.581   0.383  13.023 -0.2086 -0.5370  0.6326
 5954TIP3    H139277   0.672   0.396  13.047  0.0867 -1.0513 -0.1594
 5954TIP3    H239278   0.577   0.292  12.992 -0.7887 -0.2585 -0.1751
 5955TIP3   OH239279   3.780   0.549  17.123 -0.3514  0.3325 -0.6942
 5955TIP3    H139280   3.781   0.483  17.192 -2.4227  0.1419 -0.7816
 5955TIP3    H239281   3.780   0.633  17.170 -1.4382  0.2079 -0.4519
 5956TIP3   OH239282   6.717   3.574  16.267  0.1966 -0.0470 -0.1022
 5956TIP3    H139283   6.806   3.582  16.235  0.4940 -1.1865  0.3948
 5956TIP3    H239284   6.681   3.498  16.221  0.3894 -1.2474  1.6222
 5957TIP3   OH239285   6.122   0.324  16.209 -0.0411 -0.2929 -0.3247
 5957TIP3    H139286   6.054   0.267  16.174  0.9923  0.0400 -3.1318
 5957TIP3    H239287   6.175   0.268  16.265 -0.2728 -1.6006 -1.3772
 5958TIP3   OH239288   2.914   3.719   0.838 -0.1255 -0.0875 -0.7720
 5958TIP3    H139289   2.916   3.625   0.852  2.0396 -0.0134 -0.2864
 5958TIP3    H239290   2.867   3.753   0.914  1.2646 -0.6160  0.3676
 5959TIP3   OH239291   0.971   5.081   4.592  0.3974  0.0692  0.0145
 5959TIP3    H139292   1.035   5.012   4.577  1.6928  0.7278  2.0876
 5959TIP3    H239293   1.023   5.159   4.612 -1.0315  0.7577  1.2890
 5960TIP3   OH239294   3.141   5.799  16.416 -0.0264  0.0676  0.6397
 5960TIP3    H139295   3.166   5.763  16.502 -0.4868 -1.2807  0.2328
 5960TIP3    H239296   3.223   5.801  16.367  0.2214  0.7478  1.0656
 5961TIP3   OH239297   5.530   2.882   4.240 -0.2232  0.5128 -0.3604
 5961TIP3    H139298   5.529   2.950   4.173  2.1775  1.1437  0.1568
 5961TIP3    H239299   5.607   2.829   4.220 -1.0626 -1.0142  0.2741
 5962TIP3   OH239300   3.049   3.586   2.872  0.4195  0.0707  0.0507
 5962TIP3    H139301   3.093   3.667   2.847 -0.1773 -0.3758 -2.8211
 5962TIP3    H239302   2.971   3.615   2.919 -0.2269  1.2840 -1.6499
 5963TIP3   OH239303   4.502   6.648   3.636  0.0048 -0.0936 -0.0488
 5963TIP3    H139304   4.553   6.568   3.622  0.2043  0.1052 -0.4944
 5963TIP3    H239305   4.413   6.625   3.608  0.2992  0.1566 -1.2258
 5964TIP3   OH239306   4.803   3.889  13.508  0.9309 -0.3496 -0.2784
 5964TIP3    H139307   4.882   3.839  13.489  0.7962  0.4739 -3.6687
 5964TIP3    H239308   4.777   3.861  13.595  4.1469 -1.6807  0.4021
 5965TIP3   OH239309   0.786   1.984   5.540 -0.2663 -0.4964  0.2965
 5965TIP3    H139310   0.857   2.048   5.535 -0.1172 -0.6774  0.0230
 5965TIP3    H239311   0.794   1.934   5.459 -1.9691  0.7761 -0.7170
 5966TIP3   OH239312   5.262   3.714  15.553  0.0027  0.3543  0.4054
 5966TIP3    H139313   5.200   3.759  15.497  0.6154  1.0702  0.2891
 5966TIP3    H239314   5.233   3.733  15.642  0.4629  1.3105  0.3680
 5967TIP3   OH239315   6.649   3.326   5.266  0.5079 -0.6216 -0.9429
 5967TIP3    H139316   6.680   3.306   5.354  1.1474  2.1363 -0.4699
 5967TIP3    H239317   6.682   3.254   5.212  5.1186  0.4234  0.0906
 5968TIP3   OH239318   4.882   5.750  11.355 -0.0448 -0.3510  0.5760
 5968TIP3    H139319   4.789   5.740  11.378 -0.6858  0.4973 -1.4231
 5968TIP3    H239320   4.898   5.679  11.293  0.5530 -0.2579  0.6204
 5969TIP3   OH239321   5.937   3.929   1.364  0.3684 -0.0107  0.2023
 5969TIP3    H139322   6.006   3.907   1.301  0.9314 -0.0970  0.8347
 5969TIP3    H239323   5.858   3.938   1.311  1.1060  1.4098 -0.7277
 5970TIP3   OH239324   4.184   6.111   1.624  0.0067 -0.0685  0.4430
 5970TIP3    H139325   4.180   6.144   1.714 -1.1164  0.5580  0.1898
 5970TIP3    H239326   4.277   6.105   1.605  0.2771 -0.4908  1.7440
 5971TIP3   OH239327   0.124   2.461   4.280 -0.4728 -0.2502 -0.4824
 5971TIP3    H139328   0.122   2.377   4.325 -1.7715  0.1153  0.1839
 5971TIP3    H239329   0.054   2.456   4.215  0.5539 -0.2961 -1.6296
 5972TIP3   OH239330   6.120   2.545  16.791  0.2651 -0.3435  0.7611
 5972TIP3    H139331   6.130   2.455  16.761  0.9738 -1.6033  4.3559
 5972TIP3    H239332   6.207   2.584  16.780  0.0023 -0.0887 -0.6254
 5973TIP3   OH239333   2.453   0.923  13.810  0.1888 -0.0056  0.1058
 5973TIP3    H139334   2.424   0.927  13.901 -1.9163  0.7612 -0.5262
 5973TIP3    H239335   2.424   0.838  13.779 -0.0954  0.1814 -0.1453
 5974TIP3   OH239336   2.720   3.283  12.550  0.2639 -0.1989  0.1326
 5974TIP3    H139337   2.627   3.301  12.562  0.7037  2.5815 -0.1754
 5974TIP3    H239338   2.750   3.256  12.637 -1.0463 -2.6162 -0.0780
 5975TIP3   OH239339   4.660   2.576  15.753  0.1395  0.8091 -0.4496
 5975TIP3    H139340   4.706   2.500  15.788  1.4499  1.9633  0.4255
 5975TIP3    H239341   4.724   2.621  15.698 -0.3730  1.6762 -0.3629
 5976TIP3   OH239342   0.641   2.048   5.991 -0.2652  0.1522  0.2459
 5976TIP3    H139343   0.732   2.072   6.005 -0.0742 -0.8402  0.8243
 5976TIP3    H239344   0.597   2.067   6.074 -0.5223  0.3337  0.0717
 5977TIP3   OH239345   5.046   6.383   6.609 -0.1025 -0.1622  0.2262
 5977TIP3    H139346   5.110   6.311   6.602 -0.7953 -0.6648 -1.1925
 5977TIP3    H239347   5.098   6.462   6.596  0.3652 -0.5189 -0.1321
 5978TIP3   OH239348   6.292   4.449   2.001  0.1238  0.6410  0.0210
 5978TIP3    H139349   6.325   4.444   1.912  0.3377 -0.4572  0.1439
 5978TIP3    H239350   6.340   4.522   2.041  1.9603 -0.4612 -0.0104
 5979TIP3   OH239351   2.811   0.202  14.682 -0.4982  0.0797  0.2949
 5979TIP3    H139352   2.726   0.197  14.726 -0.7671 -1.1670 -0.3096
 5979TIP3    H239353   2.872   0.231  14.751 -1.2642  0.1838  0.9457
 5980TIP3   OH239354   1.015   5.091   3.619  0.3177 -0.2549  0.2113
 5980TIP3    H139355   1.073   5.066   3.690  0.0886  1.8727  1.2402
 5980TIP3    H239356   1.072   5.133   3.554  0.0525  1.3357  0.9699
 5981TIP3   OH239357   6.471   4.930   0.277 -0.5866  0.2838  0.4226
 5981TIP3    H139358   6.536   5.000   0.270 -1.5017  1.0935 -0.2245
 5981TIP3    H239359   6.422   4.952   0.356 -1.1160  0.6027  0.0140
 5982TIP3   OH239360   1.297   4.458   6.189 -0.0380 -0.1846 -0.3690
 5982TIP3    H139361   1.298   4.422   6.278  0.5540 -0.5470 -0.5120
 5982TIP3    H239362   1.308   4.381   6.133 -0.0114  0.0877 -0.7372
 5983TIP3   OH239363   2.575   3.369   0.358 -0.3143  0.2811  0.0174
 5983TIP3    H139364   2.656   3.377   0.408  0.2731  0.7376 -0.9649
 5983TIP3    H239365   2.595   3.412   0.274 -2.0412  1.7745  0.3120
 5984TIP3   OH239366   3.306   1.717   6.101 -0.5558 -0.2991  1.1410
 5984TIP3    H139367   3.352   1.680   6.177  0.4897  0.8915  1.1108
 5984TIP3    H239368   3.330   1.809   6.101 -0.3705 -0.3177 -0.7736
 5985TIP3   OH239369   2.449   6.100   3.207  0.7749 -0.1443 -0.6358
 5985TIP3    H139370   2.427   6.011   3.182  0.9193 -0.7055  1.1082
 5985TIP3    H239371   2.538   6.113   3.174  0.3817 -0.2521 -1.7960
 5986TIP3   OH239372   5.539   5.582   0.706  0.6536  0.2212 -0.3220
 5986TIP3    H139373   5.593   5.508   0.678 -0.3862 -0.4511 -0.6276
 5986TIP3    H239374   5.461   5.576   0.651 -0.3854  0.2870  1.0804
 5987TIP3   OH239375   5.312   2.442  14.611  0.2962 -0.0676 -0.0784
 5987TIP3    H139376   5.231   2.424  14.563  1.0520 -1.8664 -0.7886
 5987TIP3    H239377   5.380   2.440  14.543  1.3516 -2.2580  0.9461
 5988TIP3   OH239378   2.077   3.420  10.652  0.0261 -0.1890  0.6820
 5988TIP3    H139379   2.090   3.357  10.723 -0.5838  0.4017  1.3252
 5988TIP3    H239380   2.010   3.381  10.596 -1.9346  0.7982  2.2252
 5989TIP3   OH239381   3.154   4.807   4.992 -0.2071 -0.3777  0.1378
 5989TIP3    H139382   3.148   4.712   4.982 -0.4304 -0.4422  0.8431
 5989TIP3    H239383   3.246   4.827   4.974 -0.6622 -0.3798 -2.6509
 5990TIP3   OH239384   0.309   2.090   2.621 -0.2858 -0.0864  0.0037
 5990TIP3    H139385   0.384   2.148   2.626  1.7560 -2.5314 -0.3796
 5990TIP3    H239386   0.277   2.100   2.531  0.3359  0.0910 -0.2021
 5991TIP3   OH239387   6.527   6.424   2.508 -0.0632 -0.2286  0.3184
 5991TIP3    H139388   6.472   6.368   2.563 -0.7321 -0.6682 -0.7633
 5991TIP3    H239389   6.563   6.366   2.442 -0.6458  0.5626 -0.7363
 5992TIP3   OH239390   5.685   0.866  16.038  0.5550  0.3090 -0.0186
 5992TIP3    H139391   5.646   0.850  15.952  1.7019 -1.0502 -0.3167
 5992TIP3    H239392   5.719   0.781  16.065 -0.6768  0.4532  2.2684
 5993TIP3   OH239393   0.464   2.469  16.951  0.2371  0.0601  0.0512
 5993TIP3    H139394   0.505   2.554  16.969  2.1006 -0.8687  0.4267
 5993TIP3    H239395   0.453   2.467  16.855 -1.2823  1.3202  0.1611
 5994TIP3   OH239396   5.498   1.114  16.199  0.4296 -0.2524 -0.4668
 5994TIP3    H139397   5.443   1.176  16.247 -0.2608 -0.9290 -0.3680
 5994TIP3    H239398   5.437   1.049  16.166  1.0048 -0.2671 -1.5357
 5995TIP3   OH239399   1.872   3.131  17.051 -0.0868 -0.3448  0.3013
 5995TIP3    H139400   1.825   3.049  17.062  0.3084 -0.6694 -0.3137
 5995TIP3    H239401   1.943   3.127  17.115 -0.4699 -0.1724  0.7404
 5996TIP3   OH239402   3.217   1.039   2.592  0.0070  0.0257  0.1885
 5996TIP3    H139403   3.180   0.967   2.643  1.9714  0.0161  1.7202
 5996TIP3    H239404   3.265   0.996   2.521 -1.1637 -0.0203 -0.6133
 5997TIP3   OH239405   5.882   0.832  14.856  0.0790  0.2393 -0.2044
 5997TIP3    H139406   5.847   0.844  14.768 -0.6097 -0.1017  0.0198
 5997TIP3    H239407   5.820   0.876  14.913 -0.8711 -1.6894  0.3476
 5998TIP3   OH239408   3.983   0.668   1.814 -0.0408 -0.5649  0.5091
 5998TIP3    H139409   3.932   0.630   1.886 -0.6810  0.5075  0.6355
 5998TIP3    H239410   4.074   0.658   1.842 -0.0765 -3.2124 -0.0600
 5999TIP3   OH239411   1.186   0.938   1.626  0.5187  0.0439  0.0430
 5999TIP3    H139412   1.147   0.862   1.583  2.3966 -0.9553  0.0106
 5999TIP3    H239413   1.230   0.986   1.557  1.3639 -0.1592  0.4278
 6000TIP3   OH239414   2.078   1.623   4.894  1.2809 -0.2276 -0.2496
 6000TIP3    H139415   2.077   1.580   4.808 -1.4168 -1.0247  0.0753
 6000TIP3    H239416   2.040   1.709   4.878 -2.6366 -1.5754  0.4818
 6001TIP3   OH239417   1.034   2.763   6.467  0.2799  0.1667  0.0992
 6001TIP3    H139418   1.059   2.806   6.386  2.0316 -0.2067  0.4122
 6001TIP3    H239419   1.074   2.816   6.536  0.7522 -0.7997  0.5916
 6002TIP3   OH239420   0.093   2.912   5.618 -0.0239 -0.3764 -0.3124
 6002TIP3    H139421   0.163   2.973   5.641  2.0295 -1.8960 -2.0767
 6002TIP3    H239422   0.017   2.967   5.603  1.1836  1.5216  0.1451
 6003TIP3   OH239423   6.537   0.175  15.856 -0.4047  0.4273  0.2285
 6003TIP3    H139424   6.483   0.254  15.858 -0.0851  0.6850 -0.8531
 6003TIP3    H239425   6.545   0.153  15.763  0.6844 -0.0617  0.4180
 6004TIP3   OH239426   4.514   2.268   0.280 -0.6898  0.2787 -0.0860
 6004TIP3    H139427   4.586   2.332   0.277 -0.5995  0.1635 -2.6366
 6004TIP3    H239428   4.558   2.183   0.291 -0.2472  0.1028 -2.5543
 6005TIP3   OH239429   2.150   5.874   2.211  0.1320  0.4069  0.0292
 6005TIP3    H139430   2.234   5.911   2.182 -0.6953  0.4408 -2.5151
 6005TIP3    H239431   2.093   5.880   2.135 -1.5977 -1.4636  1.0721
 6006TIP3   OH239432   4.505   0.437   0.077  0.0566  0.2466  0.7132
 6006TIP3    H139433   4.501   0.409  -0.014  0.4846  0.5181  0.6028
 6006TIP3    H239434   4.447   0.513   0.082  0.4888  0.5992  0.5177
 6007TIP3   OH239435   3.492   1.060  11.125  0.0634 -0.0231  0.4712
 6007TIP3    H139436   3.453   1.146  11.138  0.3560  0.1345  0.3131
 6007TIP3    H239437   3.547   1.070  11.047  0.6805 -0.1524  0.8849
 6008TIP3   OH239438   2.199   3.110  16.148  0.4475 -0.3101  0.0428
 6008TIP3    H139439   2.271   3.155  16.192  0.8790 -0.9385 -0.0064
 6008TIP3    H239440   2.182   3.033  16.201 -1.6008  0.8668  1.2250
 6009TIP3   OH239441   2.962   0.330   2.555 -0.5440  0.6882  0.1946
 6009TIP3    H139442   2.951   0.425   2.548  2.3295  1.0551 -0.7664
 6009TIP3    H239443   2.952   0.298   2.465 -0.2889  0.2279  0.3261
 6010TIP3   OH239444   5.429   5.469  13.024  0.2656  0.0950 -0.1552
 6010TIP3    H139445   5.363   5.529  12.989  0.7047  0.7070  0.0608
 6010TIP3    H239446   5.493   5.459  12.953  0.9621  1.0460  0.3190
 6011TIP3   OH239447   4.269   2.516  16.785  0.3091 -0.3601  0.4402
 6011TIP3    H139448   4.354   2.477  16.765  0.8674  1.3889 -0.7633
 6011TIP3    H239449   4.229   2.532  16.699 -0.8543 -0.2824  0.9696
 6012TIP3   OH239450   1.113   1.323  15.951  0.2280 -0.1307  0.2711
 6012TIP3    H139451   1.046   1.301  15.886  0.8385 -1.8508  0.1786
 6012TIP3    H239452   1.196   1.308  15.905  0.6726  0.2283  0.9452
 6013TIP3   OH239453   5.056   5.202   6.502 -0.2573 -0.3733 -0.4675
 6013TIP3    H139454   5.002   5.225   6.426  0.0883 -0.7718 -0.8353
 6013TIP3    H239455   5.004   5.137   6.549 -0.8086  0.4277  0.0537
 6014TIP3   OH239456   1.357   6.482  11.161  0.6134  0.5495  0.2195
 6014TIP3    H139457   1.385   6.571  11.180  0.3973  0.7218 -0.2724
 6014TIP3    H239458   1.284   6.491  11.100 -0.4748  0.0983  1.4089
 6015TIP3   OH239459   6.179   1.234   2.500 -0.5812 -0.5819  0.0455
 6015TIP3    H139460   6.239   1.188   2.442  1.8372  0.3363  1.6421
 6015TIP3    H239461   6.158   1.316   2.454 -0.8884 -1.0601 -0.6702
 6016TIP3   OH239462   1.749   5.134  16.910 -0.1618  0.5326  0.1223
 6016TIP3    H139463   1.837   5.131  16.874 -0.6871 -0.3529 -1.1602
 6016TIP3    H239464   1.731   5.044  16.937 -0.8545  0.6101 -0.0709
 6017TIP3   OH239465   0.348   3.717  12.147 -0.4394  0.5430 -0.4100
 6017TIP3    H139466   0.351   3.807  12.113  0.2083  0.5845 -0.2624
 6017TIP3    H239467   0.264   3.711  12.192 -0.7019  0.9216 -0.8358
 6018TIP3   OH239468   4.073   5.192  12.599 -0.3008 -0.8272  0.9448
 6018TIP3    H139469   3.995   5.245  12.580  1.8128  2.5333  0.8920
 6018TIP3    H239470   4.081   5.196  12.694  0.5146  0.0016  0.8524
 6019TIP3   OH239471   4.194   3.891   4.485  0.0661 -0.4690  0.4219
 6019TIP3    H139472   4.145   3.854   4.411  1.6119 -0.0890 -0.8555
 6019TIP3    H239473   4.226   3.816   4.533  0.2576 -0.7467 -0.1322
 6020TIP3   OH239474   5.192   6.718  13.748 -0.3659 -0.1011 -0.3614
 6020TIP3    H139475   5.169   6.776  13.821 -1.9458 -1.0423 -0.0710
 6020TIP3    H239476   5.175   6.770  13.670 -1.7588 -0.1389 -0.1056
 6021TIP3   OH239477   2.439   0.618   6.084  0.1711 -0.2136 -0.0370
 6021TIP3    H139478   2.377   0.557   6.125 -0.7116  1.0563  0.5547
 6021TIP3    H239479   2.490   0.652   6.157 -0.1249  0.6221 -0.2147
 6022TIP3   OH239480   2.025   3.082   1.489 -0.2047  0.2392 -0.0786
 6022TIP3    H139481   2.033   3.038   1.573 -0.9515  0.5731  0.1747
 6022TIP3    H239482   1.932   3.098   1.479  0.1393  3.6162  0.8470
 6023TIP3   OH239483   4.920   4.396   3.759  0.1676 -0.4289  0.3381
 6023TIP3    H139484   4.843   4.452   3.744 -0.4882 -1.7234 -1.5854
 6023TIP3    H239485   4.967   4.438   3.831 -2.3374  0.4056  1.6028
 6024TIP3   OH239486   5.032   4.592   3.943  0.6476 -0.6152 -0.2579
 6024TIP3    H139487   5.111   4.577   3.994 -0.7194 -0.9409  1.9209
 6024TIP3    H239488   5.022   4.687   3.943  1.1995 -0.5499 -0.8453
 6025TIP3   OH239489   1.273   4.984  12.576  0.8218  0.5130  0.0017
 6025TIP3    H139490   1.276   4.996  12.481  0.5103 -0.8785 -0.2161
 6025TIP3    H239491   1.361   4.956  12.600  1.1592  1.7620  0.2831
 6026TIP3   OH239492   2.145   0.845  13.188 -0.4379  0.0958  0.5142
 6026TIP3    H139493   2.233   0.871  13.162 -0.6081  0.5748  0.3903
 6026TIP3    H239494   2.154   0.808  13.276 -0.3005  1.3910  1.0657
 6027TIP3   OH239495   4.374   0.058   3.314 -0.1344 -0.4429  0.2256
 6027TIP3    H139496   4.467   0.037   3.318 -0.3010 -1.1004  0.9046
 6027TIP3    H239497   4.333  -0.003   3.376 -0.7475  1.3047  1.6452
 6028TIP3   OH239498   3.201   4.126  17.246  0.2768  0.3907 -0.5469
 6028TIP3    H139499   3.288   4.162  17.230  1.1488 -2.0453 -1.9810
 6028TIP3    H239500   3.216   4.032  17.258 -2.0782  0.0283  0.1332
 6029TIP3   OH239501   2.262   5.127  14.198  0.6502 -0.2573  0.1857
 6029TIP3    H139502   2.250   5.180  14.119 -0.4745 -0.3268  0.2957
 6029TIP3    H239503   2.323   5.058  14.171  1.0421  0.2882 -0.3423
 6030TIP3   OH239504   0.468   3.983  12.406 -0.1117  0.0301  0.5706
 6030TIP3    H139505   0.403   3.929  12.451 -0.0507 -0.8466 -0.3527
 6030TIP3    H239506   0.532   3.921  12.371 -0.5938  0.5680 -1.4225
 6031TIP3   OH239507   0.499   5.390   3.470 -0.1227 -0.1552  0.2198
 6031TIP3    H139508   0.516   5.484   3.465  1.6547 -0.4581 -0.0314
 6031TIP3    H239509   0.435   5.381   3.540 -3.5507  1.5819 -2.3582
 6032TIP3   OH239510   3.646   3.984  13.643  0.3326  0.2730  0.5906
 6032TIP3    H139511   3.691   3.926  13.704 -1.2335 -1.3208  0.3067
 6032TIP3    H239512   3.716   4.018  13.586  1.2326 -2.0552  0.2004
 6033TIP3   OH239513   0.693   5.503   1.717  0.6717  0.1585  0.5551
 6033TIP3    H139514   0.659   5.426   1.763  0.9884 -0.3050  0.0275
 6033TIP3    H239515   0.754   5.543   1.778  1.1327 -0.4834  0.5267
 6034TIP3   OH239516   2.831   5.769  14.129 -0.4160 -0.5718 -0.4368
 6034TIP3    H139517   2.909   5.750  14.077  0.3976  0.5607  0.3438
 6034TIP3    H239518   2.803   5.855  14.100  0.1483  0.1596  1.0744
 6035TIP3   OH239519   4.433   1.867  15.183 -0.2369  0.1883  0.1719
 6035TIP3    H139520   4.488   1.946  15.187 -0.2010  0.2624 -1.2438
 6035TIP3    H239521   4.361   1.891  15.124 -1.4031 -0.1558  1.4108
 6036TIP3   OH239522   6.473   1.613   3.045 -0.0919 -0.0343  0.1737
 6036TIP3    H139523   6.558   1.589   3.082 -0.1814  0.7840  0.9275
 6036TIP3    H239524   6.494   1.643   2.956  0.4114  0.1646  0.3527
 6037TIP3   OH239525   5.238   1.908   1.463  0.3054 -0.6854  0.1432
 6037TIP3    H139526   5.213   1.919   1.554  0.2674  0.7351 -0.0025
 6037TIP3    H239527   5.175   1.847   1.427 -1.4357  0.8603  0.4062
 6038TIP3   OH239528   6.087   6.581  15.773 -0.1264 -0.0257  0.0576
 6038TIP3    H139529   6.089   6.570  15.678  2.4942 -1.1735  0.1557
 6038TIP3    H239530   6.124   6.668  15.788  0.8867 -0.4279  0.0236
 6039TIP3   OH239531   1.373   0.022  17.067  0.0286  0.3859  0.2268
 6039TIP3    H139532   1.418   0.078  17.004 -1.8559  0.6408 -0.9693
 6039TIP3    H239533   1.286   0.061  17.075 -0.1129 -0.2334  2.2403
 6040TIP3   OH239534   0.414   1.411  17.228  0.2852  0.1949  0.0031
 6040TIP3    H139535   0.390   1.343  17.165  0.7701 -0.8138  0.8701
 6040TIP3    H239536   0.508   1.424  17.215 -0.1134  2.1275 -1.4684
 6041TIP3   OH239537   2.096   3.228   2.702  0.3889 -0.1225  0.5711
 6041TIP3    H139538   2.050   3.230   2.786 -1.6191 -0.4728 -0.4745
 6041TIP3    H239539   2.071   3.310   2.659  0.4866 -0.4638 -0.1476
 6042TIP3   OH239540   3.071   6.105  16.402 -0.1829  0.2943  0.2503
 6042TIP3    H139541   3.110   6.021  16.424 -0.6760 -0.6302 -2.0828
 6042TIP3    H239542   3.127   6.170  16.446  0.6482 -1.1902  1.4817
 6043TIP3   OH239543   1.256   2.691  11.258  0.5353 -0.3454 -0.4225
 6043TIP3    H139544   1.289   2.656  11.175  1.0689  1.3191 -0.9401
 6043TIP3    H239545   1.163   2.668  11.258  0.1888  0.8789 -2.1865
 6044TIP3   OH239546   5.725   1.089  14.447 -0.5643  0.0534 -0.5864
 6044TIP3    H139547   5.772   1.055  14.371  1.5423  0.7116  0.3702
 6044TIP3    H239548   5.792   1.132  14.501 -2.1034  0.2354  1.3053
 6045TIP3   OH239549   6.207   4.011   4.159  0.5813 -0.5071  0.5178
 6045TIP3    H139550   6.166   3.940   4.109  0.9378  0.0750 -0.6302
 6045TIP3    H239551   6.137   4.075   4.171  0.4101 -0.7895  1.0627
 6046TIP3   OH239552   0.673   1.807  17.008  0.2937  0.6555  0.0311
 6046TIP3    H139553   0.614   1.800  17.083  0.7371 -1.2456  0.2477
 6046TIP3    H239554   0.728   1.883  17.028  1.3683 -0.6256  2.4081
 6047TIP3   OH239555   3.964   2.930   3.675 -0.4008 -0.7567  0.4957
 6047TIP3    H139556   3.874   2.945   3.645 -0.0246 -1.9013 -1.3583
 6047TIP3    H239557   3.963   2.954   3.767 -1.7732  2.6289 -0.2466
 6048TIP3   OH239558   3.156   1.840  13.939 -0.5252 -0.3566 -0.6364
 6048TIP3    H139559   3.221   1.863  14.004 -1.1118 -2.7738  0.9242
 6048TIP3    H239560   3.084   1.901  13.954  0.4141  0.8576 -0.8915
 6049TIP3   OH239561   6.243   5.429  13.785 -0.8125  0.3605  0.1458
 6049TIP3    H139562   6.219   5.429  13.692  0.2863 -3.3980 -0.2822
 6049TIP3    H239563   6.319   5.487  13.789 -0.1393 -0.3190 -1.5755
 6050TIP3   OH239564   4.144   6.098   1.098  0.1609 -0.3655 -0.0908
 6050TIP3    H139565   4.110   6.096   1.188  0.9438  2.1787  0.3286
 6050TIP3    H239566   4.115   6.015   1.060 -1.8798 -0.6559  1.8921
 6051TIP3   OH239567   3.570   1.558   0.498  0.2071  0.2797  0.0134
 6051TIP3    H139568   3.509   1.502   0.449 -0.9796  0.1725  1.5164
 6051TIP3    H239569   3.516   1.632   0.527  1.7243  2.2869 -1.8973
 6052TIP3   OH239570   5.557   3.902  17.310 -0.2866 -0.2405  1.0925
 6052TIP3    H139571   5.497   3.831  17.286  0.7428 -1.1202  1.0575
 6052TIP3    H239572   5.500   3.972  17.341 -1.6740  0.5251 -2.6236
 6053TIP3   OH239573   3.187   4.512  11.546 -0.2932  0.0452  0.4050
 6053TIP3    H139574   3.186   4.563  11.626 -2.2880 -0.1276  0.5500
 6053TIP3    H239575   3.148   4.428  11.571  1.2480 -0.8926 -0.2277
 6054TIP3   OH239576   5.457   2.447  14.369  0.2810  0.7547 -0.0021
 6054TIP3    H139577   5.400   2.512  14.326 -0.1643  0.9834  0.9063
 6054TIP3    H239578   5.491   2.394  14.297 -1.8235  0.0015 -0.5202
 6055TIP3   OH239579   6.088   3.195   3.008  0.0461 -0.0549  0.4911
 6055TIP3    H139580   6.151   3.127   2.983 -0.0568 -0.2447  0.7437
 6055TIP3    H239581   6.004   3.150   3.011 -0.2341  0.3696 -0.6165
 6056TIP3   OH239582   5.544   1.308  16.726  0.9291 -0.2497  0.1981
 6056TIP3    H139583   5.472   1.341  16.673 -0.8866 -1.2475  1.9057
 6056TIP3    H239584   5.578   1.233  16.676 -0.2151 -0.6882  0.0500
 6057TIP3   OH239585   5.158   4.368   4.360 -0.0638 -0.8002 -0.0283
 6057TIP3    H139586   5.139   4.293   4.417  1.7312 -0.9009  0.5149
 6057TIP3    H239587   5.112   4.441   4.401 -2.0180 -1.5853 -0.6785
 6058TIP3   OH239588   6.032   5.197  17.286 -0.0864  0.4279  0.6511
 6058TIP3    H139589   6.089   5.132  17.326  0.2286 -0.1324 -0.6674
 6058TIP3    H239590   5.966   5.215  17.354 -0.2023 -1.2754  1.0518
 6059TIP3   OH239591   0.711   6.730   1.004  0.8326 -0.0893  0.6947
 6059TIP3    H139592   0.702   6.730   0.909 -1.2162 -0.3960  0.8331
 6059TIP3    H239593   0.779   6.796   1.022  1.6572 -0.4375 -0.9776
 6060TIP3   OH239594   4.800   2.745   6.556  0.3184 -0.4008 -0.0109
 6060TIP3    H139595   4.727   2.690   6.587 -0.2399 -0.6425 -1.6965
 6060TIP3    H239596   4.835   2.698   6.481  1.8027  0.0657  0.3558
 6061TIP3   OH239597   6.110   5.291   1.878  0.3048 -0.3233  0.3524
 6061TIP3    H139598   6.106   5.341   1.959 -0.8749  0.1404  0.0230
 6061TIP3    H239599   6.161   5.345   1.818  0.2388 -0.1719  0.4350
 6062TIP3   OH239600   0.482   0.862   5.421 -0.0815  0.2623  0.6468
 6062TIP3    H139601   0.485   0.785   5.365  0.7625  0.2927  0.6412
 6062TIP3    H239602   0.470   0.827   5.509 -0.6299  0.1734  0.5362
 6063TIP3   OH239603   0.113   2.417  17.093  0.3613  0.8248 -0.2915
 6063TIP3    H139604   0.174   2.347  17.117  0.3099  0.5427 -0.9562
 6063TIP3    H239605   0.141   2.492  17.146  0.8674  0.5054 -0.0952
 6064TIP3   OH239606   3.652   0.996   1.091  0.1748 -0.2289  0.5630
 6064TIP3    H139607   3.626   1.077   1.134 -0.1231 -0.4943  0.8827
 6064TIP3    H239608   3.709   0.952   1.155  0.0948 -0.4128  0.5082
 6065TIP3   OH239609   5.234   3.868   1.404  0.5753  0.2819  0.2699
 6065TIP3    H139610   5.257   3.956   1.373  1.6488 -0.2711 -0.5549
 6065TIP3    H239611   5.238   3.874   1.499  1.4465  0.9305  0.2058
 6066TIP3   OH239612   3.789   5.189   2.174  0.0138  0.2314  0.0112
 6066TIP3    H139613   3.841   5.259   2.212  0.6099 -0.6335  0.8278
 6066TIP3    H239614   3.708   5.188   2.225  0.2789 -0.1005  0.4233
 6067TIP3   OH239615   0.679   4.949   3.191 -0.7229  0.6564  0.3803
 6067TIP3    H139616   0.712   5.022   3.244  1.7904 -0.5844  0.6618
 6067TIP3    H239617   0.750   4.928   3.131 -1.6118 -1.1492 -0.1266
 6068TIP3   OH239618   5.042   0.282   5.421  0.0803  0.0710  0.4596
 6068TIP3    H139619   5.133   0.300   5.397  0.5140 -2.5206 -0.0874
 6068TIP3    H239620   5.036   0.187   5.424 -2.2931  0.1910  1.8397
 6069TIP3   OH239621   6.727   3.311   6.163 -0.3714  0.1704  0.1214
 6069TIP3    H139622   6.715   3.239   6.225  0.5962 -1.7098 -1.7732
 6069TIP3    H239623   6.676   3.286   6.086 -1.7596  2.5782  0.1756
 6070TIP3   OH239624   2.875   2.813   3.333 -0.1619  0.2130  0.4388
 6070TIP3    H139625   2.915   2.787   3.250 -0.2374 -0.6116  0.6527
 6070TIP3    H239626   2.792   2.854   3.308 -0.6755 -0.9741  0.1474
 6071TIP3   OH239627   4.182   3.549   3.754  0.0862  0.0689 -0.3320
 6071TIP3    H139628   4.136   3.560   3.670 -1.0358 -2.5208 -0.1581
 6071TIP3    H239629   4.112   3.529   3.817  1.2507 -4.7033 -0.1894
 6072TIP3   OH239630   1.077   5.780   2.769  0.0290 -0.4359  0.1279
 6072TIP3    H139631   1.074   5.723   2.846  1.3147 -0.7678 -0.0316
 6072TIP3    H239632   1.108   5.864   2.804 -1.9372  0.2233  0.3751
 6073TIP3   OH239633   6.134   3.716  12.485 -0.1187 -0.5550 -0.1812
 6073TIP3    H139634   6.049   3.745  12.519  0.5002 -0.5854  1.4789
 6073TIP3    H239635   6.111   3.654  12.415 -1.4529 -0.0656 -0.2107
 6074TIP3   OH239636   4.392   6.562   1.053  0.2169 -0.3033  0.1118
 6074TIP3    H139637   4.450   6.503   1.101 -0.3124 -0.6322  0.3599
 6074TIP3    H239638   4.307   6.552   1.095  0.5609  2.3289  1.6714
 6075TIP3   OH239639   4.781   5.309  14.130 -0.2954 -0.3104 -0.2645
 6075TIP3    H139640   4.702   5.260  14.106 -1.0797  0.1884  1.1847
 6075TIP3    H239641   4.811   5.347  14.047 -2.0436  0.1435 -0.7514
 6076TIP3   OH239642   2.143   3.176  14.177 -0.3566  0.3488 -0.3930
 6076TIP3    H139643   2.060   3.192  14.132 -1.1144  2.8597  1.6573
 6076TIP3    H239644   2.175   3.263  14.199 -0.5788 -0.5631  4.6573
 6077TIP3   OH239645   1.886   4.482  14.484  0.0588 -0.3217  0.0699
 6077TIP3    H139646   1.942   4.558  14.494  0.7222 -1.0180  2.1574
 6077TIP3    H239647   1.946   4.408  14.478 -0.5798 -0.7589 -1.6892
 6078TIP3   OH239648   6.262   1.147  16.363 -0.5282  0.3842 -0.6181
 6078TIP3    H139649   6.309   1.076  16.406  1.3550  0.6895 -2.0503
 6078TIP3    H239650   6.308   1.160  16.280 -2.6112  1.3470 -1.7069
 6079TIP3   OH239651   1.883   0.090   2.330 -0.1695  0.3701  0.0836
 6079TIP3    H139652   1.912   0.128   2.247 -0.1329 -1.7019 -0.9028
 6079TIP3    H239653   1.932   0.138   2.397  2.1275  0.0337 -1.2757
 6080TIP3   OH239654   6.421   5.620  14.604  0.1067  0.0848  0.1789
 6080TIP3    H139655   6.422   5.715  14.616  0.0071 -0.0516  1.3665
 6080TIP3    H239656   6.337   5.603  14.559  0.2501  0.5717 -0.2871
 6081TIP3   OH239657   0.336   3.003   5.086 -0.0856 -0.3541  0.3572
 6081TIP3    H139658   0.423   2.995   5.048  0.1857  0.6532  0.7276
 6081TIP3    H239659   0.290   3.064   5.028  0.2015  0.8729  1.3915
 6082TIP3   OH239660   0.701   5.793  11.327 -0.7041 -0.5788  0.3995
 6082TIP3    H139661   0.783   5.778  11.280 -0.7199 -1.4698  0.6508
 6082TIP3    H239662   0.684   5.887  11.314 -0.7278 -0.7870 -1.3993
 6083TIP3   OH239663   3.572   5.356  13.554  0.2009  0.1376 -0.3554
 6083TIP3    H139664   3.508   5.376  13.486 -1.2413 -0.1627  0.8728
 6083TIP3    H239665   3.557   5.264  13.575 -0.5011  0.6295  1.4687
 6084TIP3   OH239666   4.826   2.329  11.528  0.3598 -0.1480 -0.6284
 6084TIP3    H139667   4.807   2.391  11.458 -0.0561 -0.8381 -1.1376
 6084TIP3    H239668   4.921   2.336  11.541  0.1670  1.4895  0.1948
 6085TIP3   OH239669   4.706   0.934   0.525  0.7297 -0.0002 -0.1307
 6085TIP3    H139670   4.746   0.907   0.608  0.4708  2.3085  0.7914
 6085TIP3    H239671   4.641   0.999   0.549  0.6019  0.6829 -2.1555
 6086TIP3   OH239672   2.531   0.721  17.358  0.2655  0.3706 -0.3433
 6086TIP3    H139673   2.481   0.669  17.420 -0.0921  0.2011 -0.7666
 6086TIP3    H239674   2.619   0.685  17.361  0.0033 -0.3078 -0.6865
 6087TIP3   OH239675   4.932   2.670  16.615 -0.4861 -0.9476 -0.2514
 6087TIP3    H139676   4.850   2.670  16.664 -0.7897 -1.9247 -0.7317
 6087TIP3    H239677   4.914   2.722  16.537  0.2427  1.3313  0.9868
 6088TIP3   OH239678   5.422   4.412  14.063 -0.5473 -0.4484  0.4860
 6088TIP3    H139679   5.466   4.441  13.983 -1.7667 -0.0754 -0.0781
 6088TIP3    H239680   5.486   4.426  14.132 -0.0857  0.9192 -0.1789
 6089TIP3   OH239681   0.928   0.277   2.772 -0.2016 -0.6531  0.1812
 6089TIP3    H139682   0.988   0.351   2.775 -0.3992 -0.4289 -0.8479
 6089TIP3    H239683   0.856   0.302   2.831  0.4708 -0.7154  1.0361
 6090TIP3   OH239684   2.109   5.640   4.467  0.0789  0.1861 -0.0544
 6090TIP3    H139685   2.059   5.593   4.399  0.9914  0.6278 -1.0564
 6090TIP3    H239686   2.078   5.730   4.462  0.6682  0.3754 -0.4022
 6091TIP3   OH239687   1.141   4.152   4.746 -0.1820  0.5795 -0.0613
 6091TIP3    H139688   1.216   4.093   4.756 -0.3052  0.2049 -1.2030
 6091TIP3    H239689   1.147   4.211   4.821  1.7596  1.1008 -0.5516
 6092TIP3   OH239690   1.621   5.803  13.614  0.3895  0.3082  0.7060
 6092TIP3    H139691   1.597   5.757  13.533  0.8168  0.6405  0.3895
 6092TIP3    H239692   1.559   5.770  13.679 -0.1844  0.2957  0.1649
 6093TIP3   OH239693   1.999   3.466   3.133 -0.0764 -0.0166 -0.0686
 6093TIP3    H139694   2.071   3.528   3.139  0.0794 -0.0839 -1.0878
 6093TIP3    H239695   1.923   3.514   3.166 -0.0380  0.8751 -1.1997
 6094TIP3   OH239696   0.533   5.091   2.657 -0.2076  0.7254  0.1393
 6094TIP3    H139697   0.540   5.161   2.722  1.9210  0.1997  0.5839
 6094TIP3    H239698   0.506   5.134   2.576 -0.6867  1.7493  0.8321
 6095TIP3   OH239699   4.006   5.180   5.011  0.2346  0.3769 -0.1422
 6095TIP3    H139700   3.949   5.112   4.974  1.8065 -0.6803 -0.7168
 6095TIP3    H239701   4.059   5.209   4.937  2.4156 -0.7125  0.9086
 6096TIP3   OH239702   1.718   6.553   0.469 -0.2065 -0.0538 -0.3818
 6096TIP3    H139703   1.751   6.538   0.381 -0.1513 -1.4981 -0.1465
 6096TIP3    H239704   1.673   6.637   0.464  0.7453  0.4133 -1.4992
 6097TIP3   OH239705   1.842   4.184  17.400  0.2220 -0.4279  0.0629
 6097TIP3    H139706   1.790   4.245  17.452  0.0702 -1.3330  0.9996
 6097TIP3    H239707   1.921   4.171  17.451 -0.5150 -2.3882  0.7998
 6098TIP3   OH239708   0.207   1.732   1.295  0.1356 -0.3622 -0.7532
 6098TIP3    H139709   0.111   1.730   1.297  0.0517  0.6897 -2.0862
 6098TIP3    H239710   0.228   1.737   1.201  1.4910 -0.1754 -0.4566
 6099TIP3   OH239711   3.976   0.248   0.976  0.7210  0.7358  0.3571
 6099TIP3    H139712   3.985   0.268   1.070 -0.2770 -1.0132  0.8807
 6099TIP3    H239713   3.943   0.329   0.937  0.1091  1.1848  1.7337
 6100TIP3   OH239714   2.089   5.452  14.144 -0.3340 -0.8923  0.3272
 6100TIP3    H139715   2.181   5.466  14.123 -0.4064 -0.9083 -0.0003
 6100TIP3    H239716   2.053   5.405  14.068 -1.2732  1.5706 -0.8471
 6101TIP3   OH239717   0.401   6.663   1.527 -0.2466  0.0312 -1.2165
 6101TIP3    H139718   0.461   6.704   1.465 -0.3993  0.0621 -1.3427
 6101TIP3    H239719   0.362   6.737   1.575 -2.5242  0.2394 -3.2362
 6102TIP3   OH239720   5.294   4.160   1.970  0.0835  0.7928  0.4605
 6102TIP3    H139721   5.337   4.076   1.958  1.2403  1.4337 -0.0944
 6102TIP3    H239722   5.218   4.156   1.912  0.5450  0.3949 -0.1371
 6103TIP3   OH239723   2.432   1.566  16.408  0.0819 -0.4594 -0.1822
 6103TIP3    H139724   2.361   1.511  16.376  1.3804 -1.6448 -1.1420
 6103TIP3    H239725   2.391   1.624  16.472 -1.9422 -0.4056 -1.4458
 6104TIP3   OH239726   1.482   2.668  13.491 -0.1470 -0.1723  0.0783
 6104TIP3    H139727   1.409   2.606  13.494  0.7748 -1.2858  0.1160
 6104TIP3    H239728   1.547   2.631  13.551  1.4526 -0.5336 -1.7572
 6105TIP3   OH239729   0.031   6.495   0.905 -0.3056  0.1736 -0.6573
 6105TIP3    H139730   0.068   6.415   0.867 -0.4690 -0.4927  0.4936
 6105TIP3    H239731   0.048   6.486   0.999  0.9924  2.2173 -0.6417
 6106TIP3   OH239732   4.182   1.105  12.960 -0.1266 -0.0158 -0.5701
 6106TIP3    H139733   4.093   1.074  12.976 -0.7400  0.1824 -3.2128
 6106TIP3    H239734   4.210   1.059  12.881  1.9230  0.3872 -0.1493
 6107TIP3   OH239735   2.109   5.693   3.875  0.7632 -0.0844 -0.9475
 6107TIP3    H139736   2.180   5.647   3.920  1.2564  1.4622 -0.1042
 6107TIP3    H239737   2.033   5.636   3.887  1.0060 -0.0129  1.3776
 6108TIP3   OH239738   4.653   5.006  12.239  0.6444 -0.3751  0.3024
 6108TIP3    H139739   4.655   4.917  12.205  1.0564  0.0722 -0.8756
 6108TIP3    H239740   4.740   5.018  12.278  0.8821 -0.2031 -0.2827
 6109TIP3   OH239741   5.174   0.725   1.737  0.3200 -1.1095  0.3504
 6109TIP3    H139742   5.194   0.774   1.657 -0.3767 -1.0363  0.2074
 6109TIP3    H239743   5.241   0.751   1.800  0.3347 -0.4695  0.0739
 6110TIP3   OH239744   0.958   6.255   5.604  0.0351  0.5245 -0.4906
 6110TIP3    H139745   0.883   6.246   5.662 -0.7011 -0.7627 -1.5776
 6110TIP3    H239746   0.936   6.330   5.548 -0.3665  0.2764 -0.6729
 6111TIP3   OH239747   4.143   4.324   6.099 -0.1644 -0.0236 -0.6287
 6111TIP3    H139748   4.198   4.397   6.127  0.4932 -0.5915 -0.4086
 6111TIP3    H239749   4.103   4.354   6.017 -0.3158  0.7759 -0.2702
 6112TIP3   OH239750   0.367   0.229  14.982 -0.3738 -0.1711  0.4065
 6112TIP3    H139751   0.396   0.144  15.016 -1.6310 -0.6680  0.3049
 6112TIP3    H239752   0.355   0.283  15.060 -0.2738 -0.3308  0.5321
 6113TIP3   OH239753   0.396   1.918  15.011 -0.3370  0.2880 -0.2422
 6113TIP3    H139754   0.486   1.913  15.044 -0.2335 -1.3056 -0.6540
 6113TIP3    H239755   0.405   1.921  14.916 -0.7085  0.8587 -0.2623
 6114TIP3   OH239756   5.310   4.828  16.839  0.4615 -0.3879  0.0222
 6114TIP3    H139757   5.394   4.798  16.804 -0.2919 -2.1060 -0.4416
 6114TIP3    H239758   5.293   4.910  16.792  2.7410  1.0764  1.5290
 6115TIP3   OH239759   1.691   2.594   0.676  0.1274  0.0451  0.5572
 6115TIP3    H139760   1.671   2.684   0.700  1.5093  0.0947  1.6646
 6115TIP3    H239761   1.709   2.597   0.582  0.5404  0.9950  0.6558
 6116TIP3   OH239762   5.614   3.870  14.278  0.0928  0.4236 -0.5015
 6116TIP3    H139763   5.598   3.811  14.204  0.0441  0.1268 -0.2579
 6116TIP3    H239764   5.605   3.814  14.355 -0.5380  0.8789 -0.2340
 6117TIP3   OH239765   1.349   0.185   5.847 -0.2538 -0.3551 -0.0605
 6117TIP3    H139766   1.319   0.171   5.937  3.3554 -2.8333  0.9881
 6117TIP3    H239767   1.379   0.275   5.845  0.2144 -0.4569  1.4722
 6118TIP3   OH239768   4.731   1.618  11.657  0.0495  0.2911  0.3591
 6118TIP3    H139769   4.636   1.610  11.654  0.1484 -1.3972  0.5340
 6118TIP3    H239770   4.748   1.693  11.714 -1.1657  1.9370 -1.3342
 6119TIP3   OH239771   4.978   0.032   5.754  0.0804 -0.0998  0.4511
 6119TIP3    H139772   5.014  -0.003   5.836  1.8808  1.1906  0.2921
 6119TIP3    H239773   5.025  -0.015   5.685  1.4109  1.4339  0.2388
 6120TIP3   OH239774   0.690   1.212  11.121  0.3343  0.2341  0.0269
 6120TIP3    H139775   0.783   1.220  11.102  0.1082  1.3957 -0.6587
 6120TIP3    H239776   0.649   1.282  11.071 -1.0659 -1.0727 -0.7490
 6121TIP3   OH239777   4.181   5.596  14.949  0.2499 -0.1915  0.2800
 6121TIP3    H139778   4.110   5.537  14.977 -0.7000 -1.3305 -3.8840
 6121TIP3    H239779   4.155   5.682  14.982 -1.5059 -1.0889  1.3953
 6122TIP3   OH239780   0.740   0.320   2.962  0.0338  0.6621 -0.3824
 6122TIP3    H139781   0.699   0.406   2.971  0.8906  0.8867  2.2116
 6122TIP3    H239782   0.768   0.298   3.051  0.7257 -1.8726 -1.1586
 6123TIP3   OH239783   1.058   3.048  17.382 -0.5563 -0.0849  0.1538
 6123TIP3    H139784   1.080   2.994  17.305  0.3194 -1.2012  1.1508
 6123TIP3    H239785   0.967   3.025  17.401 -1.1170  0.9610 -1.1333
 6124TIP3   OH239786   0.014   5.354  13.182 -0.3281  0.4325 -0.3711
 6124TIP3    H139787  -0.043   5.428  13.200  1.3335  1.6879 -0.1074
 6124TIP3    H239788   0.020   5.350  13.087 -0.2011  0.8042 -0.3771
 6125TIP3   OH239789   0.979   3.017  12.343  0.1817 -0.0904 -0.1908
 6125TIP3    H139790   0.945   3.106  12.351  0.6909  0.2675 -1.6024
 6125TIP3    H239791   0.987   3.003  12.248  3.1587 -0.4381  0.0126
 6126TIP3   OH239792   1.444   1.406   1.388  0.0872 -0.0574  0.3006
 6126TIP3    H139793   1.461   1.344   1.318 -0.0574  0.3191 -0.0757
 6126TIP3    H239794   1.496   1.375   1.462  0.1489 -0.5228  0.0638
 6127TIP3   OH239795   0.356   2.409  10.646 -0.2040 -0.5528 -0.0626
 6127TIP3    H139796   0.292   2.359  10.596 -1.6930  0.7329  0.4905
 6127TIP3    H239797   0.336   2.500  10.628  1.5286 -0.0966  0.0864
 6128TIP3   OH239798   0.894   1.804  11.829  0.0581 -0.1237  0.0910
 6128TIP3    H139799   0.821   1.864  11.830 -1.9695 -2.4324  1.1870
 6128TIP3    H239800   0.874   1.742  11.758  1.1719 -0.5580  0.1207
 6129TIP3   OH239801   4.879   4.865  11.629 -0.1228  0.6106  0.5508
 6129TIP3    H139802   4.922   4.842  11.712 -0.8089  1.7573  1.2471
 6129TIP3    H239803   4.816   4.933  11.653 -1.8680 -0.5572 -0.5581
 6130TIP3   OH239804   6.667   6.254  12.882  0.0580 -0.0986  0.0011
 6130TIP3    H139805   6.600   6.310  12.920 -0.0394  0.8601 -1.4933
 6130TIP3    H239806   6.749   6.286  12.920  0.1389  1.9299 -1.6950
 6131TIP3   OH239807   4.587   1.644  15.123  0.1045  0.2077 -0.5576
 6131TIP3    H139808   4.664   1.692  15.092  0.5225  0.3143  0.6096
 6131TIP3    H239809   4.525   1.712  15.150 -0.2774  0.1157 -1.1766
 6132TIP3   OH239810   6.693   5.741  12.524  0.2598 -0.1579 -0.2579
 6132TIP3    H139811   6.721   5.692  12.446  1.6762  2.3085 -1.4038
 6132TIP3    H239812   6.722   5.830  12.508 -2.0402  1.0825  1.8306
 6133TIP3   OH239813   0.486   0.027  14.208 -0.0573 -0.1796  0.3786
 6133TIP3    H139814   0.552   0.088  14.242 -1.0794  1.1259  0.0679
 6133TIP3    H239815   0.465  -0.029  14.283  1.6699 -0.8954  0.3800
 6134TIP3   OH239816   1.862   0.965   3.902  0.0481 -0.4445 -0.3326
 6134TIP3    H139817   1.853   0.974   3.807 -0.7014 -1.2232 -0.3450
 6134TIP3    H239818   1.806   1.034   3.938  0.9027  0.3263 -0.4463
 6135TIP3   OH239819   0.822   0.550  16.444  0.1668 -0.0485  0.3209
 6135TIP3    H139820   0.737   0.584  16.472  0.2105  0.2527  0.0980
 6135TIP3    H239821   0.848   0.607  16.372  0.1083 -0.7471 -0.2528
 6136TIP3   OH239822   2.033   6.174  13.636  0.0711 -0.3373 -0.3357
 6136TIP3    H139823   2.037   6.226  13.556 -0.2369 -0.6390 -0.5467
 6136TIP3    H239824   2.037   6.083  13.606  2.0472 -0.4421  0.1070
 6137TIP3   OH239825   0.123   0.590   2.346 -0.1644  0.1954  0.4179
 6137TIP3    H139826   0.097   0.678   2.372  0.6722  0.1498  1.4914
 6137TIP3    H239827   0.064   0.533   2.394  0.6499  0.1416  1.4039
 6138TIP3   OH239828   5.230   0.703   1.436 -0.1466 -0.1524 -0.3143
 6138TIP3    H139829   5.264   0.791   1.422  0.3628 -0.2492  0.2241
 6138TIP3    H239830   5.296   0.661   1.492 -0.5755 -0.7435 -0.2388
 6139TIP3   OH239831   5.420   4.688  14.327  0.3578  0.7430  1.1991
 6139TIP3    H139832   5.463   4.609  14.295  0.0849  1.0627 -0.0212
 6139TIP3    H239833   5.464   4.759  14.280 -0.8893  1.1365  0.5896
 6140TIP3   OH239834   3.554   5.032  11.311 -0.1002 -0.5203  0.5547
 6140TIP3    H139835   3.535   5.110  11.363 -0.1694  0.1267 -0.4236
 6140TIP3    H239836   3.471   4.985  11.307 -0.4946  0.2095 -0.2364
 6141TIP3   OH239837   3.976   6.622   5.718  0.4305  0.5256  0.1048
 6141TIP3    H139838   4.007   6.681   5.649  0.4858  0.8505  0.4091
 6141TIP3    H239839   3.921   6.676   5.774  0.2565  0.2234  0.2274
 6142TIP3   OH239840   0.605   4.334  11.751  0.4238 -0.5872 -0.2178
 6142TIP3    H139841   0.568   4.418  11.776 -1.5572 -1.3674 -0.2791
 6142TIP3    H239842   0.611   4.338  11.656  1.1378 -0.2208 -0.1617
 6143TIP3   OH239843   5.339   3.693   4.689 -0.5446  0.3792 -0.0547
 6143TIP3    H139844   5.299   3.776   4.717  0.1579  1.2720 -1.5655
 6143TIP3    H239845   5.264   3.636   4.670 -1.0427  0.1720  2.2251
 6144TIP3   OH239846   5.161   6.492  16.735  0.1709 -0.3496 -0.8705
 6144TIP3    H139847   5.163   6.563  16.672 -2.4589 -0.6713 -1.4493
 6144TIP3    H239848   5.072   6.457  16.728  0.2529 -1.3568  1.9710
 6145TIP3   OH239849   4.870   5.516  17.213  0.2103 -0.4181  0.2935
 6145TIP3    H139850   4.848   5.533  17.121 -0.8958 -1.1236  0.4004
 6145TIP3    H239851   4.939   5.450  17.209 -0.3227 -0.9742 -0.0456
 6146TIP3   OH239852   0.713   5.577  11.035  0.2096 -0.0872  0.4243
 6146TIP3    H139853   0.770   5.606  10.964  0.0634 -0.7379  0.0327
 6146TIP3    H239854   0.770   5.578  11.113  0.4131  0.4589  0.2758
 6147TIP3   OH239855   6.512   1.243  11.636 -0.2915 -0.5605  0.1265
 6147TIP3    H139856   6.562   1.238  11.555 -0.3862 -0.8590  0.0865
 6147TIP3    H239857   6.500   1.337  11.651 -0.5054 -0.5092 -0.3465
 6148TIP3   OH239858   0.084   0.832  12.059  1.0464  0.4571 -0.7244
 6148TIP3    H139859   0.126   0.750  12.083 -0.0538 -0.0464 -0.4629
 6148TIP3    H239860   0.004   0.806  12.013 -0.7008  1.2805  1.6591
 6149TIP3   OH239861   2.556   1.755  13.048  0.4337  0.6001 -0.2368
 6149TIP3    H139862   2.549   1.669  13.007 -0.4563  0.3399  0.4359
 6149TIP3    H239863   2.609   1.807  12.986  0.4633 -0.2398 -0.9338
 6150TIP3   OH239864   4.946   3.056   4.515  0.1538 -0.5311  0.2608
 6150TIP3    H139865   5.018   3.029   4.571 -1.0158 -1.7501  1.2585
 6150TIP3    H239866   4.924   2.977   4.466 -0.9124 -0.3748  0.4630
 6151TIP3   OH239867   3.627   1.918  11.960 -0.6072  0.5054  0.6604
 6151TIP3    H139868   3.648   1.877  11.876  0.1167  1.1336  0.5296
 6151TIP3    H239869   3.564   1.858  12.001  0.3324 -0.6716  0.4257
 6152TIP3   OH239870   0.484   1.778   5.369  0.1604  0.3392 -0.1197
 6152TIP3    H139871   0.480   1.819   5.455 -0.6468  0.0604 -0.0252
 6152TIP3    H239872   0.520   1.691   5.386  1.7488  0.9204 -0.3039
 6153TIP3   OH239873   6.387   4.484  12.247 -0.6865 -0.1944  0.1820
 6153TIP3    H139874   6.427   4.411  12.199  0.9164  0.7297  0.0352
 6153TIP3    H239875   6.435   4.486  12.330  0.0265  1.3210 -0.2325
 6154TIP3   OH239876   3.835   0.082  17.086 -0.3232 -0.4557  0.5334
 6154TIP3    H139877   3.914   0.132  17.107 -0.1249 -0.5567  0.0446
 6154TIP3    H239878   3.836   0.009  17.148  1.0055 -1.5469 -0.6888
 6155TIP3   OH239879   1.503   5.287  11.975 -0.1540 -0.1129  0.1374
 6155TIP3    H139880   1.545   5.213  11.931 -1.0861  0.3237 -1.5752
 6155TIP3    H239881   1.537   5.364  11.929 -0.4723  0.4245  0.7947
 6156TIP3   OH239882   0.983   4.024  12.741 -0.2853 -0.0501 -0.1899
 6156TIP3    H139883   0.993   4.081  12.665  0.3022  3.3752  2.1924
 6156TIP3    H239884   1.031   3.945  12.719  1.7124  1.6685 -2.5614
 6157TIP3   OH239885   3.958   3.374  13.547  0.2866  0.3710  0.5234
 6157TIP3    H139886   4.011   3.348  13.622  0.8372  0.2429  0.0893
 6157TIP3    H239887   4.002   3.450  13.511  0.7126 -0.3046 -0.4110
 6158TIP3   OH239888   2.821   6.101   2.748  0.1216 -0.0367  0.0327
 6158TIP3    H139889   2.802   6.195   2.752 -1.5016 -0.3242 -0.2986
 6158TIP3    H239890   2.799   6.075   2.659  0.2795 -0.7875  0.2052
 6159TIP3   OH239891   3.490   0.326   4.442  0.0778  0.2098  0.2713
 6159TIP3    H139892   3.472   0.262   4.373  0.4133  1.0239 -0.5968
 6159TIP3    H239893   3.412   0.324   4.498 -0.5097  0.0395 -0.5398
 6160TIP3   OH239894   3.189   1.581  14.704  0.4376  0.5424 -0.6329
 6160TIP3    H139895   3.210   1.522  14.631  1.3370  0.0712 -0.0109
 6160TIP3    H239896   3.105   1.621  14.679  0.3788 -0.1425 -1.5907
 6161TIP3   OH239897   5.335   5.265  13.184  0.2136 -0.2090 -0.2245
 6161TIP3    H139898   5.418   5.262  13.232  0.1023  0.7616  0.0559
 6161TIP3    H239899   5.351   5.328  13.114  0.1126 -0.9969 -0.9669
 6162TIP3   OH239900   6.690   3.222   2.942  0.1818 -0.1115  0.2714
 6162TIP3    H139901   6.639   3.294   2.905  0.1069 -0.7254 -0.8480
 6162TIP3    H239902   6.626   3.155   2.964  0.4628 -0.8040 -0.9478
 6163TIP3   OH239903   3.539   2.308   2.463 -0.0396 -0.4331 -0.1220
 6163TIP3    H139904   3.445   2.298   2.449 -0.3302 -0.2441  1.4333
 6163TIP3    H239905   3.566   2.226   2.504  0.2255 -0.0504  0.4847
 6164TIP3   OH239906   6.141   0.944  14.647  0.3127  0.0044 -0.1383
 6164TIP3    H139907   6.110   1.032  14.621  1.1679  0.1731 -0.6196
 6164TIP3    H239908   6.109   0.887  14.577  1.7926  0.3130 -1.1088
 6165TIP3   OH239909   2.323   5.572   4.301  0.5461  0.1824  0.0256
 6165TIP3    H139910   2.376   5.630   4.246 -0.1410  0.2090 -0.6225
 6165TIP3    H239911   2.275   5.631   4.358  1.0868  0.1654  0.5068
 6166TIP3   OH239912   1.034   4.317  14.181  0.5001 -0.3665 -0.9608
 6166TIP3    H139913   1.029   4.222  14.172 -0.6149 -0.5119  0.7094
 6166TIP3    H239914   1.119   4.340  14.144  1.1180 -2.1001 -0.7232
 6167TIP3   OH239915   0.332   0.733   1.974  0.7410 -0.3506 -0.2465
 6167TIP3    H139916   0.349   0.670   1.904  1.3349  2.1379 -2.5177
 6167TIP3    H239917   0.419   0.752   2.010  0.4134 -1.8477  1.5242
 6168TIP3   OH239918   5.231   0.401   2.687  0.1417 -0.2899 -0.1898
 6168TIP3    H139919   5.264   0.368   2.770 -0.2475 -0.2627 -0.0229
 6168TIP3    H239920   5.138   0.380   2.688  0.0579  0.0608 -0.4498
 6169TIP3   OH239921   5.857   2.280   5.005 -0.9033  0.1251  0.5044
 6169TIP3    H139922   5.773   2.262   4.962 -0.3430 -0.1420 -0.5270
 6169TIP3    H239923   5.841   2.263   5.098 -1.3774 -2.3081  0.0612
 6170TIP3   OH239924   4.617   6.139   2.190 -0.0276  0.1334  0.2452
 6170TIP3    H139925   4.703   6.156   2.149 -0.3344 -0.3291 -0.6264
 6170TIP3    H239926   4.632   6.062   2.245  0.4026  0.7889  1.0647
 6171TIP3   OH239927   2.255   0.089   1.866  0.0861  0.2783  0.4075
 6171TIP3    H139928   2.229   0.156   1.802 -1.9541 -0.1988  0.6680
 6171TIP3    H239929   2.304   0.137   1.932 -0.3834  1.3193  0.0266
 6172TIP3   OH239930   1.976   4.421  15.219  0.1785 -0.4896 -0.1478
 6172TIP3    H139931   1.886   4.408  15.190  0.0237 -0.3364  0.2504
 6172TIP3    H239932   1.978   4.383  15.307 -0.2509  1.9793  1.0072
 6173TIP3   OH239933   0.323   5.872   1.382 -0.0234  0.7628  0.1399
 6173TIP3    H139934   0.401   5.823   1.407  0.7393  2.0194  0.2984
 6173TIP3    H239935   0.336   5.959   1.420 -1.3296  1.1076 -0.1535
 6174TIP3   OH239936   5.502   6.056   2.832  0.4738  0.2353 -0.0092
 6174TIP3    H139937   5.564   6.119   2.795  0.8123  0.3146  0.6746
 6174TIP3    H239938   5.512   5.978   2.777  1.2255  0.2305  0.1140
 6175TIP3   OH239939   1.241   6.710  15.594  0.6975 -0.4668  0.0319
 6175TIP3    H139940   1.157   6.671  15.618 -0.7456  2.2208 -0.2133
 6175TIP3    H239941   1.232   6.732  15.501  0.3231  2.6990  0.7062
 6176TIP3   OH239942   2.790   5.059   6.390  0.0891  0.9721 -0.0120
 6176TIP3    H139943   2.784   4.988   6.455  2.8665 -0.8680 -1.5402
 6176TIP3    H239944   2.833   5.130   6.437  1.5043 -0.1023  0.4018
 6177TIP3   OH239945   6.142   3.639   5.733  0.1877  0.6945  0.1262
 6177TIP3    H139946   6.160   3.689   5.812 -1.4258 -0.2119  1.1241
 6177TIP3    H239947   6.119   3.705   5.667 -1.6811  1.3424  1.3493
 6178TIP3   OH239948   6.248   5.971   5.107 -0.4372 -0.0392  0.1105
 6178TIP3    H139949   6.246   5.906   5.177 -1.3412 -1.9567 -1.5775
 6178TIP3    H239950   6.305   5.932   5.040 -1.5023  0.5832 -1.2041
 6179TIP3   OH239951   4.898   0.744  15.165  0.0634  0.2574 -0.0590
 6179TIP3    H139952   4.865   0.834  15.174  0.8562  0.6647 -0.9485
 6179TIP3    H239953   4.987   0.747  15.201 -0.1442 -0.3380  0.5114
 6180TIP3   OH239954   4.029   3.973   4.042  0.3079  0.7114 -0.5130
 6180TIP3    H139955   4.093   4.044   4.039 -0.4461  1.3889 -0.8303
 6180TIP3    H239956   3.944   4.016   4.031 -0.2398 -0.1336  0.1919
 6181TIP3   OH239957   0.880   5.504   2.419 -0.0049 -0.5871  0.2208
 6181TIP3    H139958   0.842   5.419   2.441 -0.1123 -0.3911  0.8034
 6181TIP3    H239959   0.931   5.528   2.497  2.1646 -1.3072 -0.8934
 6182TIP3   OH239960   4.905   4.030  15.368 -0.3733 -0.1225  0.2143
 6182TIP3    H139961   4.845   4.066  15.303 -0.0108  0.4263  0.1795
 6182TIP3    H239962   4.848   3.988  15.432 -0.8126  0.5564  0.2817
 6183TIP3   OH239963   5.863   5.572   6.060  0.1472 -0.0223 -0.6407
 6183TIP3    H139964   5.845   5.648   6.115  0.0659  0.1068 -0.8449
 6183TIP3    H239965   5.851   5.497   6.118 -0.8208  0.0675 -0.7072
 6184TIP3   OH239966   2.712   6.029  15.232  0.0472  0.3948 -0.0109
 6184TIP3    H139967   2.785   6.074  15.275  1.0760  2.4694 -3.5778
 6184TIP3    H239968   2.731   5.936  15.244  2.4068  0.8797  0.5544
 6185TIP3   OH239969   1.516   0.424   1.700 -0.0078 -0.1200  0.4418
 6185TIP3    H139970   1.579   0.489   1.668  2.5162 -2.8850 -0.6700
 6185TIP3    H239971   1.460   0.473   1.760  3.1731  2.5946  1.5348
 6186TIP3   OH239972   6.357   0.651  17.309 -0.4101  0.0671  0.4352
 6186TIP3    H139973   6.394   0.666  17.396  0.0974  0.6823  0.1262
 6186TIP3    H239974   6.270   0.614  17.325  0.1597 -1.0151  1.1901
 6187TIP3   OH239975   0.803   4.728   3.718  0.4272 -0.0663 -0.0908
 6187TIP3    H139976   0.745   4.698   3.648  0.3294  0.6780 -0.3392
 6187TIP3    H239977   0.808   4.654   3.778  0.5620 -0.7444 -0.9124
 6188TIP3   OH239978   0.071   4.385   2.652  0.3880 -0.0959 -0.1870
 6188TIP3    H139979   0.024   4.373   2.569  0.1385 -0.9109  0.0671
 6188TIP3    H239980   0.057   4.303   2.700 -0.7280  0.9178  1.3058
 6189TIP3   OH239981   1.225   0.727  15.115  0.1691  0.5691  0.4203
 6189TIP3    H139982   1.219   0.726  15.019  2.6800  1.1812  0.1913
 6189TIP3    H239983   1.261   0.641  15.137  0.6000  0.8323  0.7363
 6190TIP3   OH239984   6.211   4.567  12.519 -0.6834 -0.3903  0.5495
 6190TIP3    H139985   6.257   4.647  12.545 -2.1722  0.8672 -0.4940
 6190TIP3    H239986   6.281   4.505  12.498  0.5231  0.7886  0.9403
 6191TIP3   OH239987   1.305   3.292   3.749  0.4256  0.1499 -0.0976
 6191TIP3    H139988   1.298   3.239   3.670 -2.5117 -1.9962  1.3988
 6191TIP3    H239989   1.387   3.264   3.790  1.6342  0.8014 -1.9283
 6192TIP3   OH239990   1.879   0.247  15.584  0.7962  0.2445 -0.0555
 6192TIP3    H139991   1.876   0.343  15.587  1.7424  0.2515  1.1884
 6192TIP3    H239992   1.909   0.221  15.671  0.4495 -1.1944 -0.3486
 6193TIP3   OH239993   0.889   0.436  16.704 -0.3006 -0.4931  0.1384
 6193TIP3    H139994   0.898   0.341  16.709 -0.6166 -0.4967  0.6392
 6193TIP3    H239995   0.845   0.451  16.620 -1.1970 -0.8579  0.5338
 6194TIP3   OH239996   5.615   1.677  15.660  0.1521  0.1227 -0.4078
 6194TIP3    H139997   5.534   1.727  15.649 -0.1424 -0.0901  0.6450
 6194TIP3    H239998   5.648   1.703  15.746 -0.1225 -1.6049  0.2824
 6195TIP3   OH239999   2.152   5.719   2.951 -0.0883 -0.2359  0.4491
 6195TIP3    H140000   2.176   5.704   2.860 -1.3527 -2.5079  0.4100
 6195TIP3    H240001   2.188   5.644   2.999 -0.8920  0.0304  1.5231
 6196TIP3   OH240002   0.524   2.051  13.364 -0.1074  0.2925 -0.3766
 6196TIP3    H140003   0.471   1.979  13.396 -0.4266 -0.6216 -2.7451
 6196TIP3    H240004   0.557   2.020  13.279  1.1000  2.3022 -0.6977
 6197TIP3   OH240005   3.260   2.219   2.452  0.2236 -0.4111  0.0553
 6197TIP3    H140006   3.191   2.284   2.464 -0.5970 -1.3339  0.4643
 6197TIP3    H240007   3.251   2.192   2.360 -0.4143 -1.0186  0.2890
 6198TIP3   OH240008   0.943   2.361  12.541 -0.5303 -0.1490  0.2378
 6198TIP3    H140009   0.951   2.350  12.446 -0.8251  0.0040  0.1938
 6198TIP3    H240010   0.932   2.456  12.553  0.1232 -0.0989  0.4704
 6199TIP3   OH240011   4.029   2.266  11.781  0.3171 -0.2925 -0.3326
 6199TIP3    H140012   4.098   2.316  11.826 -0.2133  3.1963 -2.9884
 6199TIP3    H240013   3.948   2.295  11.822  0.1208 -0.8233 -0.3369
 6200TIP3   OH240014   6.403   6.355  11.789  0.7848  0.4130  0.2750
 6200TIP3    H140015   6.475   6.376  11.730 -0.0185 -1.1325 -1.3367
 6200TIP3    H240016   6.324   6.380  11.740  0.1009 -0.9206  0.6458
 6201TIP3   OH240017   5.598   2.810  17.224 -0.8503  0.0894  0.2532
 6201TIP3    H140018   5.625   2.822  17.315 -1.9240  0.6830  0.5019
 6201TIP3    H240019   5.669   2.759  17.185  0.6412  1.5736  0.9017
 6202TIP3   OH240020   2.713   0.073  16.297  0.1627  0.2309  0.3426
 6202TIP3    H140021   2.733   0.105  16.209  0.1362  0.4358  0.4109
 6202TIP3    H240022   2.793   0.086  16.347  0.5406 -0.9368  0.0519
 6203TIP3   OH240023   3.339   6.508  15.355 -0.0014  0.0771 -0.0441
 6203TIP3    H140024   3.416   6.491  15.408  1.1469 -1.1076 -1.9697
 6203TIP3    H240025   3.297   6.422  15.347 -1.0678  0.5523  0.2728
 6204TIP3   OH240026   2.070   5.177   1.669  0.5533 -0.2905 -0.6411
 6204TIP3    H140027   2.063   5.090   1.630  1.4258 -0.8458  0.3724
 6204TIP3    H240028   2.129   5.225   1.611 -1.4342  0.3154 -2.2882
 6205TIP3   OH240029   5.446   5.828  10.818 -0.6615 -0.7138  0.1496
 6205TIP3    H140030   5.466   5.921  10.806  0.2890 -1.1494 -2.1767
 6205TIP3    H240031   5.357   5.817  10.784 -0.9594 -0.5776  0.8779
 6206TIP3   OH240032   0.734   0.995   5.916 -0.5761 -0.5496  0.2018
 6206TIP3    H140033   0.688   0.957   5.990 -1.5318 -0.4023 -0.2971
 6206TIP3    H240034   0.827   0.982   5.936 -0.8428 -2.2193  0.5182
 6207TIP3   OH240035   2.960   2.286   4.595  0.3845  0.6012  0.5651
 6207TIP3    H140036   2.902   2.331   4.534  0.2406 -0.9844 -0.5171
 6207TIP3    H240037   2.980   2.352   4.662 -0.4865  1.9885 -0.4883
 6208TIP3   OH240038   3.493   4.721  15.744 -0.5392  0.1742  0.6018
 6208TIP3    H140039   3.481   4.690  15.655  1.1790  0.7573  0.1313
 6208TIP3    H240040   3.447   4.805  15.747  0.0029  0.5079  0.0130
 6209TIP3   OH240041   1.633   1.725   1.627  1.1095 -0.6630  0.1351
 6209TIP3    H140042   1.538   1.737   1.618  0.8491 -2.1507  0.5651
 6209TIP3    H240043   1.663   1.705   1.538  1.0875  0.1535 -0.0635
 6210TIP3   OH240044   1.695   4.522   1.507  0.2114 -0.0114 -0.4268
 6210TIP3    H140045   1.683   4.427   1.517  0.0459 -0.0756 -1.1209
 6210TIP3    H240046   1.697   4.556   1.596  1.7996 -0.8515 -0.1088
 6211TIP3   OH240047   4.857   1.263  11.619 -0.0528  0.5981  0.2216
 6211TIP3    H140048   4.892   1.261  11.708 -1.2264  0.5947  0.7025
 6211TIP3    H240049   4.891   1.345  11.582  0.8199  0.3718  0.5075
 6212TIP3   OH240050   2.128   6.119  14.952  0.1587 -0.3310 -0.5664
 6212TIP3    H140051   2.113   6.116  14.857  0.7188 -0.5859 -0.6482
 6212TIP3    H240052   2.047   6.084  14.990 -1.6993  3.2013 -0.7805
 6213TIP3   OH240053   6.448   3.415   0.732 -0.4126  0.2979 -0.3514
 6213TIP3    H140054   6.495   3.347   0.684  0.8393  1.0877 -0.2692
 6213TIP3    H240055   6.430   3.377   0.818  2.1086  0.7519  0.4384
 6214TIP3   OH240056   6.340   6.634   4.338  0.3537 -0.0629 -0.0549
 6214TIP3    H140057   6.325   6.590   4.254  0.7272 -0.8397  0.2773
 6214TIP3    H240058   6.364   6.564   4.398  0.5260  0.5430  0.5977
 6215TIP3   OH240059   1.578   4.018  16.743  0.2168  0.3443  0.5750
 6215TIP3    H140060   1.499   3.964  16.743  0.5027 -0.0866 -0.0494
 6215TIP3    H240061   1.639   3.970  16.799  0.5990 -0.1923 -0.2758
 6216TIP3   OH240062   6.698   3.414  11.778 -0.3323 -0.4665 -0.1651
 6216TIP3    H140063   6.636   3.430  11.707 -0.6543  0.7528  0.3664
 6216TIP3    H240064   6.724   3.322  11.767  0.0816 -0.1431 -2.2006
 6217TIP3   OH240065   5.943   0.376   4.068  0.1288  0.4875 -0.4612
 6217TIP3    H140066   5.922   0.301   4.123  0.1982 -0.6245 -1.8778
 6217TIP3    H240067   6.009   0.344   4.006 -1.8073  0.8387 -2.8865
 6218TIP3   OH240068   2.638   0.946   4.937 -0.8240  0.1964  0.0791
 6218TIP3    H140069   2.728   0.967   4.914 -0.6241 -0.0073  0.6624
 6218TIP3    H240070   2.645   0.891   5.015 -1.4846  0.9836  0.7154
 6219TIP3   OH240071   3.967   6.581   0.115 -0.0764  0.1986 -0.1238
 6219TIP3    H140072   3.878   6.594   0.084 -0.2916  0.3034  0.5161
 6219TIP3    H240073   4.022   6.599   0.039 -0.6555 -1.3581 -0.9612
 6220TIP3   OH240074   1.947   3.442   3.944 -0.1649 -0.1503 -0.0344
 6220TIP3    H140075   1.928   3.534   3.925  0.4263  0.0015  0.0955
 6220TIP3    H240076   2.036   3.442   3.978 -0.2799 -0.7318  0.2907
 6221TIP3   OH240077   0.048   6.648   4.975 -0.2936 -0.3939 -0.0669
 6221TIP3    H140078   0.100   6.693   5.040 -0.0770  0.4270 -0.7939
 6221TIP3    H240079   0.111   6.613   4.913 -0.5669  0.2470 -0.7249
 6222TIP3   OH240080   0.941   1.597  15.756 -0.2443 -0.3548  0.2693
 6222TIP3    H140081   1.014   1.607  15.816  0.3838 -2.6058 -0.0455
 6222TIP3    H240082   0.960   1.518  15.706 -0.3629  1.7320 -3.4707
 6223TIP3   OH240083   3.492   5.078   2.785 -0.1564 -0.0113  0.4078
 6223TIP3    H140084   3.410   5.040   2.752 -0.6813  0.4032  1.2192
 6223TIP3    H240085   3.539   5.003   2.821 -0.0622 -0.2911 -0.2725
 6224TIP3   OH240086   5.943   1.961  17.028 -0.1672  0.0109  0.7767
 6224TIP3    H140087   5.903   1.892  16.975  0.1215  0.6186 -0.2451
 6224TIP3    H240088   6.037   1.944  17.024 -0.0989  0.4137  0.5747
 6225TIP3   OH240089   5.818   1.599  17.399  0.1827 -0.1465 -0.2390
 6225TIP3    H140090   5.773   1.669  17.446  0.2544  0.7833 -1.5056
 6225TIP3    H240091   5.907   1.631  17.386  0.3847 -0.7288 -0.3269
 6226TIP3   OH240092   2.810   5.600  17.270 -0.1419  0.3025 -0.1234
 6226TIP3    H140093   2.873   5.672  17.277  0.0898  0.4262 -2.5337
 6226TIP3    H240094   2.862   5.525  17.243 -0.6205 -0.3879  0.8331
 6227TIP3   OH240095   0.586   5.857  16.060 -0.3136  0.1277 -0.0554
 6227TIP3    H140096   0.540   5.860  15.976  0.2658  1.5864 -0.3441
 6227TIP3    H240097   0.670   5.898  16.043 -0.0584  0.1469  1.1693
 6228TIP3   OH240098   3.671   6.261   1.924 -0.9031  0.0320  0.2107
 6228TIP3    H140099   3.686   6.284   2.016  0.7898 -0.2338  0.0328
 6228TIP3    H240100   3.633   6.174   1.927  1.1946 -0.9267  0.6428
 6229TIP3   OH240101   4.158   3.960  15.623  0.5313 -0.3910 -0.6107
 6229TIP3    H140102   4.111   3.961  15.540 -2.2396  0.4622  0.8468
 6229TIP3    H240103   4.091   3.942  15.688  2.6524 -1.2673  1.4699
 6230TIP3   OH240104   2.784   4.015  11.419 -0.6391  0.2089 -0.1504
 6230TIP3    H140105   2.737   3.996  11.500 -0.0520 -0.3957  0.0667
 6230TIP3    H240106   2.779   4.110  11.410 -1.3907  0.2103  0.1683
 6231TIP3   OH240107   3.772   6.385   1.675  0.4235 -0.1414 -0.0592
 6231TIP3    H140108   3.746   6.355   1.762  0.2957 -0.5503 -0.2354
 6231TIP3    H240109   3.842   6.449   1.692 -1.4622  1.8942  0.4785
 6232TIP3   OH240110   2.119   3.915   0.572 -0.4769  0.0946  0.5841
 6232TIP3    H140111   2.059   3.841   0.565 -2.2195  1.1205  3.2113
 6232TIP3    H240112   2.082   3.970   0.641  0.5096  3.6682 -1.4488
 6233TIP3   OH240113   3.826   1.851  15.932 -1.0979 -0.2208  0.1154
 6233TIP3    H140114   3.854   1.759  15.928  0.0460  0.0372  1.3978
 6233TIP3    H240115   3.825   1.871  16.026 -1.6292  0.9930 -0.1347
 6234TIP3   OH240116   1.954   2.965   5.397  0.1559  0.1767 -0.5063
 6234TIP3    H140117   1.921   2.902   5.461  2.8669  1.2597  2.1953
 6234TIP3    H240118   1.879   3.023   5.381 -1.1151 -1.1521  0.3018
 6235TIP3   OH240119   2.277   5.102   2.177 -0.7558 -0.0770 -0.0661
 6235TIP3    H140120   2.289   5.195   2.193 -0.9448  0.2618 -1.7141
 6235TIP3    H240121   2.349   5.078   2.118 -1.1292 -0.8011 -0.2421
 6236TIP3   OH240122   2.792   2.316   0.400  0.1465  0.2826 -0.6966
 6236TIP3    H140123   2.782   2.409   0.419  0.0710  0.3868 -1.2179
 6236TIP3    H240124   2.872   2.291   0.446 -0.3590  0.3718  0.2495
 6237TIP3   OH240125   2.746   2.253  12.108 -0.0302 -0.1390 -0.1634
 6237TIP3    H140126   2.703   2.264  12.193  1.0488  1.0295  0.2684
 6237TIP3    H240127   2.684   2.288  12.045 -0.9159 -1.1707  0.0945
 6238TIP3   OH240128   1.262   1.595  15.080  0.0750 -0.2743  0.3236
 6238TIP3    H140129   1.287   1.667  15.137 -0.8034  0.6999 -0.4866
 6238TIP3    H240130   1.264   1.518  15.137 -0.4189  0.6031  1.5806
 6239TIP3   OH240131   4.627   1.329  14.993  0.0488 -0.3140  0.1239
 6239TIP3    H140132   4.631   1.422  14.973  0.3476 -0.3223  0.1285
 6239TIP3    H240133   4.719   1.302  14.999 -0.0311 -0.6844 -0.2367
 6240TIP3   OH240134   4.056   4.079  13.270  0.3320 -0.0777  0.2816
 6240TIP3    H140135   3.986   4.015  13.253 -0.6626  0.6001  1.7019
 6240TIP3    H240136   4.131   4.025  13.294 -0.0384 -0.7741 -0.0725
 6241TIP3   OH240137   3.716   1.647  14.299  0.1650  0.4690  0.4893
 6241TIP3    H140138   3.782   1.702  14.257 -0.8453  0.9353 -0.5506
 6241TIP3    H240139   3.636   1.662  14.249 -1.0442  0.7899  2.3924
 6242TIP3   OH240140   3.424   4.080  14.243 -0.0517  0.1440  0.3201
 6242TIP3    H140141   3.411   4.104  14.335 -3.3178  0.2482 -0.0353
 6242TIP3    H240142   3.442   4.164  14.200  0.4763  0.2409  0.7140
 6243TIP3   OH240143   3.096   0.604   2.922 -0.1777 -0.1138 -0.1439
 6243TIP3    H140144   3.026   0.548   2.887 -0.8333  0.0619  0.8426
 6243TIP3    H240145   3.174   0.548   2.921 -0.2356 -0.2003 -1.5873
 6244TIP3   OH240146   1.450   4.218  17.340 -0.4088 -0.2178  0.3214
 6244TIP3    H140147   1.356   4.218  17.358 -0.4048 -0.2774  0.3437
 6244TIP3    H240148   1.456   4.205  17.246 -0.4123 -0.7866  0.3935
 6245TIP3   OH240149   3.832   0.975  13.416  0.4203  0.0090 -0.0297
 6245TIP3    H140150   3.810   0.959  13.508 -1.7789 -1.8731 -0.7793
 6245TIP3    H240151   3.761   1.030  13.384  1.1697  0.6484 -0.6378
 6246TIP3   OH240152   2.108   0.200   3.569  0.1960  0.1351 -0.4920
 6246TIP3    H140153   2.138   0.150   3.645 -2.1845 -0.5511  0.0642
 6246TIP3    H240154   2.130   0.291   3.589 -0.7994  0.0176  1.2429
 6247TIP3   OH240155   3.465   3.315   2.637 -0.2451 -0.1987 -0.2662
 6247TIP3    H140156   3.457   3.396   2.688  1.1647 -0.1588 -0.0583
 6247TIP3    H240157   3.508   3.254   2.697  0.2426 -0.5606 -0.9762
 6248TIP3   OH240158   6.254   0.924  15.631  0.5870  0.4651  0.6985
 6248TIP3    H140159   6.270   0.933  15.537 -0.6592  0.4396  0.4750
 6248TIP3    H240160   6.342   0.929  15.670  1.1432  0.2765 -0.4680
 6249TIP3   OH240161   1.294   1.636   6.124  0.4139  0.0220  0.4969
 6249TIP3    H140162   1.306   1.716   6.071 -1.2126 -0.6592 -1.0130
 6249TIP3    H240163   1.383   1.603   6.138  0.9825  0.9270 -0.7523
 6250TIP3   OH240164   1.372   3.009   5.199  0.4367 -1.0608 -0.4791
 6250TIP3    H140165   1.349   3.060   5.122 -0.3482 -1.9303 -0.8394
 6250TIP3    H240166   1.323   3.050   5.271  1.7015  0.1712 -0.2912
 6251TIP3   OH240167   2.279   0.357  15.572 -0.4024  0.1637 -0.1817
 6251TIP3    H140168   2.325   0.437  15.547 -0.0521 -0.2431 -0.8631
 6251TIP3    H240169   2.348   0.292  15.583 -0.6158  0.1397  1.1321
 6252TIP3   OH240170   1.210   1.422  15.514  0.0249 -0.0678 -0.2656
 6252TIP3    H140171   1.192   1.510  15.548  0.7700 -0.0769  0.1671
 6252TIP3    H240172   1.217   1.368  15.592  0.6030 -0.3144 -0.4896
 6253TIP3   OH240173   3.464   4.308   4.377  0.1265  0.4439 -0.0565
 6253TIP3    H140174   3.416   4.275   4.301  2.1089  0.3165 -1.3475
 6253TIP3    H240175   3.459   4.403   4.369 -1.0363  0.4599  0.6153
 6254TIP3   OH240176   4.229   6.531  12.108 -0.0057  0.5915  0.0323
 6254TIP3    H140177   4.235   6.536  12.013 -2.0129  0.8890 -0.1331
 6254TIP3    H240178   4.312   6.494  12.136 -0.5119 -2.4469 -2.0667
 6255TIP3   OH240179   5.514   2.519   3.969  0.2429 -0.0726 -0.3502
 6255TIP3    H140180   5.463   2.439   3.955  0.6460 -0.3012 -0.5255
 6255TIP3    H240181   5.603   2.488   3.987  0.3342  0.3270 -0.1020
 6256TIP3   OH240182   2.698   6.400  11.972 -0.1615 -0.0345  0.5188
 6256TIP3    H140183   2.685   6.321  11.919 -0.2442  0.3266 -0.0163
 6256TIP3    H240184   2.760   6.374  12.039 -0.3742 -0.6212  0.4987
 6257TIP3   OH240185   4.442   6.443  12.541 -0.5164  0.0052  0.5631
 6257TIP3    H140186   4.488   6.495  12.474 -0.9204  1.7509  1.5680
 6257TIP3    H240187   4.507   6.380  12.572  0.0471 -0.0203 -0.6103
 6258TIP3   OH240188   0.185   6.413   0.334  0.1484  0.1813  0.2533
 6258TIP3    H140189   0.209   6.506   0.332  2.0369 -0.1598  2.3915
 6258TIP3    H240190   0.233   6.375   0.260  1.2094  0.5658  0.7246
 6259TIP3   OH240191   5.236   5.246  14.698  0.1005 -0.3417 -0.0704
 6259TIP3    H140192   5.218   5.338  14.717 -1.8706 -0.5961 -0.4433
 6259TIP3    H240193   5.329   5.235  14.716  0.0215  1.3097  1.6239
 6260TIP3   OH240194   1.586   0.120   2.589 -0.0875 -0.4194  0.4526
 6260TIP3    H140195   1.594   0.201   2.538 -1.3396  0.4007  1.5143
 6260TIP3    H240196   1.493   0.110   2.604  0.1471 -1.4690  1.2992
 6261TIP3   OH240197   6.106   5.980   4.448  0.4167  0.1580 -0.1395
 6261TIP3    H140198   6.173   6.048   4.453  1.6049 -0.9617 -0.1513
 6261TIP3    H240199   6.102   5.957   4.355 -0.3828  0.5795 -0.2183
 6262TIP3   OH240200   6.360   2.479   5.231  0.4183  0.0363 -0.2131
 6262TIP3    H140201   6.328   2.496   5.320 -0.9855  1.9790 -1.0121
 6262TIP3    H240202   6.434   2.420   5.243 -0.4448 -0.6867  2.1424
 6263TIP3   OH240203   3.285   5.805   2.372 -0.3635  0.1567 -0.1269
 6263TIP3    H140204   3.227   5.830   2.301  1.6500  0.5909 -1.7068
 6263TIP3    H240205   3.369   5.846   2.351  1.7732 -3.7597 -0.2311
 6264TIP3   OH240206   5.182   0.166  15.563  0.2753  0.5154 -0.2378
 6264TIP3    H140207   5.167   0.226  15.637  0.3859  0.4068 -0.1260
 6264TIP3    H240208   5.266   0.124  15.584 -0.4593 -0.7030  0.3929
 6265TIP3   OH240209   0.104   4.289  16.155  0.7035  0.2865  0.5172
 6265TIP3    H140210   0.188   4.304  16.197  1.4051 -1.3586 -0.1946
 6265TIP3    H240211   0.118   4.211  16.100  0.1422  2.7472 -3.5662
 6266TIP3   OH240212   1.073   4.852   4.479  0.3021 -0.0562  0.0010
 6266TIP3    H140213   1.166   4.831   4.486  0.5864  0.9551 -0.6777
 6266TIP3    H240214   1.057   4.861   4.385 -0.8755 -1.9012 -0.0303
 6267TIP3   OH240215   5.393   0.040  15.705  0.0073  0.3399  0.1345
 6267TIP3    H140216   5.472   0.092  15.720 -0.7118  1.7652 -0.7752
 6267TIP3    H240217   5.425  -0.042  15.667  1.1051  0.4138  0.8380
 6268TIP3   OH240218   0.925   4.686  16.410  0.0435  0.0615 -0.3089
 6268TIP3    H140219   0.903   4.604  16.366 -0.7760  0.6656 -1.0629
 6268TIP3    H240220   1.002   4.719  16.362  0.4140 -0.2863  0.0378
 6269TIP3   OH240221   0.000   6.689   3.174 -0.4201 -0.2023 -0.3432
 6269TIP3    H140222  -0.006   6.779   3.145  0.0654 -0.2278 -0.5317
 6269TIP3    H240223  -0.059   6.640   3.116 -1.0729  0.0682  0.0883
 6270TIP3   OH240224   0.718   3.992  12.063 -0.0547  0.1185 -0.2306
 6270TIP3    H140225   0.632   3.958  12.089 -0.9751  3.2181  1.2766
 6270TIP3    H240226   0.772   3.984  12.142  0.4292 -0.0166 -0.5724
 6271TIP3   OH240227   1.195   3.443   2.966 -0.0468 -0.1376  0.0238
 6271TIP3    H140228   1.143   3.366   2.988  0.1697 -0.2272  0.2177
 6271TIP3    H240229   1.281   3.427   3.004 -0.2126  0.5304  0.7100
 6272TIP3   OH240230   0.537   5.931  11.797  0.1487 -0.3189 -0.1733
 6272TIP3    H140231   0.621   5.886  11.790  0.1132 -0.5201  0.5356
 6272TIP3    H240232   0.539   5.969  11.885 -1.4813 -2.3644  0.8198
 6273TIP3   OH240233   4.772   0.864   0.780 -0.3796  0.3481  0.1353
 6273TIP3    H140234   4.777   0.776   0.818  2.4236  1.5860  3.2090
 6273TIP3    H240235   4.702   0.907   0.828 -0.4353  0.3401  0.0602
 6274TIP3   OH240236   5.038   2.465   6.580  0.0208 -0.3828  0.3025
 6274TIP3    H140237   5.036   2.389   6.639 -0.1884 -1.7115 -1.3586
 6274TIP3    H240238   4.970   2.448   6.516  0.1780  1.0858 -0.3010
 6275TIP3   OH240239   2.403   3.958   3.585 -0.0350 -0.4848 -0.2498
 6275TIP3    H140240   2.493   3.989   3.595 -0.2832  0.4177 -0.6554
 6275TIP3    H240241   2.356   4.001   3.657 -0.5510  0.8197 -1.3163
 6276TIP3   OH240242   5.348   6.300   1.329  0.5268  0.0925  1.0406
 6276TIP3    H140243   5.408   6.264   1.264  1.3794  3.2018 -0.0751
 6276TIP3    H240244   5.404   6.338   1.396 -0.1708  1.5847  0.8332
 6277TIP3   OH240245   6.019   6.488  13.293  0.2153 -0.5041  0.1104
 6277TIP3    H140246   5.939   6.503  13.243  0.0977  0.4560  0.5602
 6277TIP3    H240247   6.004   6.534  13.376  1.0019 -0.8166  0.4381
 6278TIP3   OH240248   0.375   1.285   3.074 -0.6123 -0.0128 -0.0334
 6278TIP3    H140249   0.398   1.357   3.014 -0.5391 -0.5671 -0.6801
 6278TIP3    H240250   0.427   1.303   3.153  1.3837 -0.7033 -1.0999
 6279TIP3   OH240251   5.417   3.971  12.852  0.3645 -0.4141 -0.2582
 6279TIP3    H140252   5.478   3.968  12.778  0.0211 -2.9249 -0.5167
 6279TIP3    H240253   5.336   4.007  12.814  1.2940  1.9998 -0.1309
 6280TIP3   OH240254   2.917   2.108   1.538  0.2723  0.3121  0.2484
 6280TIP3    H140255   2.882   2.091   1.450  0.3197  0.0477  0.2793
 6280TIP3    H240256   2.976   2.182   1.526  0.5781  0.0309 -0.0167
 6281TIP3   OH240257   3.845   5.680   6.609 -0.1399  0.7337 -0.1341
 6281TIP3    H140258   3.913   5.632   6.564 -0.3876 -0.6947  0.9504
 6281TIP3    H240259   3.849   5.768   6.572  0.9686  0.1480 -1.4723
 6282TIP3   OH240260   3.901   4.990   4.093 -0.3095  0.3903  0.0864
 6282TIP3    H140261   3.903   4.978   4.188  1.6146 -0.4468 -0.0269
 6282TIP3    H240262   3.977   5.044   4.074 -0.0762 -0.3180 -1.0672
 6283TIP3   OH240263   1.041   1.567   4.808 -0.3062 -0.1149 -0.2780
 6283TIP3    H140264   1.014   1.492   4.754 -0.0464  0.3752 -1.1178
 6283TIP3    H240265   1.130   1.545   4.837  0.2471  0.3766 -1.5292
 6284TIP3   OH240266   3.252   2.707  13.588 -0.0977 -0.8959  0.0127
 6284TIP3    H140267   3.325   2.760  13.558 -0.4677  0.3871  1.2827
 6284TIP3    H240268   3.174   2.755  13.560 -0.4471  0.0603  2.3853
 6285TIP3   OH240269   2.932   0.340  17.424 -0.9489  0.5113  0.0479
 6285TIP3    H140270   2.922   0.297  17.509  1.5446 -1.3754 -0.5218
 6285TIP3    H240271   2.910   0.273  17.360 -0.5102  1.1959 -0.8397
 6286TIP3   OH240272   5.924   3.151   1.703 -0.1003 -0.2463  0.3132
 6286TIP3    H140273   5.930   3.058   1.724 -0.3277  0.0442  1.7492
 6286TIP3    H240274   5.994   3.191   1.754  0.8089  0.2414 -1.2578
 6287TIP3   OH240275   2.590   2.749  14.528 -0.0455 -0.1419  0.0519
 6287TIP3    H140276   2.616   2.743  14.620 -0.8043 -1.0490  0.2184
 6287TIP3    H240277   2.502   2.710  14.525 -1.0382  1.9835 -0.6436
 6288TIP3   OH240278   2.462   2.721  11.244  0.1311  0.4179  0.2487
 6288TIP3    H140279   2.471   2.626  11.245 -0.1532  0.3570 -0.9823
 6288TIP3    H240280   2.377   2.738  11.283  1.0653  0.3345  2.4572
 6289TIP3   OH240281   3.811   2.320   2.829 -0.5745  0.0019  0.1432
 6289TIP3    H140282   3.729   2.274   2.812 -0.8377 -0.3266  2.0732
 6289TIP3    H240283   3.863   2.308   2.749 -2.1026 -0.4205 -0.8137
 6290TIP3   OH240284   6.217   5.785  14.228 -0.4174 -0.0065 -0.3367
 6290TIP3    H140285   6.143   5.794  14.288 -0.1919 -0.8656  0.0919
 6290TIP3    H240286   6.179   5.801  14.141 -1.0486 -0.1566 -0.0987
 6291TIP3   OH240287   2.381   5.346  15.407  0.2988  0.4873 -0.1704
 6291TIP3    H140288   2.366   5.367  15.315  0.6954 -1.7706 -0.8188
 6291TIP3    H240289   2.446   5.276  15.406 -0.3667 -0.2476  1.7709
 6292TIP3   OH240290   0.124   5.872   3.716  0.9278  0.3001  0.2063
 6292TIP3    H140291   0.153   5.870   3.625  2.5465  2.1627  0.6024
 6292TIP3    H240292   0.047   5.929   3.716  1.0420  0.4548  0.0231
 6293TIP3   OH240293   2.577   5.753   4.275 -0.4551 -0.5500 -0.2617
 6293TIP3    H140294   2.523   5.791   4.206  1.1036  0.2683 -1.0807
 6293TIP3    H240295   2.643   5.702   4.228  1.6939  1.4028  0.4727
 6294TIP3   OH240296   4.506   2.868   5.125  0.4609 -0.2109  0.3217
 6294TIP3    H140297   4.520   2.805   5.054 -0.5843 -0.0197 -0.0805
 6294TIP3    H240298   4.412   2.886   5.122  0.0738 -1.4167  2.7679
 6295TIP3   OH240299   2.457   3.925   0.885  0.7050 -0.4750 -0.6641
 6295TIP3    H140300   2.540   3.890   0.852  0.6278 -2.3783  0.9659
 6295TIP3    H240301   2.391   3.863   0.851  0.3426 -0.8827  0.7392
 6296TIP3   OH240302   4.518   1.899   1.280  0.2071 -0.2457  0.0347
 6296TIP3    H140303   4.576   1.861   1.215  0.1958 -0.9810  0.4502
 6296TIP3    H240304   4.492   1.983   1.242 -2.3344 -1.9457 -2.4366
 6297TIP3   OH240305   5.603   1.491  13.918  0.4958  0.1872  0.0086
 6297TIP3    H140306   5.559   1.412  13.887  2.2945 -0.5783 -0.7096
 6297TIP3    H240307   5.587   1.491  14.013 -0.3191 -0.5029 -0.1145
 6298TIP3   OH240308   4.504   1.634  15.402 -0.0614  0.1624 -0.2157
 6298TIP3    H140309   4.443   1.705  15.421  0.4111  0.6611 -0.5266
 6298TIP3    H240310   4.566   1.671  15.339  0.7472 -0.2373  0.3252
 6299TIP3   OH240311   5.395   4.222   2.705 -0.2178 -0.4623  0.3302
 6299TIP3    H140312   5.347   4.229   2.622 -0.9706  0.1212  0.7949
 6299TIP3    H240313   5.481   4.189   2.681  0.0276  0.9417 -0.8399
 6300TIP3   OH240314   4.516   1.079  15.213 -0.9284  0.2993 -0.1458
 6300TIP3    H140315   4.508   1.102  15.306 -2.3274  1.7094 -0.5679
 6300TIP3    H240316   4.565   0.996  15.213 -1.6156 -0.1761  1.8884
 6301TIP3   OH240317   4.588   1.390  11.953  0.3132  0.2209  0.2489
 6301TIP3    H140318   4.552   1.438  11.878 -1.3153  0.4036  1.1239
 6301TIP3    H240319   4.680   1.418  11.956 -0.5446  3.3756  0.7529
 6302TIP3   OH240320   5.923   4.380  16.142 -0.2098 -0.5032 -0.0799
 6302TIP3    H140321   5.996   4.335  16.099  0.0302 -0.3957  0.2086
 6302TIP3    H240322   5.924   4.347  16.232  0.4477  0.6123  0.3537
 6303TIP3   OH240323   5.370   0.904   2.351 -0.5404  0.0267  0.1343
 6303TIP3    H140324   5.278   0.896   2.323 -0.1279 -1.3718 -0.9286
 6303TIP3    H240325   5.376   0.850   2.429 -0.5028 -0.3478 -0.1240
 6304TIP3   OH240326   4.800   4.435  15.050 -0.3923  0.2122  0.6000
 6304TIP3    H140327   4.768   4.525  15.055  0.7639  0.7704 -1.0857
 6304TIP3    H240328   4.808   4.417  14.956  1.6458 -0.7946  0.8882
 6305TIP3   OH240329   1.996   0.175  14.070  0.0596  0.0956 -0.6193
 6305TIP3    H140330   2.070   0.115  14.076  0.1437  0.3460  1.6331
 6305TIP3    H240331   2.013   0.225  13.991  2.3490  0.1731 -0.1553
 6306TIP3   OH240332   5.212   0.754   2.759 -0.6469  0.3695 -0.3609
 6306TIP3    H140333   5.260   0.716   2.685  0.7896  0.6146  0.4030
 6306TIP3    H240334   5.213   0.685   2.825 -0.8047  0.6085 -0.1104
 6307TIP3   OH240335   2.715   6.473  12.235 -0.3535  1.0235 -0.0675
 6307TIP3    H140336   2.664   6.405  12.279  1.6731  0.0042  0.8444
 6307TIP3    H240337   2.666   6.493  12.155 -0.9602 -1.5761 -0.4116
 6308TIP3   OH240338   6.462   2.012   2.177  0.2063 -0.0867 -0.0906
 6308TIP3    H140339   6.532   1.951   2.154 -1.5137 -2.2926  0.2004
 6308TIP3    H240340   6.444   1.995   2.269 -1.2978 -0.2124 -0.3864
 6309TIP3   OH240341   6.660   4.821  16.825 -0.1189  0.0582  0.6258
 6309TIP3    H140342   6.678   4.858  16.912 -0.8056 -0.9340  1.2151
 6309TIP3    H240343   6.618   4.893  16.777 -1.4294  0.0817  1.7389
 6310TIP3   OH240344   3.431   3.867  13.549  0.1493  0.5277 -0.5123
 6310TIP3    H140345   3.500   3.933  13.550  0.5952  0.1843  3.1740
 6310TIP3    H240346   3.465   3.795  13.602 -1.3007 -1.6948 -2.3742
 6311TIP3   OH240347   2.897   3.110   3.575  0.2003 -0.4979  0.5828
 6311TIP3    H140348   2.951   3.103   3.496  0.8501  1.0776  0.8517
 6311TIP3    H240349   2.942   3.175   3.629 -2.3279  1.4626  0.4953
 6312TIP3   OH240350   2.883   1.816  13.821 -0.3651 -0.9043 -0.0331
 6312TIP3    H140351   2.942   1.799  13.748 -0.0045 -1.6451  0.4175
 6312TIP3    H240352   2.797   1.789  13.789 -0.7930  1.5702 -1.2241
 6313TIP3   OH240353   2.118   2.631  16.713  0.1008  0.3588  0.2954
 6313TIP3    H140354   2.141   2.684  16.636  0.0054  2.6513  1.7737
 6313TIP3    H240355   2.201   2.619  16.759  0.3056 -1.7140 -0.4998
 6314TIP3   OH240356   4.046   0.743  14.732  0.1169 -0.1313 -0.0531
 6314TIP3    H140357   3.985   0.751  14.805  0.0902  2.3684 -0.2851
 6314TIP3    H240358   3.991   0.730  14.655  0.1765 -4.7676  0.4050
 6315TIP3   OH240359   2.394   2.718  12.643 -0.3242  0.0520  0.6099
 6315TIP3    H140360   2.455   2.792  12.650 -1.2172  0.6520  2.4853
 6315TIP3    H240361   2.450   2.641  12.651  0.2026  0.5963  3.0779
 6316TIP3   OH240362   4.974   5.655  16.416 -0.1764  0.2215  0.1512
 6316TIP3    H140363   5.028   5.598  16.471 -0.0588  0.3241  0.1440
 6316TIP3    H240364   4.973   5.739  16.463  0.6823  0.5872 -0.4455
 6317TIP3   OH240365   1.188   4.480   4.403  0.1010  0.1291  0.1267
 6317TIP3    H140366   1.189   4.571   4.375 -1.7119 -0.0022 -0.5583
 6317TIP3    H240367   1.220   4.481   4.493  1.6400  1.2020 -0.4079
 6318TIP3   OH240368   1.277   5.263   1.112  0.4362 -0.1309  0.4548
 6318TIP3    H140369   1.230   5.321   1.172 -3.8713 -0.9644 -1.7372
 6318TIP3    H240370   1.330   5.322   1.059  0.1669  1.1909  1.6041
 6319TIP3   OH240371   0.579   1.884   3.448 -0.3010  0.0636 -1.0855
 6319TIP3    H140372   0.594   1.956   3.387 -0.9253  0.9697 -0.1930
 6319TIP3    H240373   0.492   1.900   3.485 -0.0678 -0.6238 -0.1787
 6320TIP3   OH240374   2.374   6.723  13.978 -0.2338 -0.1442  0.3045
 6320TIP3    H140375   2.295   6.724  14.032 -0.1135  3.2351  0.5991
 6320TIP3    H240376   2.445   6.701  14.039 -0.7283 -1.8933  0.2972
 6321TIP3   OH240377   5.534   4.675   0.152  0.2658 -0.1365  0.6127
 6321TIP3    H140378   5.546   4.704   0.242 -0.7079 -1.1165  1.0900
 6321TIP3    H240379   5.468   4.734   0.116  0.6116  0.2180  0.5503
 6322TIP3   OH240380   0.813   3.856  16.957 -0.0298 -0.4861 -0.2547
 6322TIP3    H140381   0.906   3.877  16.969 -0.1599  2.1128 -2.5821
 6322TIP3    H240382   0.805   3.838  16.863 -2.2725  2.5669 -0.8011
 6323TIP3   OH240383   4.032   0.306  17.143 -0.5063  0.0242 -0.1046
 6323TIP3    H140384   4.106   0.364  17.157 -0.0912 -0.6368  0.5547
 6323TIP3    H240385   3.957   0.354  17.178 -0.1395  0.0947  0.6009
 6324TIP3   OH240386   2.356   2.710  13.739 -0.2684 -0.4776  0.1845
 6324TIP3    H140387   2.360   2.803  13.761  1.2458 -0.3444 -0.5193
 6324TIP3    H240388   2.401   2.667  13.812 -1.3501 -0.7296  0.7291
 6325TIP3   OH240389   0.372   1.186   0.613  0.8268 -0.0233 -0.3703
 6325TIP3    H140390   0.437   1.116   0.608  0.8390 -0.1554  1.1251
 6325TIP3    H240391   0.421   1.263   0.642  0.5531  0.2374 -0.5860
 6326TIP3   OH240392   0.713   4.283   5.009  0.0607  0.0430  0.0477
 6326TIP3    H140393   0.806   4.261   4.999 -0.2560 -0.6171 -2.0597
 6326TIP3    H240394   0.697   4.280   5.103  1.7667 -1.5951  0.3412
 6327TIP3   OH240395   4.727   3.926   6.171 -0.2325 -0.5139 -0.1235
 6327TIP3    H140396   4.711   3.913   6.078 -2.8165  0.3899  0.1025
 6327TIP3    H240397   4.793   3.995   6.174  0.5637 -1.1860 -1.2508
 6328TIP3   OH240398   0.153   0.927  16.631 -0.7805  0.0331 -0.0861
 6328TIP3    H140399   0.122   0.915  16.541  0.1116  0.1968 -0.4277
 6328TIP3    H240400   0.190   1.015  16.632 -1.2537  0.2345  0.5917
 6329TIP3   OH240401   2.513   1.535   4.969  0.1863  0.0915 -0.3943
 6329TIP3    H140402   2.607   1.523   4.958  0.7292  0.2506  2.9639
 6329TIP3    H240403   2.502   1.629   4.984 -0.2585 -0.1200  0.7255
 6330TIP3   OH240404   4.397   4.659   1.178  0.3411 -0.3854 -0.4445
 6330TIP3    H140405   4.392   4.738   1.231 -1.9557 -0.9344  0.2825
 6330TIP3    H240406   4.489   4.633   1.182  0.7959  1.2251  0.7961
 6331TIP3   OH240407   5.449   3.650   0.806  0.0407  0.1569 -0.8948
 6331TIP3    H140408   5.381   3.716   0.789 -1.1854 -1.2850 -1.8623
 6331TIP3    H240409   5.518   3.671   0.742 -1.1056 -0.4946 -2.4034
 6332TIP3   OH240410   3.842   5.984  16.356 -0.3108 -0.0132  0.6442
 6332TIP3    H140411   3.865   6.070  16.320  0.9673 -0.1137  1.1768
 6332TIP3    H240412   3.846   5.996  16.451  2.1609 -1.1883  0.7731
 6333TIP3   OH240413   2.626   1.485  13.486 -0.1964  0.1272  0.3726
 6333TIP3    H140414   2.542   1.441  13.502  0.1061 -0.7126 -0.2213
 6333TIP3    H240415   2.681   1.460  13.560 -0.0051 -0.5876  0.0052
 6334TIP3   OH240416   3.436   0.478  15.157 -0.0879  0.6832 -0.4497
 6334TIP3    H140417   3.365   0.542  15.152  0.8283  1.6889 -0.9269
 6334TIP3    H240418   3.437   0.451  15.249 -2.1713 -0.6480 -0.7410
 6335TIP3   OH240419   1.883   1.970  11.549  0.0950  0.0125  0.2397
 6335TIP3    H140420   1.885   1.900  11.614 -0.2068  0.4025  0.6728
 6335TIP3    H240421   1.971   2.006  11.550  0.1095 -0.0272  0.3818
 6336TIP3   OH240422   3.906   0.584   5.816 -0.5129 -0.7250  0.3529
 6336TIP3    H140423   3.872   0.626   5.895 -1.0007  0.7296 -0.5784
 6336TIP3    H240424   3.880   0.493   5.824 -0.0798 -0.7431  2.1087
 6337TIP3   OH240425   4.985   5.018  12.996 -0.2046  0.3474 -0.0165
 6337TIP3    H140426   5.012   5.110  13.000  1.1644 -0.0530  0.6037
 6337TIP3    H240427   4.930   5.013  12.917 -1.1957  1.8974  0.5264
 6338TIP3   OH240428   5.479   0.552   0.709 -0.0866 -0.2555 -0.3051
 6338TIP3    H140429   5.446   0.528   0.795  0.6142 -0.1536 -0.0020
 6338TIP3    H240430   5.531   0.477   0.681 -2.4850 -1.4617 -1.8489
 6339TIP3   OH240431   6.451   1.070   5.768  0.2877 -0.5701  0.1410
 6339TIP3    H140432   6.379   1.094   5.827  0.7788  0.7560  0.2257
 6339TIP3    H240433   6.492   0.995   5.810  0.8611  0.5752  1.7323
 6340TIP3   OH240434   1.837   5.461   6.169  0.2840  0.3937 -0.0257
 6340TIP3    H140435   1.896   5.419   6.231  0.8656  1.8434  0.4512
 6340TIP3    H240436   1.857   5.555   6.176 -1.6714  0.8908 -0.2483
 6341TIP3   OH240437   3.173   2.711   3.778 -0.5001 -0.1089 -0.5157
 6341TIP3    H140438   3.155   2.637   3.835  0.6134  1.5064  2.1268
 6341TIP3    H240439   3.263   2.698   3.749 -0.0774  0.4823  0.4811
 6342TIP3   OH240440   6.341   0.201  13.458 -0.4789  0.3269  0.3622
 6342TIP3    H140441   6.313   0.110  13.458 -1.2962  0.5505 -1.1775
 6342TIP3    H240442   6.261   0.251  13.444 -0.1463  1.3583  1.8210
 6343TIP3   OH240443   3.351   0.679  14.435 -0.5221  0.1487 -0.2252
 6343TIP3    H140444   3.391   0.627  14.365 -0.6920  0.5384 -0.6158
 6343TIP3    H240445   3.388   0.643  14.515 -1.1778 -1.0648 -0.4453
 6344TIP3   OH240446   5.992   1.321   4.245  0.5900  0.4398  0.6562
 6344TIP3    H140447   5.962   1.230   4.246 -3.2128  1.4193 -1.9032
 6344TIP3    H240448   5.923   1.369   4.292  1.6357  2.2038  0.4700
 6345TIP3   OH240449   3.364   3.184   0.402  0.0102  0.4199 -0.0653
 6345TIP3    H140450   3.376   3.091   0.419 -2.4922  0.2869  1.4378
 6345TIP3    H240451   3.432   3.206   0.337 -0.0175 -2.6433 -1.2736
 6346TIP3   OH240452   1.296   0.234   1.092 -0.3302 -0.1597  0.2452
 6346TIP3    H140453   1.341   0.297   1.036  1.2212 -0.2570  1.3103
 6346TIP3    H240454   1.341   0.151   1.076 -0.4300 -0.3666  0.9749
 6347TIP3   OH240455   4.516   1.527   2.299 -0.1255  0.1376 -0.2053
 6347TIP3    H140456   4.561   1.515   2.383 -1.1265  1.7486  0.6261
 6347TIP3    H240457   4.533   1.447   2.250  2.9597  0.3226  0.3583
 6348TIP3   OH240458   2.105   5.827   4.819  0.0148  0.2371 -0.7507
 6348TIP3    H140459   2.079   5.809   4.909 -0.9907 -0.0814 -1.0912
 6348TIP3    H240460   2.048   5.899   4.791  1.7138  1.7497 -0.4916
 6349TIP3   OH240461   6.181   1.708  13.572 -0.4185  0.6471 -0.1715
 6349TIP3    H140462   6.268   1.704  13.611 -0.5245 -0.4766 -0.0082
 6349TIP3    H240463   6.174   1.628  13.520 -2.7850 -1.5259  3.0380
 6350TIP3   OH240464   0.281   0.959  15.961  0.2716 -0.0752 -0.2314
 6350TIP3    H140465   0.306   0.884  16.015  0.8512  0.0411 -0.3410
 6350TIP3    H240466   0.185   0.952  15.955  0.0335  0.5691  1.8051
 6351TIP3   OH240467   5.453   3.029  14.236  0.3746  0.2061  0.1037
 6351TIP3    H140468   5.502   3.002  14.158 -0.6170 -0.4958 -0.3029
 6351TIP3    H240469   5.461   2.954  14.296 -0.9874 -0.3307 -0.3556
 6352TIP3   OH240470   3.288   0.929   0.519  0.1094 -0.1407 -0.1113
 6352TIP3    H140471   3.303   1.016   0.557  1.9390 -0.1385 -0.7428
 6352TIP3    H240472   3.330   0.933   0.433 -1.4917 -1.0532 -0.9784
 6353TIP3   OH240473   2.126   5.942  12.309  0.1022 -0.6907 -0.3457
 6353TIP3    H140474   2.187   6.016  12.315  0.5836 -1.1196  0.0706
 6353TIP3    H240475   2.073   5.962  12.231 -0.3871  0.5498  0.2730
 6354TIP3   OH240476   6.566   4.828  11.237  0.1521 -0.9950  0.0675
 6354TIP3    H140477   6.649   4.874  11.248  0.5502 -1.8143  0.4941
 6354TIP3    H240478   6.526   4.871  11.161  1.4123 -1.2545 -0.7701
 6355TIP3   OH240479   2.861   3.880   1.822  0.5490  0.1852 -0.3064
 6355TIP3    H140480   2.892   3.970   1.823  1.5689 -0.1530  0.4978
 6355TIP3    H240481   2.792   3.877   1.889 -0.0661  0.5542 -0.9201
 6356TIP3   OH240482   5.090   5.289  14.295  0.0806  0.2724  0.3712
 6356TIP3    H140483   5.042   5.265  14.374 -0.7322  0.8858  0.0773
 6356TIP3    H240484   5.182   5.284  14.320 -0.1413 -0.5142  1.0661
 6357TIP3   OH240485   5.003   0.159  16.628 -0.1265 -0.2138 -0.2767
 6357TIP3    H140486   5.037   0.197  16.709  0.4654  0.1164 -0.6719
 6357TIP3    H240487   4.932   0.101  16.656  0.5330 -0.6471  0.5364
 6358TIP3   OH240488   5.961   4.900  13.955 -0.1822  0.2686  0.0857
 6358TIP3    H140489   5.951   4.870  14.046  0.8769 -0.1085  0.0894
 6358TIP3    H240490   5.897   4.849  13.906  0.7734 -1.1940  0.2879
 6359TIP3   OH240491   3.439   5.739  15.552 -0.4846 -0.1418 -0.1014
 6359TIP3    H140492   3.414   5.740  15.645  2.9020 -0.3091  0.9271
 6359TIP3    H240493   3.464   5.648  15.535 -0.0555  0.1165 -0.8896
 6360TIP3   OH240494   5.556   3.983   3.764  0.1549  0.5302  0.6412
 6360TIP3    H140495   5.644   3.973   3.801  0.9510 -0.6098 -1.3659
 6360TIP3    H240496   5.520   4.061   3.806  2.1630  1.0603  1.4648
 6361TIP3   OH240497   0.322   3.034  16.454 -0.3578  0.2837  0.1617
 6361TIP3    H140498   0.345   2.941  16.458 -0.8179  0.1818  0.5152
 6361TIP3    H240499   0.238   3.036  16.409  0.8503  0.7575 -2.2462
 6362TIP3   OH240500   0.895   3.689  16.388  0.7142  0.1957  0.1236
 6362TIP3    H140501   0.976   3.686  16.338 -0.2940 -0.2543 -1.5641
 6362TIP3    H240502   0.849   3.767  16.356 -1.3645 -1.7921 -2.0648
 6363TIP3   OH240503   2.485   4.119  15.842 -0.1155 -0.1577 -0.1990
 6363TIP3    H140504   2.473   4.206  15.880 -0.1700 -0.6666  0.9959
 6363TIP3    H240505   2.552   4.078  15.897 -2.2293 -1.9398  1.1915
 6364TIP3   OH240506   5.812   6.608  13.099  0.4391  0.0439 -0.5278
 6364TIP3    H140507   5.870   6.550  13.050  0.8373  0.9519 -1.1642
 6364TIP3    H240508   5.838   6.697  13.072 -0.6955  0.4955 -0.2042
 6365TIP3   OH240509   3.695   1.093   2.669  0.6913 -0.0302 -0.9103
 6365TIP3    H140510   3.664   1.096   2.578  1.5115  0.3635 -1.1806
 6365TIP3    H240511   3.771   1.150   2.671  2.0900 -1.8210 -0.5092
 6366TIP3   OH240512   0.739   3.856   0.780 -0.3014 -0.0130  0.6679
 6366TIP3    H140513   0.802   3.899   0.722  1.0610 -2.5975  0.0874
 6366TIP3    H240514   0.653   3.879   0.743  0.4066  0.9995 -0.4326
 6367TIP3   OH240515   0.423   2.676  12.551 -0.2837 -0.2780  0.0726
 6367TIP3    H140516   0.517   2.681  12.537 -0.4432 -0.2779 -1.0943
 6367TIP3    H240517   0.397   2.592  12.513 -0.6644 -0.6019  1.0103
 6368TIP3   OH240518   6.105   0.363  11.564 -0.1120 -0.5935  0.5419
 6368TIP3    H140519   6.127   0.442  11.515  2.5812 -1.3084  0.4181
 6368TIP3    H240520   6.141   0.378  11.652  3.0365 -2.5999 -0.2108
 6369TIP3   OH240521   4.089   2.945   3.965  0.4630  0.0230 -0.4712
 6369TIP3    H140522   4.175   2.984   3.982  1.1050 -1.1606 -0.9252
 6369TIP3    H240523   4.108   2.856   3.937 -0.9260 -0.2781 -0.5169
 6370TIP3   OH240524   2.058   0.128   6.165 -0.0752 -0.0706  0.2038
 6370TIP3    H140525   2.048   0.222   6.176  0.0047 -0.0982  0.5098
 6370TIP3    H240526   2.015   0.090   6.242 -0.5000 -0.2996 -0.1420
 6371TIP3   OH240527   0.564   6.010  12.999  0.8928 -0.2736 -0.0688
 6371TIP3    H140528   0.655   6.002  13.028  1.2401  1.5299 -0.4821
 6371TIP3    H240529   0.518   6.048  13.075  0.6222 -0.6157 -0.0621
 6372TIP3   OH240530   5.718   5.776  13.657  0.3181 -0.0598  0.6156
 6372TIP3    H140531   5.749   5.829  13.583 -0.7738 -0.9369 -0.5122
 6372TIP3    H240532   5.725   5.834  13.733  3.2411  0.2829  0.2156
 6373TIP3   OH240533   1.793   5.459   5.661  0.3732  0.1392  0.0838
 6373TIP3    H140534   1.776   5.537   5.714  1.0510 -0.4670  1.2305
 6373TIP3    H240535   1.819   5.392   5.724  1.3701 -0.5674 -1.0287
 6374TIP3   OH240536   5.224   2.832   3.331  0.3424 -0.8091  0.0122
 6374TIP3    H140537   5.269   2.917   3.325 -2.0556  0.6273  0.7184
 6374TIP3    H240538   5.292   2.770   3.358  2.3257  0.7363 -1.1934
 6375TIP3   OH240539   3.117   6.733  17.381 -0.2761 -0.1468 -0.4314
 6375TIP3    H140540   3.137   6.639  17.388  0.2698  0.0527  0.8970
 6375TIP3    H240541   3.159   6.772  17.457 -1.4216  1.0382 -0.3896
 6376TIP3   OH240542   0.559   3.034  14.590  1.0023 -0.0421 -0.3470
 6376TIP3    H140543   0.568   2.992  14.675 -0.5229  1.9962  0.9122
 6376TIP3    H240544   0.532   3.123  14.610  2.0320  0.9494 -2.9527
 6377TIP3   OH240545   2.770   1.675   0.381  0.2003  0.0303  0.1810
 6377TIP3    H140546   2.775   1.582   0.357 -0.6036  0.4264 -1.7512
 6377TIP3    H240547   2.860   1.706   0.375  0.4841 -0.6186  0.9036
 6378TIP3   OH240548   4.699   0.122  17.281  0.5440 -0.0555 -0.3576
 6378TIP3    H140549   4.711   0.028  17.295 -2.5533 -0.7591 -1.5647
 6378TIP3    H240550   4.745   0.139  17.198  0.5728 -0.6419 -0.4716
 6379TIP3   OH240551   1.585   3.196   2.786 -0.6923  0.5492  0.0225
 6379TIP3    H140552   1.604   3.272   2.732  0.3239  0.9332  0.8862
 6379TIP3    H240553   1.490   3.192   2.789 -0.7884  0.4330 -1.8767
 6380TIP3   OH240554   3.535   3.457  15.466  0.4703  0.2311 -0.6886
 6380TIP3    H140555   3.497   3.499  15.543  1.6159  0.4295 -0.2101
 6380TIP3    H240556   3.630   3.457  15.483  0.5022 -3.2986 -0.2939
 6381TIP3   OH240557   5.527   6.695   0.213 -0.1360 -0.2483 -0.1155
 6381TIP3    H140558   5.567   6.619   0.256 -1.1753 -0.6853  0.1052
 6381TIP3    H240559   5.495   6.660   0.129  0.2929  0.1909 -0.4696
 6382TIP3   OH240560   5.643   5.812  14.649  0.7462 -0.2044  0.0818
 6382TIP3    H140561   5.657   5.718  14.656 -0.5405 -0.3387  1.1160
 6382TIP3    H240562   5.686   5.849  14.725 -0.9658 -0.2436  1.1192
 6383TIP3   OH240563   4.215   0.368   0.344  0.0670 -0.7018  0.2216
 6383TIP3    H140564   4.233   0.286   0.297  0.8772 -0.6301  0.4012
 6383TIP3    H240565   4.292   0.382   0.398 -0.5568 -0.4132  1.0592
 6384TIP3   OH240566   2.828   2.965   6.642 -0.5126  0.0468 -0.6194
 6384TIP3    H140567   2.789   3.022   6.708  1.7403 -0.2882  1.1165
 6384TIP3    H240568   2.900   3.016   6.606 -0.9168 -0.2672 -1.9520
 6385TIP3   OH240569   6.591   3.675   5.090 -0.5109  0.3388 -0.4654
 6385TIP3    H140570   6.544   3.744   5.043 -1.8238  0.6811  1.2510
 6385TIP3    H240571   6.523   3.610   5.111  0.3867 -0.6614 -0.5630
 6386TIP3   OH240572   5.708   0.990  12.855 -0.5474  0.0260 -0.3462
 6386TIP3    H140573   5.721   1.084  12.840 -0.4576 -0.1534 -1.5392
 6386TIP3    H240574   5.779   0.964  12.913 -1.7908  1.0909  1.7940
 6387TIP3   OH240575   4.004   4.941   1.247  0.3501  0.0941  0.2367
 6387TIP3    H140576   4.065   4.953   1.175 -0.8196  0.2798 -0.7689
 6387TIP3    H240577   3.949   5.020   1.245  0.3595  0.1485  1.3979
 6388TIP3   OH240578   1.179   6.509  12.098  0.2916  0.0391 -0.2888
 6388TIP3    H140579   1.200   6.594  12.060  1.8280  0.0909  0.5814
 6388TIP3    H240580   1.219   6.446  12.038 -1.1627 -0.1091 -1.1314
 6389TIP3   OH240581   2.031   3.290  11.898 -0.1844  0.4760 -0.4851
 6389TIP3    H140582   2.006   3.345  11.972 -1.7246 -1.8982  0.9011
 6389TIP3    H240583   1.953   3.287  11.844  0.1575  0.2990 -0.9719
 6390TIP3   OH240584   5.072   4.402   2.930 -0.2854 -0.2000  0.6336
 6390TIP3    H140585   5.095   4.447   2.849  0.6779 -0.7446  0.5946
 6390TIP3    H240586   5.155   4.371   2.965 -0.9031 -1.8827  0.6967
 6391TIP3   OH240587   2.439   3.155   0.299  0.1239 -0.9330 -0.2437
 6391TIP3    H140588   2.351   3.186   0.320  0.5424  0.5144 -0.5292
 6391TIP3    H240589   2.498   3.221   0.338  1.1619 -2.6473  1.2629
 6392TIP3   OH240590   1.693   0.955  12.069 -0.1261  0.0273  0.0302
 6392TIP3    H140591   1.753   1.003  12.125 -0.4429  0.2813  0.1576
 6392TIP3    H240592   1.641   1.023  12.026  2.0933  0.0542 -2.9192
 6393TIP3   OH240593   0.505   3.652   6.389 -0.1486  1.0590 -0.2075
 6393TIP3    H140594   0.475   3.635   6.300  0.6853  1.2030 -0.5313
 6393TIP3    H240595   0.430   3.691   6.433 -0.7415  0.4690 -0.6838
 6394TIP3   OH240596   6.517   4.889  14.402 -0.0216 -0.0027  0.0521
 6394TIP3    H140597   6.534   4.961  14.462 -0.9972  1.2917 -1.1500
 6394TIP3    H240598   6.587   4.896  14.336  0.5067 -0.8413  0.5053
 6395TIP3   OH240599   5.883   2.653  13.947 -0.3380 -0.2845 -0.1191
 6395TIP3    H140600   5.871   2.653  13.852 -1.0288  0.5467 -0.0453
 6395TIP3    H240601   5.941   2.727  13.964  1.1004 -1.3958 -0.0200
 6396TIP3   OH240602   1.380   4.194  16.646  0.1626  0.5343  0.0257
 6396TIP3    H140603   1.365   4.273  16.698 -0.0853  0.0508  0.6999
 6396TIP3    H240604   1.467   4.164  16.672 -0.6086 -0.6411  1.4595
 6397TIP3   OH240605   2.204   1.956   3.147  0.3462  0.2916 -0.2184
 6397TIP3    H140606   2.165   2.042   3.166 -0.7651 -0.1204 -0.5549
 6397TIP3    H240607   2.151   1.895   3.198  1.3695 -0.1668  0.3165
 6398TIP3   OH240608   2.743   6.218  15.037  0.6735 -0.3925  0.0301
 6398TIP3    H140609   2.729   6.156  15.108 -0.6225  0.3816  0.4909
 6398TIP3    H240610   2.783   6.294  15.079 -1.6728  0.7720  0.3444
 6399TIP3   OH240611   3.936   1.801  17.091 -0.8779  0.1698  0.1156
 6399TIP3    H140612   4.018   1.850  17.098 -1.1757  0.5287  1.4606
 6399TIP3    H240613   3.884   1.832  17.165 -1.0868 -2.1837  1.0439
 6400TIP3   OH240614   1.323   1.878   0.743  0.5544  0.0761  0.2864
 6400TIP3    H140615   1.393   1.938   0.770  0.7741 -0.7073  1.4988
 6400TIP3    H240616   1.366   1.813   0.689  0.5364  0.2666  0.0370
 6401TIP3   OH240617   4.072   6.704   2.966  0.1329 -0.6256 -0.3117
 6401TIP3    H140618   4.042   6.721   2.877 -1.1293  0.2793  0.2514
 6401TIP3    H240619   3.993   6.713   3.020  0.4199 -3.2433  0.6849
 6402TIP3   OH240620   1.431   3.275   5.369  0.0219  0.6961  0.8522
 6402TIP3    H140621   1.344   3.275   5.408 -0.3602 -1.6498  0.1569
 6402TIP3    H240622   1.467   3.189   5.391  1.5705  1.0430 -0.1439
 6403TIP3   OH240623   2.779   1.097  13.977 -0.3079  0.6853 -0.1699
 6403TIP3    H140624   2.738   1.033  14.034 -0.3547  1.1933  0.3754
 6403TIP3    H240625   2.822   1.045  13.909 -2.3126  0.1395 -1.0945
 6404TIP3   OH240626   3.992   0.216   1.452  0.2585  0.7962 -0.0208
 6404TIP3    H140627   4.009   0.308   1.432  1.8693  0.7480  0.9560
 6404TIP3    H240628   3.922   0.218   1.517  0.3906  1.3510  0.1102
 6405TIP3   OH240629   6.194   0.880   4.797 -0.7104 -0.9946 -0.1730
 6405TIP3    H140630   6.135   0.845   4.864 -1.4886  0.0094 -0.3156
 6405TIP3    H240631   6.145   0.869   4.715 -0.2000 -1.2336 -0.4532
 6406TIP3   OH240632   5.558   4.842  12.493 -0.2642  0.0545  0.6489
 6406TIP3    H140633   5.467   4.833  12.522 -0.5608  0.2481 -0.1931
 6406TIP3    H240634   5.605   4.772  12.537 -0.7278  0.2483  1.4722
 6407TIP3   OH240635   5.004   3.744  12.792  0.1001  0.2886  0.7198
 6407TIP3    H140636   4.934   3.689  12.825 -0.1838 -0.0937 -0.4747
 6407TIP3    H240637   5.065   3.683  12.750 -0.7169  0.9235 -1.5176
 6408TIP3   OH240638   2.181   5.360  13.040 -0.2954 -0.1032 -0.2669
 6408TIP3    H140639   2.221   5.407  12.967  0.0378  2.6136  1.4734
 6408TIP3    H240640   2.137   5.429  13.091  1.3131 -1.3821  3.2176
 6409TIP3   OH240641   3.519   4.948   5.531  0.1290 -0.1377 -0.5714
 6409TIP3    H140642   3.607   4.981   5.552 -0.2870  1.0311 -0.5621
 6409TIP3    H240643   3.461   5.001   5.586 -0.6780  0.1315 -1.6645
 6410TIP3   OH240644   0.367   1.985  15.916 -0.5820  0.0191 -0.2887
 6410TIP3    H140645   0.362   1.919  15.985 -0.9591  0.6523  0.2968
 6410TIP3    H240646   0.279   1.989  15.880 -0.5697  0.2401 -0.2946
 6411TIP3   OH240647   5.061   0.811   3.313  0.2406 -0.3711  0.0593
 6411TIP3    H140648   5.086   0.759   3.237 -1.7599  1.7471 -2.1862
 6411TIP3    H240649   5.132   0.874   3.323  0.2772 -0.3446 -0.3564
 6412TIP3   OH240650   2.833   6.507   2.544 -0.0559  0.2957  0.3226
 6412TIP3    H140651   2.811   6.584   2.491  0.9761 -0.1114 -0.7491
 6412TIP3    H240652   2.787   6.435   2.501  0.4539  0.0236  0.2313
 6413TIP3   OH240653   3.927   3.794   2.344 -0.5184  0.4796  0.6694
 6413TIP3    H140654   3.945   3.795   2.438  0.0460 -0.5659  0.5845
 6413TIP3    H240655   4.014   3.794   2.303 -0.7440 -0.0070  0.1749
 6414TIP3   OH240656   5.252   1.465   4.602  0.0631  0.3427  0.1257
 6414TIP3    H140657   5.291   1.378   4.610 -1.5776 -0.5563 -1.0223
 6414TIP3    H240658   5.321   1.518   4.561  0.4052 -0.9816 -1.1228
 6415TIP3   OH240659   3.889   6.312  13.193 -0.4797 -0.2946 -0.2598
 6415TIP3    H140660   3.881   6.314  13.289 -1.8650  0.9555 -0.3636
 6415TIP3    H240661   3.958   6.249  13.176  0.8251  0.5274  1.6378
 6416TIP3   OH240662   0.537   2.049   5.749  0.0415  0.0277 -0.1869
 6416TIP3    H140663   0.606   2.030   5.686  1.0327 -2.5820  1.4867
 6416TIP3    H240664   0.578   2.036   5.835 -2.0663  0.1405  0.9228
 6417TIP3   OH240665   4.867   2.518   2.835  0.3139 -0.2927  0.4042
 6417TIP3    H140666   4.821   2.596   2.866 -0.3853 -0.7533  0.5722
 6417TIP3    H240667   4.925   2.495   2.907 -0.3508 -0.6012  0.8580
 6418TIP3   OH240668   0.455   4.284  13.834  0.2196 -0.1561 -0.2475
 6418TIP3    H140669   0.362   4.303  13.819 -0.0820 -2.0901 -1.1222
 6418TIP3    H240670   0.454   4.213  13.899  0.9452 -1.7653 -1.9100
 6419TIP3   OH240671   3.788   3.437   2.991 -0.6315 -0.2771 -0.2589
 6419TIP3    H140672   3.789   3.510   3.052  1.0682  0.0603 -0.6325
 6419TIP3    H240673   3.842   3.370   3.034  0.5144 -0.0665 -1.3052
 6420TIP3   OH240674   6.220   2.729   4.815 -0.1135 -0.0514 -0.5514
 6420TIP3    H140675   6.170   2.647   4.813  0.0365 -0.3687  2.5772
 6420TIP3    H240676   6.302   2.705   4.859  1.5108  1.1024 -2.7979
 6421TIP3   OH240677   2.814   5.099   3.171  0.2767 -0.3298  0.0019
 6421TIP3    H140678   2.860   5.016   3.183  0.2207 -0.3828 -0.1476
 6421TIP3    H240679   2.734   5.091   3.223  0.8692  0.1144  1.0108
 6422TIP3   OH240680   5.477   4.941  14.042 -0.1656 -0.7238  0.2263
 6422TIP3    H140681   5.542   4.896  14.096 -1.2528  0.3237  2.5528
 6422TIP3    H240682   5.396   4.933  14.092 -1.1617  0.6160 -1.1150
 6423TIP3   OH240683   1.192   0.834  11.747 -0.2859 -0.3940 -0.2835
 6423TIP3    H140684   1.141   0.884  11.683 -0.9169 -0.7148 -0.0427
 6423TIP3    H240685   1.154   0.746  11.745  1.0366 -0.9652 -0.9389
 6424TIP3   OH240686   2.764   4.042  14.793  0.6736  0.6306 -0.4710
 6424TIP3    H140687   2.804   4.053  14.706  2.6843 -0.3900  0.2663
 6424TIP3    H240688   2.813   3.971  14.833 -0.5256  0.7696  1.3490
 6425TIP3   OH240689   1.748   4.165  14.198 -0.0144 -0.0255 -0.3180
 6425TIP3    H140690   1.829   4.203  14.165  0.2733 -0.6932 -0.3863
 6425TIP3    H240691   1.775   4.099  14.261 -0.5379  0.5164  0.4999
 6426TIP3   OH240692   1.689   5.328  15.038  0.2358 -0.5354  0.3919
 6426TIP3    H140693   1.713   5.302  14.950 -0.3471 -0.3365  0.1683
 6426TIP3    H240694   1.668   5.421  15.030 -0.1980 -0.6085  0.6597
 6427TIP3   OH240695   2.414   5.358   2.825  0.0932 -0.6295 -0.3701
 6427TIP3    H140696   2.396   5.281   2.771  0.7738 -1.2676  0.2982
 6427TIP3    H240697   2.509   5.358   2.835  0.0997  0.3070 -0.3715
 6428TIP3   OH240698   4.542   6.226   2.662 -0.1977 -0.4054 -0.4951
 6428TIP3    H140699   4.448   6.232   2.680 -0.1486  1.4470 -0.6473
 6428TIP3    H240700   4.567   6.140   2.695 -1.4584  0.0622  1.9001
 6429TIP3   OH240701   3.264   5.337  16.745 -0.4158 -0.7786 -0.3707
 6429TIP3    H140702   3.296   5.355  16.657 -0.5766 -0.6806 -0.4100
 6429TIP3    H240703   3.224   5.419  16.773  2.4627  0.2571  1.0686
 6430TIP3   OH240704   4.915   4.387   2.226 -0.2385 -0.1449 -0.6174
 6430TIP3    H140705   4.919   4.291   2.224  0.9687 -0.0988 -1.4812
 6430TIP3    H240706   4.879   4.407   2.312  0.9396 -1.3579  0.2053
 6431TIP3   OH240707   0.531   5.389  14.276 -0.3553  0.1481  0.4580
 6431TIP3    H140708   0.525   5.484  14.289  0.2257  0.6429 -2.2336
 6431TIP3    H240709   0.493   5.374  14.189 -1.7974 -2.3268  1.4047
 6432TIP3   OH240710   2.062   0.508  12.551  0.4045  0.3888  0.6078
 6432TIP3    H140711   2.022   0.446  12.613  1.6122 -0.6159  0.4287
 6432TIP3    H240712   2.079   0.456  12.473 -1.2739  1.6880 -0.7069
 6433TIP3   OH240713   0.289   4.920  15.608  0.2879  0.3240  0.7481
 6433TIP3    H140714   0.348   4.900  15.680 -2.1492  0.3278  2.9066
 6433TIP3    H240715   0.310   5.010  15.584  2.9376 -0.5261 -0.5091
 6434TIP3   OH240716   2.787   2.191   3.437  0.2937 -0.2351 -0.0307
 6434TIP3    H140717   2.761   2.251   3.507  2.5136  0.5869  0.1681
 6434TIP3    H240718   2.835   2.121   3.481  0.0339 -0.7499 -0.5480
 6435TIP3   OH240719   6.019   0.351  10.824  0.4775  0.2700 -0.0355
 6435TIP3    H140720   6.024   0.267  10.870 -1.3775  0.8651  1.3658
 6435TIP3    H240721   5.963   0.405  10.879  1.9537  2.6066 -0.7016
 6436TIP3   OH240722   5.284   6.617   4.022 -0.4715  1.0758 -0.2846
 6436TIP3    H140723   5.260   6.576   4.105  1.9387 -0.8193 -0.3944
 6436TIP3    H240724   5.346   6.686   4.047  0.7953  0.0462 -0.4995
 6437TIP3   OH240725   5.550   5.288  15.670 -0.4076  0.3090 -0.1724
 6437TIP3    H140726   5.517   5.206  15.706  0.5419  0.9639  2.3867
 6437TIP3    H240727   5.595   5.262  15.590  0.3395 -1.7748  0.8382
 6438TIP3   OH240728   0.257   2.051   3.756  0.2280 -0.2738  0.4125
 6438TIP3    H140729   0.192   2.115   3.728  1.3950  0.3552 -0.9998
 6438TIP3    H240730   0.316   2.099   3.813  0.0397 -0.5851  0.8745
 6439TIP3   OH240731   5.936   2.193  13.299  0.1220  0.0718  0.2660
 6439TIP3    H140732   6.013   2.168  13.248  0.0443  0.1031  0.1335
 6439TIP3    H240733   5.966   2.268  13.352  0.4956 -0.6035  1.0327
 6440TIP3   OH240734   3.688   2.192  13.860  0.9666  0.0091  0.0474
 6440TIP3    H140735   3.660   2.258  13.924  0.3327 -0.9982  0.8505
 6440TIP3    H240736   3.766   2.152  13.900  0.4438 -0.7698  0.3161
 6441TIP3   OH240737   0.098   0.689   7.054  0.3643 -0.3429 -0.0518
 6441TIP3    H140738   0.015   0.648   7.031  0.8211 -0.5545 -1.3975
 6441TIP3    H240739   0.157   0.615   7.073  0.4554 -0.2191  0.1525
 6442TIP3   OH240740   2.683   1.405  14.963 -0.0426 -0.0315 -0.4935
 6442TIP3    H140741   2.647   1.488  14.993  0.6744  0.3732 -0.7221
 6442TIP3    H240742   2.776   1.410  14.984  0.0289 -0.7375 -0.6023
 6443TIP3   OH240743   2.628   0.010   3.199 -0.3775  0.1817  0.2255
 6443TIP3    H140744   2.583  -0.068   3.232  0.5924 -0.1360  0.8587
 6443TIP3    H240745   2.678  -0.021   3.124  2.0583 -0.4688  1.9682
 6444TIP3   OH240746   2.581   3.790   3.052  0.1566 -0.0333  0.2627
 6444TIP3    H140747   2.539   3.875   3.041 -1.1861 -0.8639 -1.4753
 6444TIP3    H240748   2.518   3.738   3.101  0.0388 -0.6557 -0.5262
 6445TIP3   OH240749   6.479   1.242  16.195  0.0103  0.0833 -0.5214
 6445TIP3    H140750   6.429   1.316  16.231 -0.6173 -0.3029 -0.5778
 6445TIP3    H240751   6.439   1.226  16.110 -2.6137 -2.8798  1.0746
 6446TIP3   OH240752   3.493   2.059  13.699  0.3466  0.0724  0.1752
 6446TIP3    H140753   3.542   2.102  13.769 -1.6905  2.1835  0.3878
 6446TIP3    H240754   3.409   2.037  13.738 -0.1894 -0.3149 -1.1463
 6447TIP3   OH240755   1.087   5.936  14.114 -0.6935 -0.0456 -0.5093
 6447TIP3    H140756   1.026   5.997  14.156 -0.7470  1.0357 -2.1012
 6447TIP3    H240757   1.042   5.908  14.034  0.2385 -0.4886 -0.8913
 6448TIP3   OH240758   2.436   2.414   1.274  0.0761 -0.1165 -0.0965
 6448TIP3    H140759   2.423   2.329   1.231 -1.2763  0.0353 -0.0342
 6448TIP3    H240760   2.453   2.475   1.202 -0.0297 -0.2423 -0.2286
 6449TIP3   OH240761   4.416   3.039  15.791  0.6846 -0.0106 -0.6812
 6449TIP3    H140762   4.477   3.077  15.854  0.8306 -1.5174  0.1497
 6449TIP3    H240763   4.332   3.083  15.808  0.6430 -0.6245  0.8210
 6450TIP3   OH240764   6.299   5.155  13.073  0.8620  0.1792 -0.5962
 6450TIP3    H140765   6.276   5.066  13.101 -0.0622  0.8769  0.9957
 6450TIP3    H240766   6.231   5.178  13.010  1.3853 -0.3907 -1.3995
 6451TIP3   OH240767   0.350   1.851  12.952  0.3461  0.4490  0.3286
 6451TIP3    H140768   0.331   1.924  12.893  1.7377  0.3535 -0.2585
 6451TIP3    H240769   0.366   1.776  12.894 -2.0472 -0.6288  0.9283
 6452TIP3   OH240770   5.614   6.607  12.240 -0.6187  0.2111 -0.4017
 6452TIP3    H140771   5.617   6.658  12.321  0.5459  1.0353 -0.9246
 6452TIP3    H240772   5.702   6.616  12.203 -0.8044 -1.0603 -1.2077
 6453TIP3   OH240773   5.584   2.017   4.270 -0.7719  0.0383 -0.0033
 6453TIP3    H140774   5.623   2.100   4.299  0.4607 -0.4845 -0.1059
 6453TIP3    H240775   5.588   2.020   4.175 -0.0088 -0.4552  0.0042
 6454TIP3   OH240776   4.109   5.804  15.995 -0.5624 -0.3123 -0.3042
 6454TIP3    H140777   4.047   5.837  15.929 -0.6037 -0.7162 -0.4643
 6454TIP3    H240778   4.103   5.709  15.989  1.2565 -0.3954 -1.4455
 6455TIP3   OH240779   2.663   6.424  14.323  0.2827 -0.2026  0.0139
 6455TIP3    H140780   2.740   6.405  14.270  0.0341 -1.4368  0.0725
 6455TIP3    H240781   2.613   6.343  14.322 -2.1815  1.1931 -1.9164
 6456TIP3   OH240782   4.093   5.454   4.550  0.3344 -0.2174 -0.6045
 6456TIP3    H140783   4.180   5.426   4.521  0.2919  1.0345 -2.1099
 6456TIP3    H240784   4.067   5.520   4.486 -0.9510  0.7776  0.8643
 6457TIP3   OH240785   5.653   3.728  13.067  0.2140 -0.6780  0.2882
 6457TIP3    H140786   5.696   3.810  13.043  0.4706 -0.9533 -0.2142
 6457TIP3    H240787   5.578   3.754  13.120 -0.4491 -0.0408 -0.9194
 6458TIP3   OH240788   2.270   0.762   3.395  0.1885 -0.0257 -0.6726
 6458TIP3    H140789   2.332   0.712   3.448  1.3470  0.0084 -1.9466
 6458TIP3    H240790   2.201   0.788   3.457  0.0531 -2.3170  0.2387
 6459TIP3   OH240791   5.687   2.779  13.068  0.1181  0.1684  0.0873
 6459TIP3    H140792   5.756   2.821  13.017  0.3179  2.0313  1.7758
 6459TIP3    H240793   5.733   2.732  13.137 -0.2499  0.2169  0.3702
 6460TIP3   OH240794   5.220   5.528  14.127 -0.4067  0.2545  0.1731
 6460TIP3    H140795   5.246   5.436  14.120  0.5113  0.3781  1.5097
 6460TIP3    H240796   5.297   5.571  14.165 -0.6858  1.6553 -0.7701
 6461TIP3   OH240797   5.152   1.553  17.151 -0.0744  0.4247 -0.0644
 6461TIP3    H140798   5.069   1.569  17.195 -0.6912 -1.5406 -0.3961
 6461TIP3    H240799   5.209   1.519  17.220 -0.0628  0.2624 -0.1535
 6462TIP3   OH240800   4.933   5.524  14.352  0.4530 -0.2135 -0.2459
 6462TIP3    H140801   4.964   5.465  14.282  1.5892  0.0339  0.0275
 6462TIP3    H240802   5.013   5.558  14.391 -0.1830  0.1378  0.7783
 6463TIP3   OH240803   4.307   4.282  11.719 -0.3196  0.0258 -0.0484
 6463TIP3    H140804   4.268   4.369  11.722  0.1823  0.2428  0.2834
 6463TIP3    H240805   4.257   4.236  11.652 -0.1463  0.7826 -0.7153
 6464TIP3   OH240806   2.716   6.162   5.112 -0.4827 -0.4778  0.3931
 6464TIP3    H140807   2.763   6.215   5.048  0.0373 -0.7309  0.5581
 6464TIP3    H240808   2.645   6.122   5.062  0.3321 -1.2358 -0.2177
 6465TIP3   OH240809   5.835   5.009   2.713 -0.3219 -0.0121 -0.4827
 6465TIP3    H140810   5.817   4.965   2.796 -0.1943 -0.8670 -0.8984
 6465TIP3    H240811   5.799   4.950   2.646  1.0648 -0.1616 -1.1311
 6466TIP3   OH240812   2.420   0.204   2.523  0.1404 -0.1327  0.2122
 6466TIP3    H140813   2.343   0.203   2.465  0.6040  2.4829 -0.5970
 6466TIP3    H240814   2.391   0.255   2.599  0.7336 -0.1543  0.4534
 6467TIP3   OH240815   6.512   5.264  15.897  0.1400 -0.5622 -0.0118
 6467TIP3    H140816   6.452   5.279  15.970  0.5746  0.2683  0.1749
 6467TIP3    H240817   6.508   5.344  15.845 -0.2708 -1.1913 -0.9884
 6468TIP3   OH240818   0.129   3.149  12.039  0.3477  0.1175 -0.0571
 6468TIP3    H140819   0.130   3.228  12.092  0.6777 -0.3278  0.6040
 6468TIP3    H240820   0.215   3.145  11.998  0.1651  0.3497 -0.4759
 6469TIP3   OH240821   0.407   4.015   3.573 -0.4953  0.2872  0.1487
 6469TIP3    H140822   0.322   4.058   3.584 -0.7850 -0.5797  1.4906
 6469TIP3    H240823   0.386   3.922   3.568  0.2876  0.1533 -0.7836
 6470TIP3   OH240824   2.965   3.652   2.540 -0.2135  0.2893  0.5957
 6470TIP3    H140825   3.004   3.646   2.453 -0.0477  4.2554  0.2068
 6470TIP3    H240826   2.901   3.581   2.542 -0.7473  0.4539 -3.0911
 6471TIP3   OH240827   1.745   6.688   1.197  0.0452 -0.2834 -0.7299
 6471TIP3    H140828   1.654   6.689   1.225  0.2912  2.4056  0.3623
 6471TIP3    H240829   1.755   6.769   1.146  1.9616 -0.1022 -0.1598
 6472TIP3   OH240830   5.740   5.252  11.811 -0.3103 -0.0015  0.2031
 6472TIP3    H140831   5.768   5.298  11.732 -1.1963 -0.5957 -0.4754
 6472TIP3    H240832   5.718   5.164  11.781 -0.4987 -0.2833  1.1424
 6473TIP3   OH240833   3.887   1.297   2.008  0.2312 -0.2906 -0.2328
 6473TIP3    H140834   3.820   1.276   1.943  1.0349  0.4928 -1.3665
 6473TIP3    H240835   3.888   1.393   2.011  1.2806 -0.2841 -0.2507
 6474TIP3   OH240836   3.798   2.416   5.924 -0.7997 -0.3232  0.1319
 6474TIP3    H140837   3.810   2.505   5.889  0.3985  0.6092  2.6362
 6474TIP3    H240838   3.812   2.426   6.019  0.5148 -3.3936  0.3631
 6475TIP3   OH240839   3.538   4.015  12.387  0.0742  0.3499  0.0480
 6475TIP3    H140840   3.595   3.939  12.397 -1.6191 -0.8267  1.1201
 6475TIP3    H240841   3.549   4.065  12.468  1.1294  1.2536 -0.6237
 6476TIP3   OH240842   2.614   5.033  15.346  0.4645  0.9087 -0.4461
 6476TIP3    H140843   2.523   5.024  15.319  0.0746  0.4866  0.9571
 6476TIP3    H240844   2.626   4.967  15.413  1.5917  1.4749 -0.0646
 6477TIP3   OH240845   4.586   2.055   1.553 -0.7799 -0.1322  0.2129
 6477TIP3    H140846   4.630   2.137   1.530 -0.8155 -0.0112  0.5667
 6477TIP3    H240847   4.576   2.059   1.649 -0.6663 -0.6034  0.2489
 6478TIP3   OH240848   0.589   4.702   3.279  0.1379  0.1458  0.0327
 6478TIP3    H140849   0.538   4.647   3.220  0.1345 -0.8134  0.9050
 6478TIP3    H240850   0.601   4.784   3.231  2.2418 -1.4106 -2.3420
 6479TIP3   OH240851   5.809   0.365  16.199 -0.5256 -0.0213 -0.1811
 6479TIP3    H140852   5.837   0.356  16.290 -1.3046 -0.7095  0.0038
 6479TIP3    H240853   5.864   0.303  16.151 -0.6478 -0.2212 -0.0624
 6480TIP3   OH240854   4.205   6.564   3.168  0.3700  0.5076 -0.0645
 6480TIP3    H140855   4.282   6.529   3.123  0.2977  0.9458 -0.5440
 6480TIP3    H240856   4.160   6.617   3.101 -0.8263 -0.4521 -0.0559
 6481TIP3   OH240857   4.800   6.639   0.140  0.1838 -0.1313 -0.1722
 6481TIP3    H140858   4.739   6.605   0.205 -2.1327  1.0386 -1.6305
 6481TIP3    H240859   4.844   6.560   0.106 -0.4408 -0.9935  0.9486
 6482TIP3   OH240860   2.140   5.528   4.878  0.4548  0.1405  0.6213
 6482TIP3    H140861   2.138   5.598   4.813  2.2367  0.1237  0.4955
 6482TIP3    H240862   2.182   5.455   4.833 -0.7521 -0.8026  0.9675
 6483TIP3   OH240863   2.617   2.659  15.492 -0.4245 -0.6239  0.1833
 6483TIP3    H140864   2.619   2.673  15.397  2.2161  1.7446  0.4344
 6483TIP3    H240865   2.542   2.710  15.522 -0.4489 -0.2306 -0.5148
 6484TIP3   OH240866   3.395   4.484   1.196  0.9182 -0.0418 -0.5941
 6484TIP3    H140867   3.481   4.520   1.177  0.1152  1.1948 -2.1187
 6484TIP3    H240868   3.337   4.526   1.133 -0.5211 -2.1449 -0.7823
 6485TIP3   OH240869   6.377   0.351   4.196  0.3621 -0.7200  0.3783
 6485TIP3    H140870   6.381   0.417   4.266 -0.2085 -1.6580  1.3226
 6485TIP3    H240871   6.340   0.398   4.121  0.2148  0.1037  0.9535
 6486TIP3   OH240872   0.880   0.806   3.067 -0.1450  0.6063 -0.0888
 6486TIP3    H140873   0.882   0.879   3.129 -1.4205  0.3182  0.3321
 6486TIP3    H240874   0.939   0.741   3.105 -0.4856  0.6566  0.5594
 6487TIP3   OH240875   1.762   3.866   1.814 -0.3812  0.0981 -0.0503
 6487TIP3    H140876   1.749   3.772   1.823 -1.5023  0.2183 -0.3170
 6487TIP3    H240877   1.852   3.881   1.843 -0.2482 -1.0305  0.1355
 6488TIP3   OH240878   6.249   5.352   6.153  0.3810  0.1030  0.4212
 6488TIP3    H140879   6.258   5.379   6.244  1.9472 -0.5306  0.4785
 6488TIP3    H240880   6.246   5.434   6.103  1.8499  0.4336  0.8531
 6489TIP3   OH240881   1.202   1.228  14.999  0.2360 -0.2938  0.3925
 6489TIP3    H140882   1.235   1.144  14.967  0.0624  0.1135 -0.9040
 6489TIP3    H240883   1.259   1.249  15.073 -0.0419 -1.7807  1.0729
 6490TIP3   OH240884   5.268   6.316  13.884  0.1453  0.1965 -0.3956
 6490TIP3    H140885   5.214   6.240  13.861 -0.8450  0.8881 -0.4216
 6490TIP3    H240886   5.357   6.281  13.890 -0.4369 -1.2088  0.7464
 6491TIP3   OH240887   0.295   1.559  14.329  0.2679  0.0934 -0.1111
 6491TIP3    H140888   0.381   1.582  14.293  0.1358  0.4938 -0.1751
 6491TIP3    H240889   0.265   1.487  14.273  0.6787 -0.2316  0.0820
 6492TIP3   OH240890   1.563   1.832   3.792  0.2033 -0.1938  0.3694
 6492TIP3    H140891   1.648   1.840   3.748  1.0540  1.6717  2.1547
 6492TIP3    H240892   1.521   1.917   3.776 -0.4865 -0.3900  1.1377
 6493TIP3   OH240893   2.719   5.926  16.065  0.1042 -0.2738 -0.2561
 6493TIP3    H140894   2.804   5.889  16.088  0.1901 -0.1644 -0.3903
 6493TIP3    H240895   2.691   5.878  15.987 -0.0213 -0.4036 -0.1316
 6494TIP3   OH240896   0.118   5.143   1.438  0.3131  0.7685  0.3896
 6494TIP3    H140897   0.151   5.218   1.486 -0.9169  1.4792  0.1754
 6494TIP3    H240898   0.033   5.124   1.478  0.1601  0.1240 -0.2027
 6495TIP3   OH240899   4.311   6.579  16.014  0.4197 -0.3094 -0.5394
 6495TIP3    H140900   4.301   6.566  15.920  0.7021 -1.7344 -0.3868
 6495TIP3    H240901   4.403   6.561  16.032 -0.1630 -2.8446  0.3833
 6496TIP3   OH240902   4.722   1.347   3.275 -0.0717 -0.7050  0.4024
 6496TIP3    H140903   4.685   1.300   3.351 -0.0705  0.8597  1.4142
 6496TIP3    H240904   4.687   1.301   3.199 -0.5305 -1.9764  1.3423
 6497TIP3   OH240905   2.326   5.375  11.712  0.5935 -0.4540  0.0966
 6497TIP3    H140906   2.357   5.316  11.644  1.5954  1.5716 -1.3176
 6497TIP3    H240907   2.320   5.460  11.669 -2.9008  0.1508  1.4555
 6498TIP3   OH240908   0.178   2.505  11.507 -0.0908  0.5020 -0.3834
 6498TIP3    H140909   0.100   2.470  11.549  0.4450 -0.5459 -0.2311
 6498TIP3    H240910   0.206   2.436  11.446  0.4106  1.0789 -0.8181
 6499TIP3   OH240911   4.448   1.337   4.924  0.5715  0.3956  0.5200
 6499TIP3    H140912   4.498   1.412   4.956 -0.9735  2.4833 -1.5757
 6499TIP3    H240913   4.505   1.297   4.858 -0.0158  2.1268 -1.1078
 6500TIP3   OH240914   4.740   2.083   4.316  0.2248  0.0138  0.8700
 6500TIP3    H140915   4.675   2.053   4.380 -0.7816  1.9077  0.8110
 6500TIP3    H240916   4.813   2.116   4.369  0.8078 -1.3075  0.9444
 6501TIP3   OH240917   3.400   0.429  11.475  0.7349  0.0131  0.4821
 6501TIP3    H140918   3.477   0.484  11.462  1.8283 -1.3853  0.7959
 6501TIP3    H240919   3.435   0.341  11.491 -0.9725 -1.1488 -1.5573
 6502TIP3   OH240920   6.168   6.713  17.252  0.0424  0.5721  0.1136
 6502TIP3    H140921   6.208   6.627  17.237 -2.3984 -0.7020  0.3110
 6502TIP3    H240922   6.191   6.734  17.343  0.3142 -0.0968  0.2085
 6503TIP3   OH240923   1.472   3.110   1.045 -0.0124 -0.1019 -0.0417
 6503TIP3    H140924   1.412   3.122   0.971  0.0592 -1.5639 -0.3713
 6503TIP3    H240925   1.554   3.149   1.016  0.1020 -0.9266 -0.8792
 6504TIP3   OH240926   3.339   3.382   1.023  0.1227  0.3762  0.3559
 6504TIP3    H140927   3.273   3.314   1.008 -0.2248  0.5697  0.9693
 6504TIP3    H240928   3.369   3.366   1.112 -0.9254  1.8308  1.0063
 6505TIP3   OH240929   1.814   1.120   4.262  0.4835  0.0954  0.4164
 6505TIP3    H140930   1.799   1.184   4.192  1.7339 -0.0022  0.0332
 6505TIP3    H240931   1.897   1.147   4.301  1.3926 -1.6552 -0.1881
 6506TIP3   OH240932   4.779   3.497   1.243 -0.7034 -0.0869 -0.9829
 6506TIP3    H140933   4.748   3.561   1.308 -2.1120 -0.8687 -0.8450
 6506TIP3    H240934   4.779   3.546   1.161  1.5748  1.0619 -0.3941
 6507TIP3   OH240935   4.810   3.031   1.573  0.6207 -0.5401 -0.2025
 6507TIP3    H140936   4.887   3.088   1.580  0.5160 -0.3025 -0.9210
 6507TIP3    H240937   4.736   3.090   1.586  0.3500  0.1112 -3.6474
 6508TIP3   OH240938   5.963   5.816   0.171  0.6289  0.6648  0.4524
 6508TIP3    H140939   5.870   5.827   0.153 -0.0534 -1.9244  1.9683
 6508TIP3    H240940   6.007   5.858   0.097 -1.7375  0.8953 -0.9030
 6509TIP3   OH240941   4.121   6.435   4.070  0.1467  0.2708 -0.1380
 6509TIP3    H140942   4.190   6.370   4.085  1.1452  1.2542 -0.2609
 6509TIP3    H240943   4.133   6.499   4.140 -1.1359  0.0803  0.2709
 6510TIP3   OH240944   3.388   4.671  15.102 -0.6492 -0.0692  0.0044
 6510TIP3    H140945   3.448   4.717  15.160 -2.0527 -1.0150  2.3418
 6510TIP3    H240946   3.365   4.735  15.035  1.5535  0.8424  0.0580
 6511TIP3   OH240947   1.670   2.030   1.145 -0.4094  0.1675  0.1850
 6511TIP3    H140948   1.719   2.112   1.148  1.6797 -1.0288  0.7311
 6511TIP3    H240949   1.618   2.030   1.225 -0.2031  0.8218  0.3242
 6512TIP3   OH240950   3.092   5.671   0.850  0.1943 -0.2997 -0.0779
 6512TIP3    H140951   3.025   5.604   0.836  1.5356 -1.6519 -0.3022
 6512TIP3    H240952   3.056   5.750   0.808 -1.7880 -0.6129  0.9311
 6513TIP3   OH240953   6.477   2.726  14.253  0.2987 -0.2143 -0.4462
 6513TIP3    H140954   6.545   2.748  14.189  2.5926 -0.6481  1.6814
 6513TIP3    H240955   6.450   2.637  14.231  0.2644  0.0288 -1.4213
 6514TIP3   OH240956   1.346   4.613  14.931  0.1118 -0.2559  0.3622
 6514TIP3    H140957   1.427   4.566  14.950  2.1655  1.9012 -2.1521
 6514TIP3    H240958   1.374   4.704  14.916 -2.6167  0.4184 -1.4962
 6515TIP3   OH240959   6.415   5.527  14.980  0.3319 -0.3158  0.0919
 6515TIP3    H140960   6.344   5.468  14.954 -0.6935  0.3685  1.1926
 6515TIP3    H240961   6.480   5.519  14.910 -1.3947 -0.0005 -1.6468
 6516TIP3   OH240962   4.815   3.304   4.445 -0.3481  0.1080  0.3650
 6516TIP3    H140963   4.882   3.371   4.444 -1.3838  1.3240  2.9275
 6516TIP3    H240964   4.863   3.221   4.442  1.4085  0.9219  2.7122
 6517TIP3   OH240965   1.597   3.074   4.228 -0.4451  0.1482  0.3214
 6517TIP3    H140966   1.582   3.012   4.156  0.6116 -0.5857  0.7091
 6517TIP3    H240967   1.671   3.037   4.276  1.0490  2.3422 -0.1492
 6518TIP3   OH240968   2.213   3.397  14.319  0.4388 -0.2611 -0.2187
 6518TIP3    H140969   2.307   3.417  14.312  0.5257  0.8354  2.7229
 6518TIP3    H240970   2.206   3.344  14.398 -1.4280 -0.5990 -0.5714
 6519TIP3   OH240971   1.475   5.086   4.487 -0.0914 -0.1239  0.2082
 6519TIP3    H140972   1.434   5.171   4.476 -0.4922 -0.1127  1.6310
 6519TIP3    H240973   1.520   5.070   4.404 -0.4489  1.2242 -0.2652
 6520TIP3   OH240974   6.709   5.911  15.153 -0.4826  0.3318  0.3656
 6520TIP3    H140975   6.777   5.843  15.146  0.0944  0.9369  0.0056
 6520TIP3    H240976   6.666   5.910  15.068 -0.8866 -0.0024  0.5703
 6521TIP3   OH240977   0.674   1.631  17.439  0.2275  0.4351 -0.6242
 6521TIP3    H140978   0.731   1.586  17.502  1.2428  0.5838 -1.4174
 6521TIP3    H240979   0.678   1.578  17.360  0.3913  1.2037 -1.1435
 6522TIP3   OH240980   1.741   0.660  15.254  0.2512  0.0578 -0.1044
 6522TIP3    H140981   1.785   0.665  15.169 -1.0909  0.8602 -0.7704
 6522TIP3    H240982   1.648   0.671  15.235 -0.2000 -0.8403  1.3575
 6523TIP3   OH240983   1.012   0.510   0.259  0.2748 -0.4509 -0.0203
 6523TIP3    H140984   1.028   0.579   0.323  0.2078  1.1530 -1.6456
 6523TIP3    H240985   0.926   0.475   0.282  0.6592 -0.5523  1.3081
 6524TIP3   OH240986   4.735   5.593   5.511 -0.0585  0.2680  0.1607
 6524TIP3    H140987   4.779   5.672   5.479  0.0744  1.2395  2.5333
 6524TIP3    H240988   4.780   5.572   5.592 -0.0959 -2.3123 -0.3957
 6525TIP3   OH240989   3.332   4.748  16.935 -0.1065 -0.3645  0.1034
 6525TIP3    H140990   3.283   4.672  16.904 -0.5562  0.5988 -1.7029
 6525TIP3    H240991   3.385   4.715  17.007 -1.0783 -2.1400  0.0513
 6526TIP3   OH240992   4.602   5.099  15.014 -0.3653  0.0272 -0.0986
 6526TIP3    H140993   4.523   5.062  15.053  0.4675 -0.6953  0.9730
 6526TIP3    H240994   4.647   5.024  14.975  0.8642  0.0114  1.2561
 6527TIP3   OH240995   6.388   1.432  16.807 -0.2217  0.7259  0.1421
 6527TIP3    H140996   6.295   1.451  16.818 -0.7115 -0.9292 -0.7313
 6527TIP3    H240997   6.390   1.341  16.777  1.7793  0.1841  1.7387
 6528TIP3   OH240998   0.108   3.356   5.721  0.4206 -0.0348 -0.3918
 6528TIP3    H140999   0.067   3.404   5.793  0.8341  0.7823 -0.6850
 6528TIP3    H241000   0.201   3.375   5.729  0.5692 -0.6242 -0.6502
 6529TIP3   OH241001   6.303   1.251   2.191  0.0093 -0.3068  0.0590
 6529TIP3    H141002   6.322   1.188   2.260 -0.2615 -0.0756  0.3472
 6529TIP3    H241003   6.376   1.313   2.195 -1.1928  1.0912  1.7617
 6530TIP3   OH241004   1.400   5.659  15.959  0.2484  0.5157 -0.1555
 6530TIP3    H141005   1.399   5.567  15.935 -0.5027  0.0891  1.3737
 6530TIP3    H241006   1.437   5.704  15.883 -2.3371 -0.6396 -2.2453
 6531TIP3   OH241007   2.403   3.995  12.321  0.4294  0.2783 -0.0094
 6531TIP3    H141008   2.439   3.952  12.244  0.4583  0.2132  0.0404
 6531TIP3    H241009   2.468   4.060  12.345  1.9218 -1.7449  1.8021
 6532TIP3   OH241010   5.773   2.505  14.134 -0.2127 -0.6441 -0.4236
 6532TIP3    H141011   5.846   2.548  14.089 -1.3239  1.9469  0.0776
 6532TIP3    H241012   5.809   2.481  14.219 -0.0780  1.3529  0.1324
 6533TIP3   OH241013   0.689   2.010  12.085  0.3487  0.1636 -0.2446
 6533TIP3    H141014   0.649   1.950  12.149  3.5246 -2.4791 -0.4459
 6533TIP3    H241015   0.653   1.983  12.001  1.1660 -1.0547 -0.2373
 6534TIP3   OH241016   3.256   0.918   5.144  0.3240  0.5599 -0.2327
 6534TIP3    H141017   3.250   0.905   5.239 -2.0195 -0.2974 -0.4392
 6534TIP3    H241018   3.208   0.844   5.107  1.1049  0.9460 -2.1009
 6535TIP3   OH241019   6.068   6.189   3.389 -0.5500  0.4449 -0.2833
 6535TIP3    H141020   6.071   6.163   3.481  0.6300  1.5796  0.0240
 6535TIP3    H241021   5.977   6.215   3.374 -0.8909 -0.3341  0.3780
 6536TIP3   OH241022   6.438   0.889  15.942 -0.3658  0.6935 -0.0801
 6536TIP3    H141023   6.483   0.829  15.883 -0.0136  0.6132  0.2660
 6536TIP3    H241024   6.348   0.856  15.946 -0.1625  0.1576  0.1439
 6537TIP3   OH241025   5.169   5.067   4.725  0.1364  0.1532  0.1237
 6537TIP3    H141026   5.116   4.993   4.697  0.4761 -0.4482  1.0066
 6537TIP3    H241027   5.207   5.102   4.645 -1.0088  0.1425 -0.4325
 6538TIP3   OH241028   5.645   5.119   0.663 -0.1471 -0.5887 -0.4832
 6538TIP3    H141029   5.711   5.165   0.611 -0.8736  1.6033  0.4376
 6538TIP3    H241030   5.568   5.115   0.607 -0.2507 -0.2006 -0.3681
 6539TIP3   OH241031   1.733   6.323  10.924  0.1843  0.1355 -0.6981
 6539TIP3    H141032   1.749   6.399  10.867 -0.8793  1.4080  0.6048
 6539TIP3    H241033   1.821   6.288  10.941  1.1105  2.8388  0.8978
 6540TIP3   OH241034   5.948   5.014  10.943 -0.0265  0.7899  0.0154
 6540TIP3    H141035   5.977   4.935  10.896 -1.2311  0.5574 -0.3740
 6540TIP3    H241036   5.916   5.072  10.874 -0.2446  1.1382  0.4051
 6541TIP3   OH241037   3.002   6.459  12.891  0.3070 -0.6365  0.0689
 6541TIP3    H141038   2.915   6.468  12.929  0.0057 -1.1247 -0.4834
 6541TIP3    H241039   3.062   6.476  12.964 -0.2412  0.0167  0.3789
 6542TIP3   OH241040   0.357   5.504   2.726 -0.3096 -0.1041  0.4410
 6542TIP3    H141041   0.382   5.574   2.666 -0.2236 -1.0579 -0.6793
 6542TIP3    H241042   0.373   5.424   2.676 -0.1122 -0.9334  1.8044
 6543TIP3   OH241043   4.569   4.395   0.176  0.0450 -0.2829 -0.5298
 6543TIP3    H141044   4.527   4.313   0.149 -2.0880  0.6117 -0.1525
 6543TIP3    H241045   4.597   4.379   0.266  0.7722 -0.9827 -0.8707
 6544TIP3   OH241046   5.348   6.257  10.864  0.1561 -0.2504  0.4307
 6544TIP3    H141047   5.379   6.295  10.946 -1.5560  1.2671  0.4367
 6544TIP3    H241048   5.261   6.223  10.885 -0.5982  0.7714 -0.8610
 6545TIP3   OH241049   2.311   3.467  16.634 -0.2182 -0.1388 -0.2818
 6545TIP3    H141050   2.280   3.552  16.604 -0.8740  0.2603  1.4216
 6545TIP3    H241051   2.337   3.481  16.725 -1.3886 -1.9756  0.4034
 6546TIP3   OH241052   0.645   4.465  13.134 -0.0778  0.1703  0.2407
 6546TIP3    H141053   0.585   4.442  13.205  1.3230 -0.6943  1.2042
 6546TIP3    H241054   0.593   4.453  13.054 -0.9980 -1.1909  0.9940
 6547TIP3   OH241055   2.335   1.648   2.861 -0.0399  0.3286 -0.0426
 6547TIP3    H141056   2.262   1.595   2.894 -0.6227  1.2655  0.2337
 6547TIP3    H241057   2.367   1.696   2.938  1.6847 -0.9518  0.0951
 6548TIP3   OH241058   4.691   3.419  14.216 -1.0812 -0.3277 -0.5903
 6548TIP3    H141059   4.596   3.424  14.210 -1.0653  0.2843 -0.3943
 6548TIP3    H241060   4.710   3.414  14.309 -0.9087 -0.1523 -0.6142
 6549TIP3   OH241061   1.980   3.760   5.649  0.1350 -0.0194  0.2721
 6549TIP3    H141062   2.070   3.765   5.615 -0.0575  0.8894 -0.1139
 6549TIP3    H241063   1.938   3.693   5.596  0.4729 -0.1626  0.1823
 6550TIP3   OH241064   5.754   3.279  12.624  0.1777 -0.1370 -0.2472
 6550TIP3    H141065   5.714   3.269  12.538 -0.6699  0.6683  0.0502
 6550TIP3    H241066   5.827   3.339  12.610  0.2582 -0.2846 -0.4658
 6551TIP3   OH241067   0.085   3.494  10.746  0.4948  0.6971  0.1593
 6551TIP3    H141068   0.052   3.405  10.758  1.1469  0.6365  1.6170
 6551TIP3    H241069   0.178   3.484  10.730  0.5849  1.1177  0.3987
 6552TIP3   OH241070   3.054   0.831   2.761  0.0004 -0.0376 -0.9454
 6552TIP3    H141071   3.110   0.775   2.815  0.1381  1.3456  0.4265
 6552TIP3    H241072   2.969   0.786   2.759 -0.1015  0.0170  0.7217
 6553TIP3   OH241073   1.495   2.457  13.287 -0.7942  0.1167 -0.0235
 6553TIP3    H141074   1.580   2.495  13.265 -1.0810  0.4171 -0.6357
 6553TIP3    H241075   1.516   2.382  13.342  0.0798 -1.7323 -2.6800
 6554TIP3   OH241076   6.395   3.509   5.193  0.0103  0.2442 -0.0329
 6554TIP3    H141077   6.372   3.553   5.275 -0.9526 -0.5116  0.1278
 6554TIP3    H241078   6.450   3.435   5.219  2.0208  1.5589 -0.3443
 6555TIP3   OH241079   6.573   5.553   5.638  0.0574  0.0004 -0.0489
 6555TIP3    H141080   6.509   5.520   5.701  0.3043  1.6769  1.1532
 6555TIP3    H241081   6.655   5.509   5.662 -0.0915 -0.2115  0.0726
 6556TIP3   OH241082   4.112   2.162   3.816  0.0097  0.0504 -0.1159
 6556TIP3    H141083   4.115   2.245   3.863  0.6941 -0.2833  0.4536
 6556TIP3    H241084   4.204   2.139   3.801 -0.1336 -1.1121  0.6655
 6557TIP3   OH241085   2.682   5.949   2.298 -0.3633  0.3558  0.1247
 6557TIP3    H141086   2.703   6.013   2.230 -0.7672  1.5774  1.0918
 6557TIP3    H241087   2.723   5.868   2.270  0.5212  1.1553 -0.9478
 6558TIP3   OH241088   6.715   1.412  11.890 -0.3209  0.7114  0.1679
 6558TIP3    H141089   6.681   1.454  11.968 -0.3161  0.4331  0.3226
 6558TIP3    H241090   6.680   1.323  11.894 -0.0529  0.5990  0.0246
 6559TIP3   OH241091   0.547   5.695  14.245  0.6648 -0.6733  0.2220
 6559TIP3    H141092   0.495   5.772  14.268  1.3256 -0.5568  1.4125
 6559TIP3    H241093   0.556   5.700  14.150 -1.0173 -0.4154  0.0453
 6560TIP3   OH241094   3.323   1.637   3.814 -0.0684 -1.5060 -0.1847
 6560TIP3    H141095   3.396   1.611   3.758  0.1131  0.4694 -0.9421
 6560TIP3    H241096   3.331   1.732   3.822 -0.6820 -1.5972  2.4014
 6561TIP3   OH241097   1.351   4.446  16.780  0.2309 -0.7518 -0.2370
 6561TIP3    H141098   1.256   4.443  16.788  0.2663 -3.4588 -0.1050
 6561TIP3    H241099   1.383   4.446  16.870  0.3667 -0.3572 -0.2847
 6562TIP3   OH241100   5.625   3.533   3.385  0.3475  0.3360 -0.0105
 6562TIP3    H141101   5.638   3.530   3.480 -0.4876  0.8182  0.1349
 6562TIP3    H241102   5.696   3.588   3.353  0.3561  0.5700  0.3988
 6563TIP3   OH241103   6.438   0.075   5.228 -0.9046  0.1564  0.7180
 6563TIP3    H141104   6.478   0.147   5.180  1.2354 -1.0110  0.6185
 6563TIP3    H241105   6.506   0.047   5.290 -2.1545 -0.9384  1.6474
 6564TIP3   OH241106   2.170   3.435  13.364  0.0434  0.1526  0.1138
 6564TIP3    H141107   2.107   3.377  13.322  1.2132  0.0369 -1.5856
 6564TIP3    H241108   2.256   3.397  13.344  0.7896  1.8237 -0.0822
 6565TIP3   OH241109   1.049   3.676   1.853  0.3526 -0.1953 -0.4515
 6565TIP3    H141110   1.053   3.595   1.903  3.1853 -0.8011 -1.5181
 6565TIP3    H241111   0.958   3.681   1.823 -0.2694 -2.1229  0.9138
 6566TIP3   OH241112   5.251   4.379  13.263 -0.3981 -0.2849 -0.5197
 6566TIP3    H141113   5.275   4.302  13.315 -0.2569 -0.6713 -1.1486
 6566TIP3    H241114   5.172   4.352  13.216 -0.9533  0.3151  0.0484
 6567TIP3   OH241115   2.390   0.399   0.285  0.3356 -0.3427  0.7012
 6567TIP3    H141116   2.344   0.315   0.274  2.9181 -1.8822  0.7260
 6567TIP3    H241117   2.389   0.438   0.197  0.4809 -1.1923  0.3109
 6568TIP3   OH241118   0.974   1.654   5.912 -0.1062 -0.1321 -0.1246
 6568TIP3    H141119   0.915   1.729   5.920 -2.0273 -1.6441  0.7741
 6568TIP3    H241120   0.926   1.593   5.856  0.4547 -1.5549  0.9177
 6569TIP3   OH241121   3.375   3.860  14.922 -0.2496  0.4829  0.2502
 6569TIP3    H141122   3.384   3.932  14.859 -3.4992  0.5548 -0.2794
 6569TIP3    H241123   3.346   3.902  15.003 -1.0968 -0.1119  0.2621
 6570TIP3   OH241124   1.203   2.565  15.281  0.9277 -0.5648 -0.1530
 6570TIP3    H141125   1.186   2.502  15.211  1.5577 -0.3401 -0.5257
 6570TIP3    H241126   1.282   2.612  15.251 -0.2689  1.2975 -0.5485
 6571TIP3   OH241127   2.432   2.525   4.159  0.4584  0.0416 -0.2710
 6571TIP3    H141128   2.350   2.518   4.209  0.9438  0.6393  0.6437
 6571TIP3    H241129   2.479   2.444   4.179  0.1593 -0.2362 -0.6804
 6572TIP3   OH241130   2.997   4.643  14.267 -0.2520 -0.7566 -0.5794
 6572TIP3    H141131   3.041   4.630  14.183 -0.2631  1.4643 -0.9906
 6572TIP3    H241132   2.911   4.603  14.256 -0.1014 -0.8495 -1.4784
 6573TIP3   OH241133   0.804   3.331  12.905  0.1432  0.2911 -0.5721
 6573TIP3    H141134   0.838   3.259  12.958  0.2226 -0.4772 -1.6348
 6573TIP3    H241135   0.881   3.385  12.886 -0.1929  1.7544  1.7724
 6574TIP3   OH241136   0.360   1.419  12.532  0.1379 -0.6340 -0.1419
 6574TIP3    H141137   0.443   1.463  12.512 -0.3987  0.2884 -0.4469
 6574TIP3    H241138   0.320   1.404  12.446 -1.9735  2.9180 -0.0232
 6575TIP3   OH241139   1.260   5.550   1.442 -0.6129 -0.0882  0.6756
 6575TIP3    H141140   1.245   5.482   1.507 -0.8995  1.4820  2.3256
 6575TIP3    H241141   1.355   5.563   1.442 -0.6269  0.0186  0.9046
 6576TIP3   OH241142   5.692   1.477  17.157 -0.0531 -0.7335 -0.4266
 6576TIP3    H141143   5.707   1.392  17.116  1.3556 -0.6807 -0.0679
 6576TIP3    H241144   5.748   1.476  17.235 -2.4056 -0.7220  1.3953
 6577TIP3   OH241145   4.792   2.032   5.222 -0.8397 -0.5584  0.5804
 6577TIP3    H141146   4.764   2.103   5.281 -0.8616 -0.5771  0.5926
 6577TIP3    H241147   4.726   2.032   5.152 -0.3075  0.0611  0.0744
 6578TIP3   OH241148   5.057   0.373   5.046 -0.1214  0.0558 -0.1040
 6578TIP3    H141149   5.105   0.367   5.129  1.3463  3.0364 -0.5963
 6578TIP3    H241150   4.980   0.427   5.067 -1.5928 -1.9630 -0.0414
 6579TIP3   OH241151   0.564   5.637   3.477  0.4370  0.1034 -0.6250
 6579TIP3    H141152   0.604   5.656   3.393  2.0438  0.6161  0.2127
 6579TIP3    H241153   0.572   5.719   3.527 -2.0132  0.3608 -0.5088
 6580TIP3   OH241154   1.730   5.991  10.887 -0.3363  0.2325 -0.0737
 6580TIP3    H141155   1.794   5.937  10.840 -2.4905 -1.2076 -1.5338
 6580TIP3    H241156   1.646   5.947  10.873 -1.9619  2.9900  0.2190
 6581TIP3   OH241157   1.236   2.654   2.155  0.0250 -0.1160 -0.2829
 6581TIP3    H141158   1.327   2.667   2.181 -0.6309  2.3781  1.0111
 6581TIP3    H241159   1.191   2.733   2.182 -2.8299 -1.8016  0.3366
 6582TIP3   OH241160   5.286   0.533  11.618 -0.0125  0.2930 -0.1238
 6582TIP3    H141161   5.209   0.580  11.650 -1.9978 -1.4570 -1.9835
 6582TIP3    H241162   5.302   0.570  11.531  0.4992 -0.1789 -0.2331
 6583TIP3   OH241163   5.372   5.119   0.098 -0.4146 -0.0064 -0.1889
 6583TIP3    H141164   5.304   5.170   0.053 -1.2991 -2.0250 -1.2742
 6583TIP3    H241165   5.449   5.175   0.096 -0.8747  0.6740 -2.7702
 6584TIP3   OH241166   4.503   1.763  14.818 -0.0975  0.0620 -0.1000
 6584TIP3    H141167   4.448   1.838  14.797  0.4097  0.4616 -0.0210
 6584TIP3    H241168   4.441   1.693  14.840 -0.5585  0.7776  0.9508
 6585TIP3   OH241169   4.029   1.040   2.047 -0.1393 -0.0574 -0.3378
 6585TIP3    H141170   4.100   0.993   2.091  0.6948 -0.5323 -2.0766
 6585TIP3    H241171   4.052   1.133   2.056 -0.5552 -0.0670  1.0934
 6586TIP3   OH241172   1.715   5.770  12.648  0.0608  0.5779 -0.1198
 6586TIP3    H141173   1.648   5.717  12.604  0.4610 -0.5523  0.5570
 6586TIP3    H241174   1.766   5.808  12.578 -0.7237  0.6989 -0.6399
 6587TIP3   OH241175   2.907   0.779  12.910 -0.0122  0.1894 -0.3877
 6587TIP3    H141176   2.859   0.707  12.868  2.9530 -2.2942  0.1254
 6587TIP3    H241177   2.974   0.803  12.847  1.9449 -0.8011  1.1962
 6588TIP3   OH241178   3.126   1.282   6.518 -0.2758 -0.2594 -0.1497
 6588TIP3    H141179   3.156   1.222   6.587 -1.5502  0.0547  0.6985
 6588TIP3    H241180   3.063   1.339   6.561 -0.1535  0.7730 -1.2926
 6589TIP3   OH241181   2.740   5.863  13.438 -0.4757  0.3638 -0.1896
 6589TIP3    H141182   2.689   5.911  13.373  0.1542  1.2728 -0.0314
 6589TIP3    H241183   2.706   5.893  13.522 -0.4050  0.1732 -0.0924
 6590TIP3   OH241184   0.419   6.224   6.129  0.1736  0.2636 -0.0693
 6590TIP3    H141185   0.421   6.209   6.224 -0.4433 -0.1668 -0.1176
 6590TIP3    H241186   0.463   6.308   6.117 -1.9165  1.5865  0.8789
 6591TIP3   OH241187   2.368   1.826  17.039 -0.3009 -0.6387  0.0725
 6591TIP3    H141188   2.305   1.895  17.019 -0.0973  0.0658  1.7230
 6591TIP3    H241189   2.328   1.777  17.111  0.8382 -0.4613  0.8409
 6592TIP3   OH241190   2.340   5.021  16.518 -0.5641  0.1694  0.0578
 6592TIP3    H141191   2.301   5.108  16.503 -0.6495  0.3684  1.2780
 6592TIP3    H241192   2.379   5.028  16.606 -0.1598 -0.8839 -0.0289
 6593TIP3   OH241193   5.643   0.509   5.378 -0.2920 -0.0106 -0.7245
 6593TIP3    H141194   5.555   0.526   5.344 -0.8512 -1.5332 -0.1218
 6593TIP3    H241195   5.695   0.491   5.300 -1.4478 -2.9751 -0.9522
 6594TIP3   OH241196   6.602   5.704  15.346  0.7879 -0.1683 -1.0938
 6594TIP3    H141197   6.592   5.622  15.395  0.1709  0.3647 -0.3039
 6594TIP3    H241198   6.665   5.683  15.278  0.0460 -1.5349 -1.4047
 6595TIP3   OH241199   5.170   2.842   4.959 -0.1760 -0.0973 -0.9222
 6595TIP3    H141200   5.231   2.785   5.005  1.2691  1.7972 -0.3565
 6595TIP3    H241201   5.209   2.929   4.966 -2.4786  1.0476 -1.3861
 6596TIP3   OH241202   4.593   3.594  15.844  0.2607 -0.2044 -0.6770
 6596TIP3    H141203   4.544   3.659  15.893  0.9247  0.5345 -0.9608
 6596TIP3    H241204   4.552   3.593  15.757  2.3386  2.4388 -1.8455
 6597TIP3   OH241205   5.582   5.338  16.408 -0.2589  0.0242 -0.2842
 6597TIP3    H141206   5.549   5.287  16.482 -1.5122 -0.1300 -0.9255
 6597TIP3    H241207   5.506   5.386  16.376 -0.2890 -1.4815 -2.7585
 6598TIP3   OH241208   2.739   4.259  11.944  0.8533  0.0422 -0.1251
 6598TIP3    H141209   2.703   4.317  12.011  0.5599 -0.4304  0.1321
 6598TIP3    H241210   2.711   4.298  11.861 -0.1912 -0.2793  0.0688
 6599TIP3   OH241211   5.495   3.469   4.762 -0.1628 -0.2191 -0.3682
 6599TIP3    H141212   5.523   3.513   4.841 -1.0190 -1.6284  0.7703
 6599TIP3    H241213   5.467   3.539   4.703  0.8555  0.8648  0.4188
 6600TIP3   OH241214   1.460   1.382   1.676  0.0015  0.1331 -0.7178
 6600TIP3    H141215   1.496   1.325   1.744 -0.0694  0.4766 -0.3867
 6600TIP3    H241216   1.482   1.471   1.706 -2.3665  0.4516  0.2204
 6601TIP3   OH241217   5.405   3.240  12.773  0.2230 -0.9463  0.3063
 6601TIP3    H141218   5.467   3.312  12.782  0.4538 -1.0989 -0.0510
 6601TIP3    H241219   5.379   3.220  12.863  0.8230 -0.9968  0.4737
 6602TIP3   OH241220   5.336   4.792  11.516  0.1103  0.3233 -0.1965
 6602TIP3    H141221   5.341   4.841  11.434  0.4728  0.0094 -0.3674
 6602TIP3    H241222   5.248   4.756  11.517  0.0211  0.5335 -0.3259
 6603TIP3   OH241223   1.027   1.920  12.179 -0.8228  0.5374  0.1009
 6603TIP3    H141224   0.977   1.852  12.133  0.8195 -0.9277  0.3680
 6603TIP3    H241225   1.068   1.972  12.110 -0.3550 -0.1089 -0.1154
 6604TIP3   OH241226   3.541   3.732   1.753  0.2525  0.1100  0.3960
 6604TIP3    H141227   3.607   3.772   1.810  1.5899  0.6190 -1.3834
 6604TIP3    H241228   3.462   3.726   1.806  0.7393  2.7766  1.5655
 6605TIP3   OH241229   5.288   3.135   3.294  0.2705  0.1738 -0.6972
 6605TIP3    H141230   5.199   3.161   3.272  0.0526  0.2085  0.1703
 6605TIP3    H241231   5.309   3.187   3.372  0.7151 -0.4832 -0.3671
 6606TIP3   OH241232   4.214   0.985   4.490  0.9805 -0.4222  0.4033
 6606TIP3    H141233   4.291   1.038   4.470  1.7427 -1.2491  1.0719
 6606TIP3    H241234   4.152   1.005   4.420  1.6763  0.4867  0.0250
 6607TIP3   OH241235   0.370   2.667   1.513  0.0098  0.1328 -0.5772
 6607TIP3    H141236   0.446   2.624   1.551 -0.4026  0.5433  0.7834
 6607TIP3    H241237   0.394   2.760   1.510 -0.0382  0.1301 -1.1535
 6608TIP3   OH241238   3.567   3.059   1.756 -0.1401 -0.1749 -0.3814
 6608TIP3    H141239   3.516   3.092   1.830  0.3188  0.2243 -0.2377
 6608TIP3    H241240   3.506   3.004   1.708 -1.3762  1.9563 -1.4099
 6609TIP3   OH241241   1.762   5.864   2.028 -0.2864 -0.0925 -0.7884
 6609TIP3    H141242   1.793   5.953   2.038  1.3046 -0.6722 -0.2965
 6609TIP3    H241243   1.748   5.853   1.934  3.8050 -0.6121 -1.5078
 6610TIP3   OH241244   3.039   3.741  11.117  0.3604 -0.0159  0.1437
 6610TIP3    H141245   3.094   3.819  11.107 -1.0343  0.8160 -1.5423
 6610TIP3    H241246   3.062   3.687  11.042  1.7586 -1.5941  1.6210
 6611TIP3   OH241247   3.035   0.104  14.165 -0.3065  0.6815 -0.8849
 6611TIP3    H141248   2.943   0.126  14.181 -0.4144 -0.3616  0.1020
 6611TIP3    H241249   3.039   0.009  14.179  0.5688  0.4052 -2.7305
 6612TIP3   OH241250   5.158   6.422   0.850 -0.5919  0.3360 -0.5562
 6612TIP3    H141251   5.064   6.409   0.839 -0.4850 -0.1366 -0.9658
 6612TIP3    H241252   5.177   6.388   0.937 -0.7102 -0.1267 -0.7034
 6613TIP3   OH241253   6.198   0.405   0.989 -0.0715 -0.0079  0.0706
 6613TIP3    H141254   6.254   0.430   0.916 -0.9147  0.5155 -0.4132
 6613TIP3    H241255   6.163   0.487   1.023  1.0618 -0.1604  1.7069
 6614TIP3   OH241256   3.308   1.732  13.574 -0.2801  0.2995  0.4654
 6614TIP3    H141257   3.394   1.747  13.615 -0.3516  1.5084  0.2218
 6614TIP3    H241258   3.298   1.637  13.574  1.3447  0.0791 -0.0469
 6615TIP3   OH241259   3.165   4.558  12.501 -0.0439  0.0746 -0.0142
 6615TIP3    H141260   3.151   4.646  12.536 -1.0727  0.0376 -0.2887
 6615TIP3    H241261   3.256   4.557  12.474  0.2681  0.7158  0.9395
 6616TIP3   OH241262   5.432   6.680  17.041  0.2506  0.2014  0.0797
 6616TIP3    H141263   5.365   6.723  17.096  1.8250  1.2320  1.2862
 6616TIP3    H241264   5.403   6.696  16.951 -1.6093 -0.2172  0.5583
 6617TIP3   OH241265   6.370   3.519  16.029 -0.1687  0.0064 -0.0234
 6617TIP3    H141266   6.344   3.511  16.121  0.3854 -0.5263  0.0905
 6617TIP3    H241267   6.374   3.428  15.998 -1.5822  0.2197 -0.9288
 6618TIP3   OH241268   5.659   6.031  14.426 -0.2653  0.7099  0.6451
 6618TIP3    H141269   5.564   6.036  14.436 -0.5441  1.3186 -1.7583
 6618TIP3    H241270   5.684   5.956  14.480 -2.2247 -0.0232  0.6351
 6619TIP3   OH241271   2.587   6.154  12.247 -0.2656  0.0560 -0.3344
 6619TIP3    H141272   2.634   6.149  12.330  0.4323 -0.4898 -0.7492
 6619TIP3    H241273   2.607   6.071  12.204  0.3387  0.8076 -1.5445
 6620TIP3   OH241274   5.233   2.781  13.974 -0.1374  0.1559  0.2802
 6620TIP3    H141275   5.167   2.734  13.922 -0.3268  2.9258 -2.3396
 6620TIP3    H241276   5.306   2.794  13.913  0.2424  2.3367  1.1030
 6621TIP3   OH241277   4.363   3.036   3.982  0.3797 -0.2883  0.1950
 6621TIP3    H141278   4.395   3.126   3.975 -0.3831 -0.1218 -2.3748
 6621TIP3    H241279   4.439   2.982   3.962  0.3494 -0.1117 -0.4152
 6622TIP3   OH241280   4.502   5.036  13.658 -0.6132  0.1671 -0.0122
 6622TIP3    H141281   4.547   5.006  13.578 -1.2486 -0.3246 -0.1938
 6622TIP3    H241282   4.560   5.103  13.694 -0.4136  0.5530 -1.0017
 6623TIP3   OH241283   3.028   1.007  13.549  0.0374  0.0787 -0.2828
 6623TIP3    H141284   2.966   0.956  13.601  0.6194 -0.8482 -0.4659
 6623TIP3    H241285   2.981   1.027  13.469 -0.4227  0.3933  0.0661
 6624TIP3   OH241286   3.789   1.296   1.113 -0.2258 -0.3784  0.4213
 6624TIP3    H141287   3.877   1.263   1.096 -0.6778 -1.0037 -0.8108
 6624TIP3    H241288   3.734   1.255   1.046 -0.9568  2.2360 -0.7094
 6625TIP3   OH241289   5.537   5.206  17.260  0.7629  0.6297 -0.0248
 6625TIP3    H141290   5.596   5.149  17.209 -0.9014  0.1337 -1.4811
 6625TIP3    H241291   5.523   5.282  17.203 -0.0179  0.7280  0.2912
 6626TIP3   OH241292   4.166   4.865   2.379 -0.2118  0.1627  0.1781
 6626TIP3    H141293   4.171   4.810   2.301  3.2281 -0.1759  0.4702
 6626TIP3    H241294   4.165   4.804   2.452  1.0727  0.4293  0.4467
 6627TIP3   OH241295   2.762   2.049   4.946 -0.0929  0.4634 -0.4353
 6627TIP3    H141296   2.792   2.027   4.858  0.5857  0.0086 -0.1081
 6627TIP3    H241297   2.804   1.983   5.002 -1.4265  0.0398  0.1078
 6628TIP3   OH241298   1.820   2.512  15.680  0.0233  0.2508  0.3258
 6628TIP3    H141299   1.734   2.497  15.641  0.4948  1.4849 -1.2877
 6628TIP3    H241300   1.881   2.466  15.622  0.5887  0.6788  0.5785
 6629TIP3   OH241301   2.689   1.735  15.627  0.5745  0.3565  0.7952
 6629TIP3    H141302   2.733   1.653  15.604 -1.2089 -1.0065  1.9531
 6629TIP3    H241303   2.663   1.773  15.543 -0.3736 -1.3626  0.2529
 6630TIP3   OH241304   6.464   2.340   4.597  0.4868  0.0391  0.7132
 6630TIP3    H141305   6.495   2.330   4.507  0.0762  0.0953  0.5664
 6630TIP3    H241306   6.442   2.251   4.625 -1.5523  0.2612 -0.0210
 6631TIP3   OH241307   1.426   6.259   6.009 -0.4612 -0.3680 -0.0483
 6631TIP3    H141308   1.347   6.260   6.063 -0.4831  0.0091 -0.0889
 6631TIP3    H241309   1.498   6.259   6.072 -0.4845 -1.4080  0.0050
 6632TIP3   OH241310   0.780   3.205  16.262  0.3330 -0.1498  0.1191
 6632TIP3    H141311   0.768   3.136  16.327 -1.7619 -1.9388 -1.9859
 6632TIP3    H241312   0.786   3.285  16.314 -0.1352 -1.5719  2.5526
 6633TIP3   OH241313   1.968   3.941  16.837 -0.1604 -0.3982 -0.4497
 6633TIP3    H141314   2.035   4.007  16.820 -0.7460  0.5767  0.8195
 6633TIP3    H241315   2.014   3.871  16.883 -0.0019  0.3058  0.4985
 6634TIP3   OH241316   4.844   0.909  12.415 -0.1333  0.2866 -1.0945
 6634TIP3    H141317   4.856   0.816  12.395  0.3516  0.2323 -0.5763
 6634TIP3    H241318   4.933   0.944  12.420 -0.1110  0.0774  1.9868
 6635TIP3   OH241319   5.983   4.048  16.773  0.1023 -0.2647 -0.4164
 6635TIP3    H141320   5.972   3.953  16.762 -1.2518  0.1012 -2.7952
 6635TIP3    H241321   6.055   4.070  16.714 -1.3082  0.5148 -1.9088
 6636TIP3   OH241322   5.759   5.556   1.562 -0.1530 -0.3901 -0.6685
 6636TIP3    H141323   5.809   5.475   1.562  1.1063  0.3208 -1.9271
 6636TIP3    H241324   5.705   5.551   1.483  0.1432  0.0815 -0.9123
 6637TIP3   OH241325   3.153   5.160  11.969  0.3656 -0.1808  0.2219
 6637TIP3    H141326   3.133   5.241  12.015  2.6464 -0.0724  1.1816
 6637TIP3    H241327   3.242   5.138  11.998  0.6149 -1.8910 -1.6442
 6638TIP3   OH241328   2.317   6.102  17.257 -0.0923 -0.4166 -0.3301
 6638TIP3    H141329   2.228   6.131  17.274 -1.4704 -3.9690 -0.6381
 6638TIP3    H241330   2.364   6.118  17.339 -1.3911  0.1910  0.3209
 6639TIP3   OH241331   6.373   5.477   5.802  0.6724  0.5313  0.2939
 6639TIP3    H141332   6.293   5.427   5.787  1.6073 -0.3368 -2.5685
 6639TIP3    H241333   6.406   5.446   5.886  0.4741 -2.7438 -0.6788
 6640TIP3   OH241334   4.992   1.201   3.897 -0.4348 -0.1762 -0.7201
 6640TIP3    H141335   5.052   1.273   3.878  0.2216 -0.3955  0.4134
 6640TIP3    H241336   4.962   1.171   3.811  1.2876 -0.2364 -1.3379
 6641TIP3   OH241337   1.451   6.453   2.459 -0.0002  1.2076  0.0675
 6641TIP3    H141338   1.448   6.364   2.425 -1.3129  0.8474  1.0137
 6641TIP3    H241339   1.534   6.488   2.429  0.7281 -0.4753  0.0026
 6642TIP3   OH241340   0.172   1.698  12.075 -0.4104 -0.3580 -0.4201
 6642TIP3    H141341   0.211   1.693  12.162  1.4913 -0.7358 -1.2511
 6642TIP3    H241342   0.173   1.791  12.053  1.0933 -0.4601 -0.8691
 6643TIP3   OH241343   3.831   3.472  15.572  0.0824 -0.1169 -0.1623
 6643TIP3    H141344   3.852   3.561  15.543  2.2144 -0.1497  1.0758
 6643TIP3    H241345   3.872   3.415  15.508 -0.0749 -0.2102 -0.1809
 6644TIP3   OH241346   4.083   4.910   3.183 -0.7711  0.3809  0.0674
 6644TIP3    H141347   4.078   4.951   3.270 -0.0681 -1.2796  0.9460
 6644TIP3    H241348   4.177   4.904   3.165 -0.9119  0.6068 -0.7634
 6645TIP3   OH241349   6.135   3.674   0.533 -0.0427 -0.6385  0.1123
 6645TIP3    H141350   6.209   3.704   0.586 -0.6368 -1.4089  1.4176
 6645TIP3    H241351   6.062   3.729   0.562 -0.2897 -0.8057 -0.1964
 6646TIP3   OH241352   4.880   2.806   4.423  0.2765 -0.1544  0.4159
 6646TIP3    H141353   4.814   2.770   4.482  0.3314 -1.1350 -0.0985
 6646TIP3    H241354   4.830   2.836   4.347  0.5164 -2.3538 -0.6838
 6647TIP3   OH241355   4.680   4.858   1.192  0.6256  0.0016  0.2427
 6647TIP3    H141356   4.725   4.857   1.277  0.4988 -1.1993  0.3192
 6647TIP3    H241357   4.594   4.895   1.211 -0.6414 -3.1429  1.3656
 6648TIP3   OH241358   1.899   0.611  17.230  0.3723  0.1881  0.8511
 6648TIP3    H141359   1.896   0.552  17.305 -0.3979 -2.7408 -1.2975
 6648TIP3    H241360   1.816   0.658  17.233  0.6455  0.6173  2.1717
 6649TIP3   OH241361   2.963   1.086   5.537  0.1107  0.7683 -0.4042
 6649TIP3    H141362   3.051   1.052   5.548  0.3857  1.3224 -0.7929
 6649TIP3    H241363   2.964   1.128   5.450 -0.3932  1.1888 -0.2176
 6650TIP3   OH241364   0.650   3.261   5.327 -0.4205 -0.0857  0.1645
 6650TIP3    H141365   0.656   3.308   5.244 -2.1517 -2.8097 -1.6617
 6650TIP3    H241366   0.593   3.316   5.381 -1.3582  0.5488 -1.4041
 6651TIP3   OH241367   4.553   2.122  15.233 -0.4803 -0.6469 -0.1715
 6651TIP3    H141368   4.499   2.134  15.155 -0.2595 -0.1914 -0.2583
 6651TIP3    H241369   4.557   2.209  15.273 -0.7011 -0.9106  0.4208
 6652TIP3   OH241370   0.892   5.576   4.250  0.4324 -0.4150 -0.0981
 6652TIP3    H141371   0.925   5.590   4.339  2.2101 -0.0430 -0.7852
 6652TIP3    H241372   0.950   5.509   4.213  4.1255  3.8588 -3.1169
 6653TIP3   OH241373   1.210   0.206   1.687 -0.4711  0.0425  0.5800
 6653TIP3    H141374   1.277   0.141   1.709 -1.8717 -1.2574  1.1430
 6653TIP3    H241375   1.176   0.177   1.602  0.0409  1.0309  0.0148
 6654TIP3   OH241376   0.736   2.935   5.704 -0.5801 -0.2459 -0.7788
 6654TIP3    H141377   0.807   2.996   5.683  0.8378 -2.3464 -2.4577
 6654TIP3    H241378   0.757   2.904   5.792  0.0600 -0.1112 -0.8758
 6655TIP3   OH241379   6.349   0.630   1.683 -0.1547 -0.3638  0.1132
 6655TIP3    H141380   6.261   0.610   1.715  0.2787 -0.4012  1.3609
 6655TIP3    H241381   6.404   0.627   1.762  1.3365 -2.4326 -0.9183
 6656TIP3   OH241382   1.009   5.934   5.355  0.2860  0.3080 -0.2076
 6656TIP3    H141383   0.991   5.841   5.365 -2.0823  0.7325  0.0504
 6656TIP3    H241384   1.074   5.953   5.423  0.3033 -1.0303  0.1828
 6657TIP3   OH241385   5.945   4.105   5.425  0.4904 -0.1473 -0.3288
 6657TIP3    H141386   5.891   4.134   5.499  1.0600 -0.5004  0.2309
 6657TIP3    H241387   5.894   4.035   5.384  1.1561 -1.5097  1.0873
 6658TIP3   OH241388   0.953   3.478   6.459  0.0468  0.4793 -0.4161
 6658TIP3    H141389   0.863   3.506   6.479 -0.0651 -0.3054  0.2059
 6658TIP3    H241390   1.007   3.523   6.523 -0.3075 -2.0068  1.7899
 6659TIP3   OH241391   4.057   2.649   2.794 -0.2827 -0.0804  0.4031
 6659TIP3    H141392   4.141   2.674   2.754 -0.4436  0.5720  0.4525
 6659TIP3    H241393   4.064   2.555   2.808  0.2401 -0.1192 -0.0717
 6660TIP3   OH241394   6.034   2.459   4.870 -0.3130  0.4675 -0.1303
 6660TIP3    H141395   6.003   2.382   4.917 -1.2770  1.6867  1.3125
 6660TIP3    H241396   6.129   2.457   4.878 -0.4648  1.5242  3.4901
 6661TIP3   OH241397   0.274   3.506   6.166  0.5377  0.5542 -0.0743
 6661TIP3    H141398   0.330   3.464   6.232 -0.4470 -1.6368 -0.5551
 6661TIP3    H241399   0.187   3.469   6.182 -0.2199  1.8604 -1.0583
 6662TIP3   OH241400   0.741   2.739  15.074  0.0392 -0.9576 -0.1149
 6662TIP3    H141401   0.772   2.791  14.999 -1.0991 -0.3787 -0.2113
 6662TIP3    H241402   0.791   2.773  15.148 -1.0524  0.6982 -0.0788
 6663TIP3   OH241403   1.328   5.486  12.604  0.4549  0.6319  0.2596
 6663TIP3    H141404   1.413   5.447  12.624  0.0302  0.4743  1.8833
 6663TIP3    H241405   1.270   5.411  12.587 -0.0338  0.5510  2.0529
 6664TIP3   OH241406   2.331   6.140   1.276  0.2728  0.6198 -0.7014
 6664TIP3    H141407   2.375   6.077   1.219  0.2946  0.4283 -0.4761
 6664TIP3    H241408   2.244   6.103   1.291  0.7617 -0.0540  0.5482
 6665TIP3   OH241409   3.396   0.083   0.358 -0.2046 -0.0604  0.0234
 6665TIP3    H141410   3.388   0.161   0.413 -1.7798 -0.6193  0.6673
 6665TIP3    H241411   3.490   0.073   0.343  0.2467  0.4729  2.1368
 6666TIP3   OH241412   2.397   0.987  12.697 -0.2780  0.2204  0.4698
 6666TIP3    H141413   2.480   0.966  12.742  0.2807  1.2811 -0.0380
 6666TIP3    H241414   2.385   0.914  12.637  0.0073 -0.2133  0.9203
 6667TIP3   OH241415   4.003   3.515  17.223 -0.1954  0.3937 -0.3029
 6667TIP3    H141416   4.088   3.473  17.215 -0.5818 -0.5212  0.2770
 6667TIP3    H241417   4.012   3.573  17.299 -0.5941 -1.0115  0.8602
 6668TIP3   OH241418   2.818   0.828  12.139  0.6584  0.1864 -0.0243
 6668TIP3    H141419   2.812   0.892  12.067  2.0992 -1.5272 -1.7884
 6668TIP3    H241420   2.751   0.763  12.120  0.1642  0.3921  0.9554
 6669TIP3   OH241421   2.178   6.671   2.812 -0.4849 -0.1007  0.3613
 6669TIP3    H141422   2.160   6.697   2.722 -0.0344 -0.7950  0.0629
 6669TIP3    H241423   2.147   6.744   2.865 -1.3002  0.0569 -0.3188
 6670TIP3   OH241424   3.660   1.056   5.803  0.8228  0.4561  0.1742
 6670TIP3    H141425   3.700   1.143   5.814 -1.2026  1.5466 -0.4633
 6670TIP3    H241426   3.605   1.046   5.881  0.5048  0.0726 -0.0991
 6671TIP3   OH241427   6.057   0.980   0.433 -0.0954 -0.4668  0.5167
 6671TIP3    H141428   6.057   1.005   0.526 -1.5554  3.0799 -0.2806
 6671TIP3    H241429   6.137   1.021   0.398  0.6990 -2.1812  0.2138
 6672TIP3   OH241430   3.665   0.008   0.332  0.0087  0.2210  0.2386
 6672TIP3    H141431   3.720  -0.070   0.323  0.9584  0.9903 -0.9555
 6672TIP3    H241432   3.690   0.044   0.417 -0.2799 -0.6419  0.7036
 6673TIP3   OH241433   4.259   5.186  11.615  0.0089 -0.4084 -0.5901
 6673TIP3    H141434   4.307   5.269  11.616 -1.0283  0.2274 -1.5504
 6673TIP3    H241435   4.322   5.123  11.580  0.5300  0.1612 -0.6997
 6674TIP3   OH241436   1.172   4.421  17.267 -0.0759 -0.2275 -0.1068
 6674TIP3    H141437   1.152   4.514  17.262 -1.0942 -0.4983 -2.0213
 6674TIP3    H241438   1.167   4.400  17.361 -3.9513  0.8475  0.0908
 6675TIP3   OH241439   2.879   4.669   5.977 -0.1702  0.6072 -0.2783
 6675TIP3    H141440   2.838   4.666   6.064  0.2529 -0.1022 -0.0983
 6675TIP3    H241441   2.852   4.587   5.935 -2.3989  1.9943 -1.7776
 6676TIP3   OH241442   0.973   3.402  10.907 -0.2338 -0.0977 -0.1902
 6676TIP3    H141443   0.880   3.393  10.925 -0.4339  3.3560  1.4674
 6676TIP3    H241444   0.979   3.414  10.812 -1.6241  0.5017 -0.2277
 6677TIP3   OH241445   6.358   5.669   5.084 -0.2306  0.1072  0.2482
 6677TIP3    H141446   6.266   5.667   5.060 -0.0818 -1.5065 -0.2579
 6677TIP3    H241447   6.362   5.626   5.170 -0.0458  0.9557  0.6801
 6678TIP3   OH241448   1.035   1.757   4.014  0.3907 -0.2243 -0.0512
 6678TIP3    H141449   1.077   1.814   3.950  0.7095  0.3747  0.6759
 6678TIP3    H241450   0.943   1.757   3.989  0.7471 -1.3713 -1.5258
 6679TIP3   OH241451   2.255   5.925  16.247 -0.3842 -0.0507  0.3788
 6679TIP3    H141452   2.260   5.848  16.190  3.2707 -1.0799  1.7993
 6679TIP3    H241453   2.258   5.890  16.336  0.9874  1.6773  1.0719
 6680TIP3   OH241454   5.986   4.583  17.485 -0.2207  0.0529  0.3864
 6680TIP3    H141455   5.926   4.649  17.521  0.1962  0.7848 -0.2459
 6680TIP3    H241456   5.931   4.506  17.471 -1.0891  0.8066 -0.4568
 6681TIP3   OH241457   2.136   3.832   1.109 -0.0661  0.0846  0.3787
 6681TIP3    H141458   2.053   3.785   1.112 -0.6781  1.1453  0.3748
 6681TIP3    H241459   2.157   3.838   1.016  0.4828 -0.9381  0.4098
 6682TIP3   OH241460   1.001   0.450  15.988  0.2700 -0.0005  0.2182
 6682TIP3    H141461   0.967   0.369  15.950 -1.1256  0.1612  1.0857
 6682TIP3    H241462   0.965   0.453  16.076  2.1466  0.4575  1.0127
 6683TIP3   OH241463   5.599   4.915   6.181 -0.1446  0.0370  0.0142
 6683TIP3    H141464   5.615   4.983   6.246  0.0835  1.0106 -1.0376
 6683TIP3    H241465   5.655   4.939   6.107 -0.4152 -1.0350 -0.5546
 6684TIP3   OH241466   1.351   2.001   3.603  0.4199  0.4732 -0.1802
 6684TIP3    H141467   1.366   2.044   3.519  2.8766  0.0089 -0.0726
 6684TIP3    H241468   1.373   2.068   3.669  0.5740  0.2056  0.0447
 6685TIP3   OH241469   4.607   1.415   4.462  0.0503  0.1833  0.3423
 6685TIP3    H141470   4.685   1.421   4.407  0.5672  0.9322  1.1229
 6685TIP3    H241471   4.539   1.461   4.413  0.3924  0.4749  0.1375
 6686TIP3   OH241472   0.349   0.762  12.868 -0.0215  0.6992  0.1567
 6686TIP3    H141473   0.279   0.772  12.804 -1.6826  1.8693  2.0510
 6686TIP3    H241474   0.405   0.693  12.832 -2.7312 -1.0861 -0.9484
 6687TIP3   OH241475   5.306   5.939  13.576  0.1710 -0.3273  0.2620
 6687TIP3    H141476   5.296   5.868  13.639  1.1810 -0.6745  0.0570
 6687TIP3    H241477   5.390   5.980  13.600  0.2412 -0.0498 -0.4437
 6688TIP3   OH241478   0.458   4.210   5.233  0.0758 -0.0150  0.7761
 6688TIP3    H141479   0.432   4.199   5.141  0.5194  2.7836  0.2137
 6688TIP3    H241480   0.376   4.212   5.281 -0.3397  0.8484  0.0705
 6689TIP3   OH241481   0.265   4.726   0.362  0.2648  0.4670 -0.0832
 6689TIP3    H141482   0.205   4.680   0.304  0.7161  0.8257 -0.8433
 6689TIP3    H241483   0.208   4.774   0.422 -0.2252  0.8489 -0.8329
 6690TIP3   OH241484   2.860   4.283   0.927 -0.0088  0.0566 -0.4619
 6690TIP3    H141485   2.801   4.211   0.907  1.4659 -1.6740  0.9997
 6690TIP3    H241486   2.861   4.336   0.848 -2.1725 -0.7726 -1.1112
 6691TIP3   OH241487   5.017   6.158   6.358  0.2220 -0.3187  0.4444
 6691TIP3    H141488   4.930   6.132   6.390  0.5517 -0.8104  0.9465
 6691TIP3    H241489   5.076   6.142   6.432  0.8679 -0.7535 -0.1504
 6692TIP3   OH241490   5.586   3.321   0.678  0.0025 -0.0335  0.3468
 6692TIP3    H141491   5.675   3.356   0.668  0.0086 -0.1621 -0.0599
 6692TIP3    H241492   5.534   3.371   0.615 -0.1807 -0.0817  0.4606
 6693TIP3   OH241493   4.272   1.182   0.715  0.0039  0.1922 -0.1221
 6693TIP3    H141494   4.183   1.170   0.746  0.3085 -1.8399  0.1018
 6693TIP3    H241495   4.305   1.257   0.765 -1.5247  0.9589 -0.1921
 6694TIP3   OH241496   0.039   1.574  12.400  0.3323  0.0041  0.0518
 6694TIP3    H141497   0.111   1.539  12.348 -0.4452 -2.4888  0.5139
 6694TIP3    H241498   0.020   1.505  12.464 -2.3796  0.6145  0.0221
 6695TIP3   OH241499   2.554   0.783   4.658  0.0593 -0.5091 -0.1702
 6695TIP3    H141500   2.485   0.813   4.719  0.4176  0.5528 -0.2597
 6695TIP3    H241501   2.585   0.701   4.696 -0.7368 -0.6158  0.2852
 6696TIP3   OH241502   5.381   4.872   2.519 -0.0012 -0.1958 -0.0791
 6696TIP3    H141503   5.424   4.865   2.604  0.6789 -0.6614 -0.4557
 6696TIP3    H241504   5.327   4.951   2.526  1.6272  0.9442  0.0841
 6697TIP3   OH241505   0.781   2.044  14.966  0.2211 -0.3179  0.4070
 6697TIP3    H141506   0.690   2.070  14.983  0.0009 -2.2141  2.6825
 6697TIP3    H241507   0.778   2.003  14.879 -0.5726  1.6795 -0.5703
 6698TIP3   OH241508   1.499   3.899  12.051  0.0153 -0.1640 -0.6082
 6698TIP3    H141509   1.438   3.836  12.014  0.6076 -1.0287 -0.1381
 6698TIP3    H241510   1.488   3.978  11.997  0.3618 -1.1611 -2.2005
 6699TIP3   OH241511   5.533   4.129  11.961 -0.2080  1.1519 -0.2492
 6699TIP3    H141512   5.627   4.118  11.955 -0.1590  0.9572  0.6385
 6699TIP3    H241513   5.500   4.108  11.874  0.6899  2.7399 -1.0219
 6700TIP3   OH241514   4.677   3.244  11.287  0.0408  0.0453  0.1175
 6700TIP3    H141515   4.715   3.267  11.372 -0.3144 -0.0391  0.3000
 6700TIP3    H241516   4.739   3.182  11.249 -1.0369 -1.9026  1.4169
 6701TIP3   OH241517   1.519   2.864  14.002 -0.0682 -0.5750  0.4159
 6701TIP3    H141518   1.509   2.886  13.909  0.3182  0.8831  0.7027
 6701TIP3    H241519   1.522   2.768  14.003 -0.6367 -0.6382 -1.0113
 6702TIP3   OH241520   1.746   1.116   1.535  0.0648  0.0694  0.2180
 6702TIP3    H141521   1.749   1.046   1.470 -0.9315  0.9981 -0.8821
 6702TIP3    H241522   1.668   1.097   1.587 -0.9640  1.0088 -0.9093
 6703TIP3   OH241523   0.154   4.642  10.550  0.3804 -0.0116  0.3004
 6703TIP3    H141524   0.146   4.564  10.605  3.0410 -1.3786 -1.1067
 6703TIP3    H241525   0.147   4.609  10.460 -0.0695  1.6262 -0.3000
 6704TIP3   OH241526   2.293   2.096  15.122  0.3838  0.3339  0.1445
 6704TIP3    H141527   2.311   2.087  15.215  1.4810  3.2382  0.3177
 6704TIP3    H241528   2.379   2.105  15.081 -0.0437 -1.4778 -1.2936
 6705TIP3   OH241529   1.053   3.012   4.326  0.0369 -0.0163 -0.1210
 6705TIP3    H141530   1.057   2.930   4.277  0.6666  0.4685 -0.9037
 6705TIP3    H241531   1.107   2.996   4.404 -0.0348 -0.4198 -0.1531
 6706TIP3   OH241532   0.177   1.418  16.694 -0.9661 -0.4117  0.6938
 6706TIP3    H141533   0.261   1.459  16.714  0.7632 -2.9374 -0.7841
 6706TIP3    H241534   0.122   1.489  16.661  2.3336  0.6725 -3.2386
 6707TIP3   OH241535   6.095   3.703   2.415 -0.3423 -0.1119 -0.0568
 6707TIP3    H141536   6.101   3.714   2.320  0.8468 -1.4544 -0.1607
 6707TIP3    H241537   6.006   3.733   2.437 -0.7681 -0.1304 -1.6357
 6708TIP3   OH241538   2.891   2.689  16.003  0.5966  0.2724 -0.0891
 6708TIP3    H141539   2.803   2.687  15.964  1.1086  0.3708 -1.3020
 6708TIP3    H241540   2.877   2.670  16.096 -0.5135 -1.8334 -0.6310
 6709TIP3   OH241541   6.288   2.579   2.955 -0.2779 -0.9191 -0.4046
 6709TIP3    H141542   6.363   2.639   2.947 -2.3967  1.9102 -0.8293
 6709TIP3    H241543   6.301   2.536   3.039  1.1966  0.4501  0.1362
 6710TIP3   OH241544   3.514   0.410   2.107  0.5138 -0.0940 -0.0368
 6710TIP3    H141545   3.491   0.380   2.019  0.0356  1.5509 -0.5105
 6710TIP3    H241546   3.486   0.339   2.165 -1.1314 -0.3111 -1.0317
 6711TIP3   OH241547   1.168   3.084   6.424  0.1779 -0.3974 -0.0913
 6711TIP3    H141548   1.261   3.098   6.443  0.3096 -0.5304 -0.6174
 6711TIP3    H241549   1.130   3.058   6.508  0.7284 -0.8897  0.0151
 6712TIP3   OH241550   2.284   6.307  15.604 -0.3084 -0.4165  0.2784
 6712TIP3    H141551   2.233   6.332  15.527  1.3475  2.3191 -0.0631
 6712TIP3    H241552   2.291   6.388  15.655  2.7772 -0.9000  0.7819
 6713TIP3   OH241553   6.605   5.729   5.403 -0.2263  0.3666  0.0898
 6713TIP3    H141554   6.653   5.691   5.477  0.8512  0.7068 -0.4190
 6713TIP3    H241555   6.566   5.809   5.439  0.6159  0.7372  0.1928
 6714TIP3   OH241556   2.097   6.663  12.338  0.1156  0.0454  1.1119
 6714TIP3    H141557   2.082   6.597  12.271  0.5675 -0.1670  1.2113
 6714TIP3    H241558   2.148   6.731  12.294  1.3174 -0.5828  1.4900
 6715TIP3   OH241559   0.459   1.091   3.910 -0.8533 -0.1324  0.3687
 6715TIP3    H141560   0.510   1.085   3.829 -0.5484  0.7512  0.4884
 6715TIP3    H241561   0.502   1.029   3.969 -0.4085  0.0097  0.2028
 6716TIP3   OH241562   1.839   3.767   4.866  0.2019 -0.2450 -0.3645
 6716TIP3    H141563   1.744   3.761   4.872 -0.0591  1.1554 -2.2816
 6716TIP3    H241564   1.870   3.682   4.897 -1.6451 -0.6486  0.5035
 6717TIP3   OH241565   6.376   5.463  10.469 -0.1225  0.0867 -0.8988
 6717TIP3    H141566   6.417   5.524  10.408 -0.7518  2.4420  0.8336
 6717TIP3    H241567   6.285   5.456  10.439  0.1096 -0.5043 -1.4634
 6718TIP3   OH241568   3.021   2.988  12.088 -0.5400  0.1385 -0.5137
 6718TIP3    H141569   3.078   3.062  12.108  0.7550 -1.3480  1.7043
 6718TIP3    H241570   3.072   2.933  12.029 -0.7411  0.0895 -0.6416
 6719TIP3   OH241571   1.498   0.142   1.774 -0.4165 -0.2861  0.0020
 6719TIP3    H141572   1.578   0.146   1.827  0.1069  0.1629 -0.7954
 6719TIP3    H241573   1.497   0.225   1.726 -1.0950 -0.5075 -0.3825
 6720TIP3   OH241574   0.755   3.135   1.591  0.1286 -0.0140  0.2480
 6720TIP3    H141575   0.840   3.104   1.622  0.8476  0.0906 -1.5316
 6720TIP3    H241576   0.736   3.080   1.515 -0.6704  0.9711 -0.2759
 6721TIP3   OH241577   3.740   5.494  15.567  0.5132  0.1766 -0.4203
 6721TIP3    H141578   3.795   5.433  15.518  1.5955  0.5740  0.2471
 6721TIP3    H241579   3.651   5.477  15.537  1.0311 -0.2966 -1.7507
 6722TIP3   OH241580   2.618   2.456  16.589 -0.1735  0.2842 -0.6866
 6722TIP3    H141581   2.612   2.381  16.530  0.1579  0.4852 -0.9783
 6722TIP3    H241582   2.674   2.425  16.661 -1.2263 -0.2263 -0.0515
 6723TIP3   OH241583   3.507   5.972  13.607 -0.2134 -0.0321  0.1267
 6723TIP3    H141584   3.574   6.032  13.574 -0.0710 -0.1701  0.1628
 6723TIP3    H241585   3.533   5.954  13.698  0.6638 -1.4195 -0.3558
 6724TIP3   OH241586   5.722   3.922   3.186  0.1700  0.5767  0.1546
 6724TIP3    H141587   5.745   3.840   3.230 -0.5544  0.4064  0.2230
 6724TIP3    H241588   5.636   3.945   3.222  0.0395  0.9842 -0.4115
 6725TIP3   OH241589   2.762   0.290  15.428 -0.1501  0.3856 -0.1841
 6725TIP3    H141590   2.770   0.341  15.509 -0.7015  0.8588 -0.4216
 6725TIP3    H241591   2.752   0.356  15.360 -2.2857 -0.0282 -0.3479
 6726TIP3   OH241592   1.277   6.368   4.806  0.2515 -0.0009  0.1151
 6726TIP3    H141593   1.311   6.295   4.754  1.1507  0.8499 -0.5152
 6726TIP3    H241594   1.347   6.389   4.868 -0.4434 -0.3880  1.0722
 6727TIP3   OH241595   4.195   4.231  15.773  0.8358 -0.1337  0.7692
 6727TIP3    H141596   4.202   4.224  15.678 -0.2295 -1.8393  0.7891
 6727TIP3    H241597   4.161   4.320  15.787  0.5707 -0.0138 -0.4713
 6728TIP3   OH241598   3.146   3.597  17.022  0.1174  0.0864 -0.1666
 6728TIP3    H141599   3.141   3.524  17.084  0.8481  0.4928  0.3824
 6728TIP3    H241600   3.089   3.664  17.059 -2.4082 -1.0106 -1.8395
 6729TIP3   OH241601   3.187   1.117  17.322  0.0617 -0.2191  0.0470
 6729TIP3    H141602   3.212   1.027  17.345  0.8240  0.2925  1.3184
 6729TIP3    H241603   3.093   1.112  17.305  0.1755 -1.3391 -0.3259
 6730TIP3   OH241604   1.943   5.371   6.838 -0.2250  0.7256  0.1933
 6730TIP3    H141605   1.951   5.410   6.751 -0.8702  1.2756  0.3715
 6730TIP3    H241606   2.018   5.404   6.886  0.5117 -0.1238 -0.3492
 6731TIP3   OH241607   6.492   0.375  14.110  0.5565  0.1788 -0.1204
 6731TIP3    H141608   6.411   0.418  14.137  0.0679 -1.9892  2.2353
 6731TIP3    H241609   6.464   0.309  14.047  0.5204 -0.2799  0.3670
 6732TIP3   OH241610   4.909   3.583   5.609  0.0883  0.2606 -0.2619
 6732TIP3    H141611   4.927   3.671   5.577  0.3171  0.4723  0.4448
 6732TIP3    H241612   4.815   3.571   5.592  0.1623  0.4451 -0.8193
 6733TIP3   OH241613   2.107   0.784   4.552  0.2449  0.4089 -0.5746
 6733TIP3    H141614   2.121   0.876   4.526 -1.9394  0.5345 -1.5019
 6733TIP3    H241615   2.097   0.788   4.647  0.9099  1.0187 -0.5189
 6734TIP3   OH241616   2.166   1.552   4.460  0.1537  0.1409 -0.0637
 6734TIP3    H141617   2.188   1.629   4.406 -0.2024  0.5365  0.3468
 6734TIP3    H241618   2.194   1.576   4.548 -0.8365  0.1962  0.2533
 6735TIP3   OH241619   4.557   6.121   5.645 -0.3957  0.3177  0.2867
 6735TIP3    H141620   4.614   6.178   5.698 -1.0172 -0.7230  2.1562
 6735TIP3    H241621   4.494   6.181   5.605  0.1482  1.1495  0.6468
 6736TIP3   OH241622   1.069   6.181   0.681  0.1967 -0.7115 -0.0589
 6736TIP3    H141623   1.064   6.085   0.676  0.1372 -0.7603  0.8065
 6736TIP3    H241624   1.056   6.201   0.774  0.9823  0.0918 -0.1105
 6737TIP3   OH241625   3.900   1.534   0.854 -0.1362 -0.1513 -0.1005
 6737TIP3    H141626   3.917   1.551   0.947  0.7112  1.4956 -0.5304
 6737TIP3    H241627   3.981   1.561   0.810 -0.2387 -1.6330 -1.2677
 6738TIP3   OH241628   0.246   5.299   1.728  0.1267 -0.0684 -0.1465
 6738TIP3    H141629   0.304   5.314   1.802 -0.4815 -0.9230  0.5223
 6738TIP3    H241630   0.301   5.253   1.663  1.2139  2.4100 -1.0863
 6739TIP3   OH241631   1.718   0.778  16.175 -0.1153 -0.1800 -0.0683
 6739TIP3    H141632   1.701   0.717  16.103 -0.5778 -0.3210  0.1565
 6739TIP3    H241633   1.794   0.829  16.146 -0.2743 -0.2609 -0.6367
 6740TIP3   OH241634   4.677   2.058   0.867  0.1683  0.0421  0.1148
 6740TIP3    H141635   4.630   2.105   0.936  0.1444  0.6389 -0.3004
 6740TIP3    H241636   4.747   2.117   0.840  1.0636 -0.7740  0.6055
 6741TIP3   OH241637   2.347   6.424  13.546 -0.3473  0.1433  0.4555
 6741TIP3    H141638   2.312   6.394  13.629  0.5258  1.6577  1.4227
 6741TIP3    H241639   2.287   6.493  13.517  0.4459  1.0543  0.9039
 6742TIP3   OH241640   4.590   1.452  15.624  0.0085 -0.8164  0.1548
 6742TIP3    H141641   4.574   1.480  15.714 -0.2626 -0.5372  0.0235
 6742TIP3    H241642   4.548   1.520  15.570  0.6548 -0.6838 -0.1838
 6743TIP3   OH241643   2.764   5.640  15.797  0.8591  0.7300  0.5101
 6743TIP3    H141644   2.676   5.647  15.833  0.4027 -1.5078 -0.0015
 6743TIP3    H241645   2.757   5.679  15.709 -0.6784 -2.6177 -1.0190
 6744TIP3   OH241646   0.450   5.105  14.128 -0.4219 -0.0875  0.2839
 6744TIP3    H141647   0.449   5.195  14.098  0.5775  0.0070  0.5020
 6744TIP3    H241648   0.358   5.081  14.137 -0.6906  0.8538  0.0768
 6745TIP3   OH241649   4.297   2.917  16.145 -1.3797  0.1220  0.2183
 6745TIP3    H141650   4.253   2.995  16.111 -0.4927  0.0376 -1.2179
 6745TIP3    H241651   4.322   2.940  16.234 -1.7609  1.2187  0.0565
 6746TIP3   OH241652   5.578   1.696  11.649 -0.0121 -0.0539 -0.1533
 6746TIP3    H141653   5.581   1.639  11.572 -0.7232 -0.6711  0.2628
 6746TIP3    H241654   5.639   1.766  11.629 -0.9314  0.3438 -1.7142
 6747TIP3   OH241655   5.655   1.059  12.486  0.0461  0.2073 -0.0628
 6747TIP3    H141656   5.637   1.127  12.551  0.1853 -1.5641  1.9588
 6747TIP3    H241657   5.570   1.019  12.468 -0.0528  0.9487 -1.3218
 6748TIP3   OH241658   4.308   2.021   3.265  0.5348  0.1709 -0.0904
 6748TIP3    H141659   4.296   1.930   3.292  0.0081  0.2837  0.0609
 6748TIP3    H241660   4.390   2.021   3.216  0.4149 -0.4338 -0.2948
 6749TIP3   OH241661   4.071   5.158   4.557  0.3348  0.2924  0.1091
 6749TIP3    H141662   4.103   5.142   4.646 -2.1918  0.9306  1.2317
 6749TIP3    H241663   4.033   5.246   4.561 -0.9978 -0.1887 -1.2380
 6750TIP3   OH241664   2.033   3.512   5.169 -0.3037 -0.7159  0.0653
 6750TIP3    H141665   1.990   3.564   5.237  3.1329  0.8512  1.2642
 6750TIP3    H241666   1.997   3.546   5.087 -2.9731 -1.1636  0.9597
 6751TIP3   OH241667   0.702   0.686  14.339  0.5489 -0.2017  0.4319
 6751TIP3    H141668   0.624   0.726  14.379 -0.4211 -1.6526  0.0661
 6751TIP3    H241669   0.747   0.643  14.411 -0.0640 -1.0353  0.3236
 6752TIP3   OH241670   2.859   6.504  11.402 -0.2792  0.6739 -0.3956
 6752TIP3    H141671   2.936   6.532  11.450  0.6870  0.0287 -1.5169
 6752TIP3    H241672   2.893   6.452  11.330 -1.8271 -0.5499 -0.2934
 6753TIP3   OH241673   3.967   2.602   4.118  0.6598 -0.2750  0.0036
 6753TIP3    H141674   4.028   2.561   4.179  2.2328  0.5266 -0.9465
 6753TIP3    H241675   3.911   2.530   4.089  0.9709 -0.9986  1.1142
 6754TIP3   OH241676   5.470   2.150  12.704 -0.3274  0.1310  0.3155
 6754TIP3    H141677   5.555   2.194  12.703  1.1269 -2.4900 -0.9875
 6754TIP3    H241678   5.484   2.069  12.655 -4.1015  0.4464 -1.6309
 6755TIP3   OH241679   2.118   0.315   5.314 -0.1655  0.4835 -0.0521
 6755TIP3    H141680   2.081   0.268   5.389 -1.9092  3.3206  1.0116
 6755TIP3    H241681   2.083   0.269   5.238  1.6084 -2.4500  0.7376
 6756TIP3   OH241682   5.307   4.434   1.970 -0.6874  0.3049 -0.2808
 6756TIP3    H141683   5.291   4.341   1.982 -1.6431  0.6298  1.3955
 6756TIP3    H241684   5.280   4.473   2.053  0.2228  2.0129 -0.7446
 6757TIP3   OH241685   4.598   6.131   4.960  0.0787  0.3058 -0.3435
 6757TIP3    H141686   4.607   6.129   5.056  0.1865 -2.1064 -0.3364
 6757TIP3    H241687   4.511   6.094   4.944  0.0790  0.6533 -1.1705
 6758TIP3   OH241688   0.156   2.703   4.422  0.1916 -0.1599  0.0385
 6758TIP3    H141689   0.141   2.630   4.362  0.9930 -0.8281  0.6320
 6758TIP3    H241690   0.246   2.730   4.406 -0.3142  1.2113 -0.6937
 6759TIP3   OH241691   4.409   3.303  16.266 -0.2047 -0.4013 -0.7269
 6759TIP3    H141692   4.348   3.283  16.195  0.4189 -2.4238 -0.7561
 6759TIP3    H241693   4.448   3.219  16.289  1.4065  0.5763  0.3685
 6760TIP3   OH241694   3.305   5.401  16.455  0.4937 -0.3774  0.4257
 6760TIP3    H141695   3.355   5.332  16.411 -2.0871 -2.2976  0.2528
 6760TIP3    H241696   3.215   5.386  16.427 -0.8205  0.3441  3.8035
 6761TIP3   OH241697   5.785   5.912   3.626  0.2755 -0.3846 -0.0639
 6761TIP3    H141698   5.714   5.956   3.579 -0.1800  1.8529  2.4671
 6761TIP3    H241699   5.803   5.833   3.575  0.6764  2.3169 -4.6317
 6762TIP3   OH241700   2.705   5.265   6.172  0.6309 -0.5226 -0.1252
 6762TIP3    H141701   2.685   5.188   6.225 -1.5214 -1.8555 -2.6824
 6762TIP3    H241702   2.800   5.261   6.159  0.6639 -2.3120  0.4283
 6763TIP3   OH241703   0.369   6.227   4.351  0.3845 -0.3576  1.0048
 6763TIP3    H141704   0.315   6.159   4.310  0.2845  0.2513  0.0980
 6763TIP3    H241705   0.442   6.179   4.389  1.3358 -0.8524 -1.2659
 6764TIP3   OH241706   0.317   6.128  11.012 -0.2158 -0.0631  0.1933
 6764TIP3    H141707   0.409   6.140  11.032 -0.2906  0.1313  0.4269
 6764TIP3    H241708   0.294   6.201  10.955 -0.0375 -0.5406 -0.5010
 6765TIP3   OH241709   1.634   3.390   1.282 -0.7209 -0.1085 -0.0795
 6765TIP3    H141710   1.648   3.435   1.198 -1.7903 -0.8830 -0.7068
 6765TIP3    H241711   1.611   3.460   1.343  1.6128  0.6680 -0.0067
 6766TIP3   OH241712   3.843   6.539   5.988  0.1700 -0.3104  0.6062
 6766TIP3    H141713   3.789   6.593   6.044  0.1294 -0.6548  0.9035
 6766TIP3    H241714   3.926   6.586   5.982  0.1702 -0.2680  0.9429
 6767TIP3   OH241715   1.502   4.448  12.219  0.3422  0.0250 -0.9286
 6767TIP3    H141716   1.522   4.385  12.150  2.4705  2.4540 -2.7042
 6767TIP3    H241717   1.568   4.429  12.287 -0.5403 -1.1288 -0.3582
 6768TIP3   OH241718   3.916   0.298   2.291 -0.3762  0.1676 -0.2454
 6768TIP3    H141719   3.961   0.380   2.269  0.6278 -0.3560 -0.2201
 6768TIP3    H241720   3.938   0.283   2.383 -1.4855  0.4416  0.0695
 6769TIP3   OH241721   1.900   5.268   0.559  0.2988  0.6255 -0.8637
 6769TIP3    H141722   1.982   5.304   0.525 -0.9996  3.5702 -1.1813
 6769TIP3    H241723   1.858   5.227   0.484  0.8640  0.2942 -1.0029
 6770TIP3   OH241724   2.844   3.332   6.608 -0.2168 -0.0495 -0.2288
 6770TIP3    H141725   2.795   3.306   6.530 -0.7757  0.3882 -0.0313
 6770TIP3    H241726   2.809   3.277   6.678 -0.5089  0.3346 -0.0664
 6771TIP3   OH241727   6.159   5.618   0.819 -0.8970 -0.4736 -0.5811
 6771TIP3    H141728   6.219   5.689   0.801 -1.8180  0.8553  1.2564
 6771TIP3    H241729   6.210   5.555   0.869 -1.4169  1.7056  3.0325
 6772TIP3   OH241730   5.116   5.713   1.753  0.2856  0.1558 -0.2109
 6772TIP3    H141731   5.148   5.758   1.675 -0.2345  0.8844 -0.0126
 6772TIP3    H241732   5.045   5.657   1.722 -0.9577  1.5994 -0.0491
 6773TIP3   OH241733   3.381   2.768  16.003 -0.5157 -0.2432 -0.7630
 6773TIP3    H141734   3.373   2.816  15.921 -2.3657 -0.7266 -0.9228
 6773TIP3    H241735   3.326   2.690  15.990 -1.6197  0.1362  1.2243
 6774TIP3   OH241736   1.281   0.220  13.814 -0.8737  0.2585  0.0920
 6774TIP3    H141737   1.315   0.259  13.895 -2.3461 -0.8239  1.2686
 6774TIP3    H241738   1.339   0.254  13.746  2.0635 -0.8066  1.8682
 6775TIP3   OH241739   3.754   0.425   5.390 -0.1095  0.4975 -0.6619
 6775TIP3    H141740   3.817   0.355   5.405 -0.7251 -0.2756 -1.5066
 6775TIP3    H241741   3.703   0.395   5.314 -1.2047  1.2816 -0.2682
 6776TIP3   OH241742   0.474   1.445  14.905 -0.3525 -0.1575 -0.2026
 6776TIP3    H141743   0.540   1.433  14.974  0.1406 -1.4057 -0.8446
 6776TIP3    H241744   0.515   1.505  14.843 -0.6618  0.6976  0.4007
 6777TIP3   OH241745   5.413   4.681   1.106 -0.3485  0.0989 -0.2539
 6777TIP3    H141746   5.349   4.738   1.064 -0.0034  1.5137  1.0569
 6777TIP3    H241747   5.497   4.713   1.075 -0.1164  0.8199  1.0404
 6778TIP3   OH241748   6.571   1.408   1.412 -0.3253 -0.5136  0.0457
 6778TIP3    H141749   6.662   1.394   1.385 -0.2844 -1.1926  0.5155
 6778TIP3    H241750   6.572   1.395   1.506 -0.9999 -0.9942 -0.0091
 6779TIP3   OH241751   6.243   1.069   1.982 -0.3331  0.1516 -0.3224
 6779TIP3    H141752   6.255   1.140   2.045 -1.0283 -0.2937  0.3216
 6779TIP3    H241753   6.204   0.998   2.032 -2.4425  0.3503 -1.5624
 6780TIP3   OH241754   1.998   1.607   2.287 -0.0659  0.1214  1.1338
 6780TIP3    H141755   2.079   1.602   2.237 -0.2179  0.5677  0.8425
 6780TIP3    H241756   1.988   1.700   2.308 -0.8707  0.1689  0.5647
 6781TIP3   OH241757   1.941   0.079   3.857  0.6297  0.4054  0.3518
 6781TIP3    H141758   1.938   0.074   3.953 -1.1305  0.6052  0.3430
 6781TIP3    H241759   2.015   0.137   3.839 -0.6187  2.5936  1.7246
 6782TIP3   OH241760   5.467   5.931   2.169 -0.2890 -0.0099 -0.0539
 6782TIP3    H141761   5.475   5.841   2.137  1.2578  0.2678 -0.5453
 6782TIP3    H241762   5.390   5.966   2.123 -0.5403 -0.8917 -0.3264
 6783TIP3   OH241763   6.137   5.321   1.244  0.1761  0.0361  0.0979
 6783TIP3    H141764   6.067   5.383   1.223  0.8740  0.4859 -1.0305
 6783TIP3    H241765   6.183   5.360   1.318  0.5037  0.8097 -0.4945
 6784TIP3   OH241766   2.635   5.331   2.541 -0.7971  0.2827 -0.4302
 6784TIP3    H141767   2.686   5.264   2.494 -0.2763  1.4268 -1.5613
 6784TIP3    H241768   2.673   5.335   2.628 -1.2817 -1.3570 -0.1117
 6785TIP3   OH241769   2.433   2.838   4.760  0.3676  0.2302 -0.2549
 6785TIP3    H141770   2.387   2.814   4.680 -0.1733  2.2863 -0.6233
 6785TIP3    H241771   2.415   2.931   4.771  0.1316 -0.0610  2.4786
 6786TIP3   OH241772   5.084   5.791   2.490  0.0399 -0.3870 -0.4245
 6786TIP3    H141773   5.087   5.696   2.489 -0.7781 -0.4886  1.7592
 6786TIP3    H241774   5.078   5.814   2.583 -0.1516  1.7742 -0.9207
 6787TIP3   OH241775   1.150   2.377  10.998  0.0711  0.0044  0.1278
 6787TIP3    H141776   1.098   2.451  10.968  0.8714  0.1609 -0.9384
 6787TIP3    H241777   1.239   2.397  10.969  0.2858 -1.4009 -0.2375
 6788TIP3   OH241778   3.218   3.787   5.856 -0.3310  0.5046 -0.3044
 6788TIP3    H141779   3.285   3.757   5.794  2.6320  2.6162  1.5998
 6788TIP3    H241780   3.230   3.731   5.932 -1.3070  0.4382 -0.1852
 6789TIP3   OH241781   3.576   3.484   2.824  0.2041 -0.1701 -0.2936
 6789TIP3    H141782   3.639   3.425   2.865 -1.8772 -1.9940  0.4582
 6789TIP3    H241783   3.630   3.551   2.783  2.5629 -0.7910  1.5650
 6790TIP3   OH241784   4.645   5.748  15.558 -0.4480 -0.1939  0.8623
 6790TIP3    H141785   4.563   5.795  15.565 -0.2257  0.5787 -1.2092
 6790TIP3    H241786   4.625   5.670  15.506 -0.2941 -1.2026  2.2261
 6791TIP3   OH241787   1.834   1.502  13.222  0.4008 -0.0575  0.3517
 6791TIP3    H141788   1.851   1.563  13.294  0.4889  0.2900  0.0415
 6791TIP3    H241789   1.919   1.493  13.178  0.6531 -1.2917  1.0727
 6792TIP3   OH241790   3.465   4.243  15.439 -0.3490  0.3607  0.3928
 6792TIP3    H141791   3.501   4.194  15.513  0.7284  3.7669  2.3961
 6792TIP3    H241792   3.531   4.235  15.370 -0.8375 -1.9620  0.1362
 6793TIP3   OH241793   1.451   4.731  17.498  0.5590 -1.2101 -0.3196
 6793TIP3    H141794   1.458   4.699  17.588 -2.3257  1.0355  0.8748
 6793TIP3    H241795   1.399   4.665  17.452  1.9886 -2.3316 -0.4124
 6794TIP3   OH241796   5.619   1.401   1.875 -0.0754  0.4737  0.1688
 6794TIP3    H141797   5.636   1.320   1.827  0.7126  0.4471  0.4750
 6794TIP3    H241798   5.574   1.373   1.955  1.1954  0.2009  0.8130
 6795TIP3   OH241799   2.236   3.299  11.472  0.4487  0.4437  0.0425
 6795TIP3    H141800   2.270   3.282  11.560 -1.9147  0.0836  0.9764
 6795TIP3    H241801   2.229   3.213  11.432 -1.3069  0.2256  0.7019
 6796TIP3   OH241802   4.035   4.959  12.063  0.1504  0.6949 -0.0226
 6796TIP3    H141803   4.052   5.023  11.994 -2.7089  0.3696 -1.1594
 6796TIP3    H241804   4.011   5.012  12.140 -1.2801  1.0595 -0.6891
 6797TIP3   OH241805   2.615   3.666  16.419 -0.1160  0.0528 -0.2016
 6797TIP3    H141806   2.610   3.621  16.503  1.2907  1.2335  0.5560
 6797TIP3    H241807   2.528   3.656  16.381 -0.9798  0.0355  1.6910
 6798TIP3   OH241808   6.547   4.535   3.147  0.4201 -0.6434  0.2989
 6798TIP3    H141809   6.498   4.542   3.229  2.4656  0.9606  1.4827
 6798TIP3    H241810   6.541   4.622   3.108  1.6017 -0.6417  0.0755
 6799TIP3   OH241811   5.827   0.420  10.637  0.2594  0.3583  0.0514
 6799TIP3    H141812   5.892   0.368  10.684 -0.1801  1.6436  2.1968
 6799TIP3    H241813   5.742   0.383  10.664  0.0086  0.5848 -0.4082
 6800TIP3   OH241814   3.080   4.067  14.733 -0.0186 -0.6463 -0.6645
 6800TIP3    H141815   3.047   4.030  14.814 -3.1433  0.7860 -1.1139
 6800TIP3    H241816   3.065   3.999  14.667 -0.4753 -0.6636 -0.5473
 6801TIP3   OH241817   2.137   3.557  13.608 -0.1275 -0.4015 -0.3980
 6801TIP3    H141818   2.215   3.614  13.609  0.2076 -0.8575 -0.1865
 6801TIP3    H241819   2.137   3.519  13.520 -0.3580 -0.0738 -0.5436
 6802TIP3   OH241820   0.665   6.094  14.026 -0.7466  0.1756  0.2704
 6802TIP3    H141821   0.677   6.182  13.990  2.4848  0.3039  1.3560
 6802TIP3    H241822   0.629   6.043  13.953 -2.6154  2.3149 -0.3983
 6803TIP3   OH241823   1.795   6.243  16.687  0.3243  0.2328  0.6053
 6803TIP3    H141824   1.850   6.280  16.618 -0.1494  2.9456  1.5263
 6803TIP3    H241825   1.856   6.222  16.758  0.5100  0.1719  0.4261
 6804TIP3   OH241826   0.606   4.359   3.857  0.6051 -0.0037  0.3653
 6804TIP3    H141827   0.555   4.440   3.856  0.5481 -0.0098  1.8123
 6804TIP3    H241828   0.561   4.303   3.920  1.1959 -0.8061  0.0855
 6805TIP3   OH241829   5.292   5.214  12.819 -0.3290  0.0418  0.6525
 6805TIP3    H141830   5.292   5.119  12.816  1.7296  0.0214 -0.7171
 6805TIP3    H241831   5.378   5.239  12.786 -1.3096  2.4201 -0.3550
 6806TIP3   OH241832   3.025   5.988   1.595  0.9657 -0.4538  0.2613
 6806TIP3    H141833   2.954   6.048   1.571  0.3245 -1.7355 -1.2368
 6806TIP3    H241834   3.087   5.996   1.523  1.3855 -0.8016  0.5836
 6807TIP3   OH241835   6.022   0.045  15.481 -0.0001  0.1124 -0.2353
 6807TIP3    H141836   5.954   0.072  15.543 -0.5714 -0.1466 -0.7482
 6807TIP3    H241837   6.021  -0.050  15.483  1.0675  0.0919  0.5238
 6808TIP3   OH241838   3.236   1.386  11.626 -0.2734  0.0979  0.5596
 6808TIP3    H141839   3.285   1.305  11.639 -0.3030 -0.4104 -1.9221
 6808TIP3    H241840   3.156   1.358  11.580 -0.1634  1.5267 -0.5887
 6809TIP3   OH241841   3.610   5.249  15.024  0.3479 -1.0076 -0.0689
 6809TIP3    H141842   3.524   5.290  15.015  0.3416 -1.1899 -1.0489
 6809TIP3    H241843   3.672   5.317  14.997  0.2958 -1.7805 -2.3537
 6810TIP3   OH241844   3.789   4.354  13.300  0.2299  0.3553  0.3195
 6810TIP3    H141845   3.878   4.332  13.328 -0.7403 -0.7266  2.8763
 6810TIP3    H241846   3.786   4.449  13.303  1.4560  0.4405 -0.4246
 6811TIP3   OH241847   4.079   4.216  17.290  0.1203  0.0445 -0.6405
 6811TIP3    H141848   4.053   4.169  17.210 -0.2430  0.0196 -0.5064
 6811TIP3    H241849   4.114   4.299  17.259 -0.3527  0.1836 -0.8044
 6812TIP3   OH241850   1.028   3.985   6.952 -0.0990 -0.0808  0.2146
 6812TIP3    H141851   1.013   4.061   6.896  1.0857  0.9672  1.2351
 6812TIP3    H241852   0.953   3.986   7.013  0.0610  0.4646  0.4130
 6813TIP3   OH241853   4.334   6.030  11.132 -0.0734  0.3175  0.3853
 6813TIP3    H141854   4.241   6.040  11.109 -0.5940 -0.1684  2.1744
 6813TIP3    H241855   4.380   6.046  11.049 -1.8372 -1.3877 -1.0222
 6814TIP3   OH241856   0.870   4.877  15.826 -0.6481  0.8661 -0.1922
 6814TIP3    H141857   0.915   4.929  15.759  0.0064 -0.4363 -0.8050
 6814TIP3    H241858   0.838   4.942  15.889  1.2084  1.9292 -0.2672
 6815TIP3   OH241859   5.714   6.199  12.677  0.4253  0.6153  0.4041
 6815TIP3    H141860   5.657   6.208  12.754 -1.5869  0.0488 -0.9219
 6815TIP3    H241861   5.674   6.256  12.611  1.5938  0.4224 -0.4959
 6816TIP3   OH241862   3.502   0.960  12.051  0.0621  0.0303  0.1129
 6816TIP3    H141863   3.539   0.930  11.968 -1.4927 -0.1969 -0.5418
 6816TIP3    H241864   3.485   0.880  12.100 -0.1916  0.0749  0.1033
 6817TIP3   OH241865   4.197   5.436   0.706 -0.1058  0.9848  0.4416
 6817TIP3    H141866   4.103   5.441   0.721 -0.4121 -0.8260 -0.6454
 6817TIP3    H241867   4.236   5.466   0.788 -1.6094  1.7785  0.9007
 6818TIP3   OH241868   0.617   4.589   1.823  0.6445 -0.2540 -0.4933
 6818TIP3    H141869   0.640   4.603   1.915  1.8694  1.4545 -1.0031
 6818TIP3    H241870   0.573   4.504   1.822 -0.2472  0.1056  1.7966
 6819TIP3   OH241871   5.513   2.376   3.699  0.7069  0.0221 -0.2466
 6819TIP3    H141872   5.532   2.467   3.676  0.3954 -0.2596 -1.7643
 6819TIP3    H241873   5.599   2.336   3.710  1.0168 -0.2197 -2.8018
 6820TIP3   OH241874   4.743   3.706   1.073 -0.0399  0.1132  0.3247
 6820TIP3    H141875   4.673   3.771   1.064 -1.3164 -1.0528  1.2972
 6820TIP3    H241876   4.711   3.630   1.025  0.7857 -0.2831  0.3936
 6821TIP3   OH241877   6.664   2.265  14.624 -0.1727 -0.2755  0.3533
 6821TIP3    H141878   6.747   2.218  14.618  1.2411  1.6489  2.8949
 6821TIP3    H241879   6.662   2.320  14.546  0.6897 -0.7062  0.0160
 6822TIP3   OH241880   0.041   0.119  11.978 -0.3647 -0.1276 -0.1784
 6822TIP3    H141881   0.136   0.132  11.972 -0.3419  1.4797  2.2064
 6822TIP3    H241882   0.009   0.140  11.891  1.3706  0.6362 -0.6882
 6823TIP3   OH241883   3.933   4.401  16.780 -0.0795  0.2432  0.1977
 6823TIP3    H141884   3.983   4.469  16.736 -0.1670 -0.5680 -1.1914
 6823TIP3    H241885   3.866   4.375  16.717 -2.1150  1.0729  1.8724
 6824TIP3   OH241886   0.925   3.693   3.264  0.0171  0.2107  0.0226
 6824TIP3    H141887   0.903   3.600   3.261  0.0654  0.2314 -1.8760
 6824TIP3    H241888   0.995   3.699   3.329 -0.3622 -0.9795  0.5693
 6825TIP3   OH241889   1.629   5.368  16.287 -0.3238  0.2176  0.4374
 6825TIP3    H141890   1.537   5.376  16.315 -0.5460 -1.3315  0.2609
 6825TIP3    H241891   1.625   5.312  16.209  0.8089 -0.3638  0.7745
 6826TIP3   OH241892   6.299   6.621   4.976 -0.4475  0.5390  0.0575
 6826TIP3    H141893   6.339   6.576   4.902 -1.6123 -0.4450 -0.0051
 6826TIP3    H241894   6.351   6.701   4.987  0.2949  0.2537 -1.2317
 6827TIP3   OH241895   1.072   6.662   0.738 -0.0039 -0.0938  0.0012
 6827TIP3    H141896   1.087   6.611   0.658  1.1283  2.0636 -1.2702
 6827TIP3    H241897   1.148   6.645   0.792  0.5063  0.4080 -0.5400
 6828TIP3   OH241898   2.400   0.719   5.756 -0.3197  0.1193 -0.0362
 6828TIP3    H141899   2.393   0.637   5.706 -0.9951 -0.5888  1.1618
 6828TIP3    H241900   2.310   0.741   5.777 -0.0402  0.3246  0.9698
 6829TIP3   OH241901   0.305   1.365  12.881 -0.3332  0.2187 -0.3223
 6829TIP3    H141902   0.261   1.292  12.837  0.5061 -0.9456  0.7299
 6829TIP3    H241903   0.384   1.327  12.918  2.0574  2.4027 -2.7807
 6830TIP3   OH241904   4.770   4.367  17.148 -0.1668 -0.0117 -0.2196
 6830TIP3    H141905   4.773   4.271  17.156 -0.2580  0.1346  2.3313
 6830TIP3    H241906   4.848   4.397  17.194 -0.9270  1.1896  0.3210
 6831TIP3   OH241907   4.015   5.467   3.277 -0.3955  0.2763  0.0989
 6831TIP3    H141908   4.068   5.387   3.276  0.4317  0.8206 -0.6792
 6831TIP3    H241909   3.944   5.447   3.338  1.1094 -0.1969  1.7559
 6832TIP3   OH241910   0.179   1.532  11.599  0.0353 -0.4421 -0.3651
 6832TIP3    H141911   0.121   1.556  11.528  0.5280 -1.4070 -1.1347
 6832TIP3    H241912   0.174   1.436  11.602  0.5188 -0.4509  0.4639
 6833TIP3   OH241913   3.472   5.499   0.037 -0.5980  0.0174  0.8096
 6833TIP3    H141914   3.547   5.460   0.082 -0.5055 -1.6660 -0.6982
 6833TIP3    H241915   3.496   5.496  -0.055 -1.9590  0.7646  0.4104
 6834TIP3   OH241916   5.864   1.482   2.451 -0.3938  0.5408 -0.0500
 6834TIP3    H141917   5.907   1.449   2.371 -0.2043 -2.1891  1.0763
 6834TIP3    H241918   5.771   1.471   2.434 -0.3452 -0.3263  0.1684
 6835TIP3   OH241919   2.435   3.693   3.516 -0.0555 -0.6850 -0.2618
 6835TIP3    H141920   2.433   3.789   3.522 -0.2727 -0.6800 -0.3812
 6835TIP3    H241921   2.501   3.675   3.449  0.5566 -0.6505  0.3325
 6836TIP3   OH241922   5.801   1.577  12.974  0.0827  0.4128 -0.4280
 6836TIP3    H141923   5.744   1.640  13.020 -0.8311 -0.0847 -0.8475
 6836TIP3    H241924   5.890   1.601  13.002 -0.3525  0.9282  0.6014
 6837TIP3   OH241925   4.654   3.781  13.716 -0.3215 -0.5894  0.1401
 6837TIP3    H141926   4.610   3.850  13.766 -2.6793 -1.8007 -0.1207
 6837TIP3    H241927   4.585   3.720  13.694  1.5518 -2.7009 -0.2695
 6838TIP3   OH241928   4.648   1.689   1.984  0.0314 -0.1109 -1.1826
 6838TIP3    H141929   4.609   1.706   2.069 -0.7544  0.7840 -1.7009
 6838TIP3    H241930   4.734   1.652   2.004 -0.4214 -0.5843 -0.0136
 6839TIP3   OH241931   6.519   1.454  17.181  0.4079 -0.0907 -0.3673
 6839TIP3    H141932   6.470   1.512  17.123  0.3046 -0.4364 -0.6251
 6839TIP3    H241933   6.588   1.416  17.126  0.5974 -0.0632 -0.1520
 6840TIP3   OH241934   1.534   4.573   4.544  0.3977  0.0221 -0.4039
 6840TIP3    H141935   1.532   4.606   4.633  0.7147  0.0570 -0.4070
 6840TIP3    H241936   1.515   4.479   4.552  0.7227 -0.0348 -0.2661
 6841TIP3   OH241937   3.569   0.096  16.709 -0.4801 -0.7310  0.3387
 6841TIP3    H141938   3.518   0.177  16.712  0.2111 -0.2990  1.1301
 6841TIP3    H241939   3.504   0.026  16.706 -1.0842 -0.1412 -0.4710
 6842TIP3   OH241940   1.765   1.302  12.933  0.7818  0.5353  0.0545
 6842TIP3    H141941   1.830   1.232  12.923 -0.0436 -0.2550  0.0216
 6842TIP3    H241942   1.688   1.269  12.887 -0.4386  0.3502  2.0789
 6843TIP3   OH241943   0.618   3.579  11.190 -0.7642  0.1193  0.0197
 6843TIP3    H141944   0.709   3.604  11.200  0.1374 -1.4832 -3.0081
 6843TIP3    H241945   0.596   3.605  11.100 -3.2071  0.1712  0.5637
 6844TIP3   OH241946   1.329   4.686  15.788  0.4779  0.5800 -0.1336
 6844TIP3    H141947   1.317   4.595  15.760  0.8092  0.4583  0.1113
 6844TIP3    H241948   1.273   4.694  15.866 -1.5763  1.3210 -1.5864
 6845TIP3   OH241949   1.924   3.946   3.398 -0.4420  0.2591  0.6172
 6845TIP3    H141950   1.959   3.970   3.484  3.4343 -1.8488 -0.1501
 6845TIP3    H241951   1.936   4.025   3.345  0.0800  0.6299  1.2566
 6846TIP3   OH241952   5.363   2.605  15.996  0.6202  0.0706 -0.0428
 6846TIP3    H141953   5.350   2.517  16.032 -0.2972 -1.2441 -3.2504
 6846TIP3    H241954   5.426   2.594  15.926  1.1229  2.1654  0.0127
 6847TIP3   OH241955   3.901   4.083  15.622 -1.4258 -0.1765  0.1939
 6847TIP3    H141956   3.836   4.042  15.678 -1.4842 -0.4423 -0.0663
 6847TIP3    H241957   3.883   4.177  15.628  0.2595  0.0753  2.7617
 6848TIP3   OH241958   4.793   0.468   1.848  0.4488 -0.2435  0.5356
 6848TIP3    H141959   4.773   0.506   1.934 -1.2118 -0.3573  0.2293
 6848TIP3    H241960   4.730   0.396   1.838  2.6387 -2.3212  0.5328
 6849TIP3   OH241961   5.720   2.761   1.907  0.1490 -0.3425  0.3895
 6849TIP3    H141962   5.723   2.723   1.995 -0.5125  3.0038  2.0030
 6849TIP3    H241963   5.641   2.815   1.906  0.6550  0.4814 -1.9316
 6850TIP3   OH241964   3.028   5.233   5.672  0.1957  0.2748  0.2723
 6850TIP3    H141965   2.973   5.156   5.657  1.9191 -0.7092 -1.2909
 6850TIP3    H241966   3.074   5.247   5.590  3.1583  0.3386  1.8279
 6851TIP3   OH241967   4.168   5.336   4.152 -0.4839  0.3093  0.3942
 6851TIP3    H141968   4.104   5.397   4.115  0.9656  1.3714 -0.4705
 6851TIP3    H241969   4.147   5.252   4.112 -1.3211  0.6470  0.1078
 6852TIP3   OH241970   6.037   2.301  17.362  0.0248 -0.0607  0.2146
 6852TIP3    H141971   6.000   2.340  17.283  0.3638 -1.4626 -0.6818
 6852TIP3    H241972   6.127   2.332  17.364 -0.1543  0.4626  0.4008
 6853TIP3   OH241973   1.981   6.035   2.778 -0.1359 -0.1018  0.0612
 6853TIP3    H141974   1.925   6.005   2.706  1.3152  0.7560 -1.5275
 6853TIP3    H241975   2.052   6.081   2.734  2.7605 -2.5375  1.7845
 6854TIP3   OH241976   5.964   1.138  17.416 -0.2054 -0.3690  0.3116
 6854TIP3    H141977   5.909   1.216  17.408  0.3242 -0.0500 -0.3825
 6854TIP3    H241978   5.902   1.066  17.428 -0.7699  0.0101 -0.2525
 6855TIP3   OH241979   1.068   2.145   5.536  0.0719  0.2819 -0.8372
 6855TIP3    H141980   1.111   2.225   5.507  1.4046 -0.1935 -0.2656
 6855TIP3    H241981   1.117   2.118   5.614 -0.0547 -1.3192 -1.2599
 6856TIP3   OH241982   1.658   0.552  14.585  0.0282 -0.2139 -0.8560
 6856TIP3    H141983   1.566   0.532  14.600 -1.0172  2.7764 -2.4740
 6856TIP3    H241984   1.672   0.535  14.492  1.2117 -0.8062 -0.5986
 6857TIP3   OH241985   3.687   1.864  13.958 -0.2384  0.2821  0.1830
 6857TIP3    H141986   3.603   1.901  13.984 -0.7257 -1.6620  1.5454
 6857TIP3    H241987   3.744   1.879  14.033  0.4416  0.9486 -0.4543
 6858TIP3   OH241988   0.674   1.038   5.355  0.1263  0.0057  0.3627
 6858TIP3    H141989   0.677   1.043   5.259 -0.4806  0.0813  0.3488
 6858TIP3    H241990   0.597   0.985   5.374 -0.6506  1.2691  0.8433
 6859TIP3   OH241991   1.215   1.663   6.382 -0.5574 -0.6703 -0.2247
 6859TIP3    H141992   1.162   1.742   6.394  0.7153 -0.0169  1.5693
 6859TIP3    H241993   1.247   1.670   6.292 -0.7458  0.7006 -0.2119
 6860TIP3   OH241994   1.548   6.132   0.904  0.6558  0.2948  0.2203
 6860TIP3    H141995   1.615   6.092   0.849 -1.2200 -1.6978 -0.7603
 6860TIP3    H241996   1.522   6.211   0.856  2.7517  1.5667  1.0139
 6861TIP3   OH241997   4.080   2.992   4.710 -0.3177  0.0135 -0.4650
 6861TIP3    H141998   4.162   2.971   4.754 -1.2782 -1.5626  0.6531
 6861TIP3    H241999   4.106   3.047   4.636  1.3076  3.4755  2.3678
 6862TIP3   OH242000   0.678   3.122  13.238 -0.4939  0.1253 -0.4375
 6862TIP3    H142001   0.729   3.083  13.167  0.2840  0.1916  0.0672
 6862TIP3    H242002   0.744   3.155  13.300 -1.1483  0.5363  0.0626
 6863TIP3   OH242003   4.176   5.016  16.505 -0.2573 -0.6338  0.3267
 6863TIP3    H142004   4.202   5.104  16.476  1.1677 -0.7699  1.0823
 6863TIP3    H242005   4.092   5.029  16.549  0.0213  0.3842  0.5812
 6864TIP3   OH242006   4.684   4.518  12.725 -0.0429  0.1947  0.3080
 6864TIP3    H142007   4.708   4.430  12.694 -0.5521  0.2808 -0.3258
 6864TIP3    H242008   4.667   4.568  12.646 -1.4598  0.3838  0.7088
 6865TIP3   OH242009   1.224   5.429  13.852  0.1699  0.1301  0.6568
 6865TIP3    H142010   1.220   5.512  13.805 -0.1441 -0.7531 -0.9417
 6865TIP3    H242011   1.134   5.415  13.884 -0.3074 -0.5838 -0.9086
 6866TIP3   OH242012   6.564   5.680   2.749 -0.0049  0.0099  0.1541
 6866TIP3    H142013   6.501   5.744   2.779 -0.6394 -0.0374 -1.0067
 6866TIP3    H242014   6.511   5.609   2.712  0.6829 -1.1114  1.2279
 6867TIP3   OH242015   3.483   6.033  14.783  0.3993  0.0005 -0.0218
 6867TIP3    H142016   3.449   6.073  14.703 -0.7408 -3.0669 -1.2160
 6867TIP3    H242017   3.570   6.072  14.794  1.0160 -0.1465 -3.3457
 6868TIP3   OH242018   4.609   6.412   3.741 -0.3852  0.6277  0.0999
 6868TIP3    H142019   4.618   6.407   3.836  3.1318  1.1014 -0.0703
 6868TIP3    H242020   4.699   6.424   3.709 -1.4029  0.2437 -3.3160
 6869TIP3   OH242021   5.525   0.483   6.120 -0.4316  1.0588 -0.2428
 6869TIP3    H142022   5.440   0.453   6.154 -0.3393  0.8155 -0.2249
 6869TIP3    H242023   5.561   0.406   6.076 -0.2192  1.1630 -0.2491
 6870TIP3   OH242024   6.260   4.667   0.012  0.1389 -0.1712  0.7775
 6870TIP3    H142025   6.166   4.681   0.022  0.4909  2.0128  1.6804
 6870TIP3    H242026   6.292   4.660   0.102  0.9064 -0.5032  0.4867
 6871TIP3   OH242027   0.773   0.826   0.113 -0.3059 -0.2009 -0.8014
 6871TIP3    H142028   0.701   0.837   0.051  0.7366  1.1226 -1.8247
 6871TIP3    H242029   0.823   0.752   0.079 -0.8997 -0.8235 -0.3460
 6872TIP3   OH242030   4.591   2.306   0.951 -0.6314 -0.9983 -0.3430
 6872TIP3    H142031   4.561   2.312   0.861  2.6671  0.7597 -1.4956
 6872TIP3    H242032   4.532   2.364   1.000 -0.1745  1.1524 -2.1797
 6873TIP3   OH242033   4.873   1.556   0.441 -0.0036  0.0425  0.1199
 6873TIP3    H142034   4.869   1.650   0.455 -0.9705  0.0907 -0.3673
 6873TIP3    H242035   4.961   1.530   0.471 -0.0776  0.9329  1.1399
 6874TIP3   OH242036   2.328   6.186  13.384 -0.0048  0.3261 -0.2064
 6874TIP3    H142037   2.377   6.115  13.426  0.2979  0.1998 -0.7633
 6874TIP3    H242038   2.365   6.266  13.420  0.6582  0.2331 -0.6566
 6875TIP3   OH242039   1.288   4.673  13.314 -0.3978 -0.1590  0.0932
 6875TIP3    H142040   1.211   4.633  13.271 -0.2942 -0.6279  0.3325
 6875TIP3    H242041   1.354   4.678  13.245  0.3325 -2.4233  0.5261
 6876TIP3   OH242042   2.927   3.530  12.127 -0.2769 -0.3178  0.2617
 6876TIP3    H142043   2.967   3.466  12.067  0.0487  2.2755 -2.5157
 6876TIP3    H242044   2.999   3.555  12.186 -0.1139 -1.6438  0.6575
 6877TIP3   OH242045   2.760   2.045  14.317  0.2307 -0.6904  0.0988
 6877TIP3    H142046   2.838   2.101  14.318 -0.6376  0.6149 -1.3020
 6877TIP3    H242047   2.774   1.986  14.243 -0.0755 -0.4948 -0.1174
 6878TIP3   OH242048   1.524   4.914  16.255 -0.5194 -0.5274 -0.0377
 6878TIP3    H142049   1.512   4.820  16.241  0.3994 -0.5237 -1.0323
 6878TIP3    H242050   1.588   4.940  16.188 -0.1873  0.6613  0.7072
 6879TIP3   OH242051   1.690   2.436  15.948 -0.1735  0.5471 -0.3227
 6879TIP3    H142052   1.774   2.457  15.907  0.6166 -0.4506  0.7249
 6879TIP3    H242053   1.640   2.518  15.943  1.1774  1.4173 -0.2197
 6880TIP3   OH242054   4.687   1.894   2.879 -0.1618  1.1102  0.0470
 6880TIP3    H142055   4.757   1.832   2.858  0.0749  1.1205  0.7867
 6880TIP3    H242056   4.619   1.876   2.814 -0.5144 -0.6055  0.8284
 6881TIP3   OH242057   3.515   5.455   3.644 -0.2011 -0.1130  0.0901
 6881TIP3    H142058   3.589   5.432   3.700 -0.2345  0.9238  0.5791
 6881TIP3    H242059   3.453   5.383   3.654  0.3575 -0.5624  0.3637
 6882TIP3   OH242060   2.953   5.876   2.492 -0.2306 -0.0446  0.3032
 6882TIP3    H142061   2.909   5.796   2.464 -0.2638 -0.2659  0.9779
 6882TIP3    H242062   2.933   5.940   2.423 -2.4964  0.1745  1.0997
 6883TIP3   OH242063   0.683   3.498   6.544  0.1863 -0.7836  0.1916
 6883TIP3    H142064   0.616   3.557   6.509  0.4885  0.8833  2.2138
 6883TIP3    H242065   0.661   3.412   6.507 -2.8359 -0.2443  0.4830
 6884TIP3   OH242066   5.742   5.811   4.249  0.2389 -0.1279 -0.5236
 6884TIP3    H142067   5.705   5.857   4.174 -0.8449  0.0694  0.1108
 6884TIP3    H242068   5.828   5.781   4.219 -0.2137 -0.1433 -1.8623
 6885TIP3   OH242069   1.743   3.932   1.003  0.2790  0.0704  0.2390
 6885TIP3    H142070   1.774   3.856   0.955 -0.7140 -0.6663  0.7273
 6885TIP3    H242071   1.664   3.959   0.957  0.4253  0.5938  0.2823
 6886TIP3   OH242072   3.189   1.004   0.842  0.1859  0.0674 -1.0431
 6886TIP3    H142073   3.124   0.955   0.891 -0.3278 -0.1412 -1.9230
 6886TIP3    H242074   3.270   0.954   0.852  0.2635  0.4062  0.1693
 6887TIP3   OH242075   5.551   2.070  15.683  0.0611 -0.3534 -0.2366
 6887TIP3    H142076   5.553   2.152  15.634 -0.8899  1.2446  2.2288
 6887TIP3    H242077   5.631   2.025  15.657  0.8772  1.5891 -1.2917
 6888TIP3   OH242078   0.376   1.915   0.457 -0.4432  0.2504 -0.8689
 6888TIP3    H142079   0.338   1.869   0.383  0.0501  0.3662 -1.2057
 6888TIP3    H242080   0.415   1.994   0.418 -1.6382  1.1712 -0.2503
 6889TIP3   OH242081   0.037   4.171  15.686  0.0834  0.1878 -0.3459
 6889TIP3    H142082   0.108   4.204  15.632  0.9794  0.4500  0.9342
 6889TIP3    H242083   0.006   4.248  15.736  0.6192 -0.4005  0.9448
 6890TIP3   OH242084   4.994   6.369  13.899 -0.0353  0.4362 -0.2793
 6890TIP3    H142085   5.083   6.369  13.936 -0.8553 -2.8819  2.1782
 6890TIP3    H242086   4.991   6.291  13.844 -1.5239  0.2275  0.0615
 6891TIP3   OH242087   0.773   2.894   6.762  0.0675  0.8248  0.1023
 6891TIP3    H142088   0.775   2.922   6.671 -1.8697 -0.9943 -0.5981
 6891TIP3    H242089   0.861   2.863   6.780  0.2014  0.1452 -1.5505
 6892TIP3   OH242090   1.187   5.775  12.096 -0.0536  0.1636  0.1845
 6892TIP3    H142091   1.236   5.847  12.058 -1.4061  1.1425  0.2386
 6892TIP3    H242092   1.225   5.764  12.184  0.7670  0.1833 -0.1619
 6893TIP3   OH242093   4.692   1.373  15.266  0.3876 -0.3673  0.2339
 6893TIP3    H142094   4.619   1.398  15.322  1.3819 -2.7078  2.8252
 6893TIP3    H242095   4.651   1.350  15.182 -1.3071  2.1316  0.2719
 6894TIP3   OH242096   5.241   6.346  11.902 -0.0076  0.1425 -0.1881
 6894TIP3    H142097   5.330   6.333  11.935  0.6038  0.8643 -1.4538
 6894TIP3    H242098   5.253   6.363  11.808 -1.3111  1.9673 -0.0816
 6895TIP3   OH242099   3.483   3.049   0.754  0.3650 -0.1973 -0.3274
 6895TIP3    H142100   3.445   2.970   0.715 -0.7557  0.8855 -1.5368
 6895TIP3    H242101   3.522   3.018   0.836 -0.0032 -2.0021 -0.7709
 6896TIP3   OH242102   0.412   3.715   2.577 -0.2988  0.4256 -0.3485
 6896TIP3    H142103   0.457   3.733   2.660  0.1534 -1.3223 -0.1826
 6896TIP3    H242104   0.410   3.800   2.533  0.9258  1.0629  0.7325
 6897TIP3   OH242105   6.497   5.339  17.379 -0.0882  0.1182 -0.6410
 6897TIP3    H142106   6.571   5.400  17.377 -0.7406  1.0973  1.6319
 6897TIP3    H242107   6.500   5.294  17.294  3.4670 -0.3396 -0.4291
 6898TIP3   OH242108   5.537   2.308   5.256 -0.1338  0.0364 -0.0714
 6898TIP3    H142109   5.529   2.321   5.350  1.1055  1.9602 -0.1878
 6898TIP3    H242110   5.569   2.218   5.247 -0.6955 -0.3303  1.2916
 6899TIP3   OH242111   2.780   4.194   6.654  0.4990  0.4437 -0.3722
 6899TIP3    H142112   2.745   4.108   6.632  1.0627 -0.4113  1.7993
 6899TIP3    H242113   2.875   4.185   6.645  0.6927  0.2942  1.3715
 6900TIP3   OH242114   1.087   0.159  17.078  0.7533  0.1259 -0.4092
 6900TIP3    H142115   1.141   0.204  17.012 -0.0866 -0.2937 -1.4237
 6900TIP3    H242116   1.104   0.207  17.159  1.4116  1.0164 -1.0430
 6901TIP3   OH242117   1.894   2.744  15.164  0.1648 -0.3161  0.1566
 6901TIP3    H142118   1.984   2.725  15.138  0.2296  1.1440 -0.7767
 6901TIP3    H242119   1.875   2.679  15.232  2.2014 -0.1227  0.9824
 6902TIP3   OH242120   2.402   0.211  13.064 -0.4293  0.3789 -0.2122
 6902TIP3    H142121   2.324   0.162  13.039 -1.6771  0.7450  2.6429
 6902TIP3    H242122   2.385   0.242  13.152  2.8778  0.6941  0.4687
 6903TIP3   OH242123   0.392   4.591  11.380  0.3347 -0.3658  0.7078
 6903TIP3    H142124   0.406   4.600  11.474 -1.4732 -0.0681  0.9723
 6903TIP3    H242125   0.478   4.611  11.341  0.6603  1.2898  2.1791
 6904TIP3   OH242126   5.039   5.610   3.445  0.1910  0.5447  0.0577
 6904TIP3    H142127   5.127   5.639   3.468  0.3149  2.1725 -2.1417
 6904TIP3    H242128   4.982   5.683   3.471 -0.4892 -0.3070  1.0552
 6905TIP3   OH242129   6.095   4.164  11.411  0.3777  0.2528  0.1739
 6905TIP3    H142130   6.172   4.119  11.376 -1.0555 -1.3299 -1.1357
 6905TIP3    H242131   6.063   4.106  11.480 -1.1344 -0.5133 -1.1111
 6906TIP3   OH242132   3.989   1.172  12.232  0.3387  0.2696 -0.5504
 6906TIP3    H142133   4.050   1.155  12.304  1.7720  0.5944 -1.6468
 6906TIP3    H242134   3.983   1.268  12.228 -0.5825  0.2390 -0.2011
 6907TIP3   OH242135   2.339   1.431  12.556  0.1027 -0.4986  0.2464
 6907TIP3    H142136   2.321   1.469  12.642  0.0480 -2.4292  1.1380
 6907TIP3    H242137   2.397   1.495  12.513  0.9434  0.0628  2.1021
 6908TIP3   OH242138   0.195   0.578   0.866 -0.4034 -0.2694  0.0071
 6908TIP3    H142139   0.208   0.486   0.887 -1.9417 -1.5352 -3.7108
 6908TIP3    H242140   0.118   0.604   0.916 -0.7327 -1.4030  0.1143
 6909TIP3   OH242141   4.380   3.663  12.903  0.0712  0.5810 -0.4924
 6909TIP3    H142142   4.464   3.640  12.942  0.0912  1.0661 -0.2377
 6909TIP3    H242143   4.402   3.724  12.832 -0.0130  0.1642 -0.8835
 6910TIP3   OH242144   0.848   2.409   3.564  0.0037  0.5626 -0.2310
 6910TIP3    H142145   0.922   2.447   3.611  0.4812  1.2019 -1.4388
 6910TIP3    H242146   0.771   2.447   3.607  0.3207 -0.5157  1.3747
 6911TIP3   OH242147   3.076   5.691   5.368  0.6377  0.4664 -0.2762
 6911TIP3    H142148   3.117   5.644   5.440 -0.2108  0.3463  0.1389
 6911TIP3    H242149   3.008   5.632   5.336 -2.9535  2.6695  2.5790
 6912TIP3   OH242150   3.841   1.463  13.288  0.4112 -0.2167  0.2114
 6912TIP3    H142151   3.932   1.479  13.266  0.7404 -0.2641  1.4732
 6912TIP3    H242152   3.839   1.462  13.384 -0.6410 -1.6884  0.2097
 6913TIP3   OH242153   5.158   0.569  12.233 -0.1408  0.3014  0.3664
 6913TIP3    H142154   5.232   0.509  12.245  0.6302  0.7374 -1.7865
 6913TIP3    H242155   5.113   0.569  12.318  0.5897 -2.2752  0.8229
 6914TIP3   OH242156   6.698   4.358   3.749  0.8429  0.5248 -0.2848
 6914TIP3    H142157   6.698   4.318   3.835 -1.1904  0.4137 -0.2759
 6914TIP3    H242158   6.726   4.448   3.764  1.2210  0.2975  0.3693
 6915TIP3   OH242159   5.123   0.160  13.960 -0.1656 -0.0942 -0.1585
 6915TIP3    H142160   5.206   0.139  14.003  0.2148 -0.1600 -0.8930
 6915TIP3    H242161   5.115   0.255  13.969 -0.2162 -0.1418  0.2778
 6916TIP3   OH242162   4.473   2.191  13.935 -0.0286 -0.0059 -0.1289
 6916TIP3    H142163   4.483   2.221  14.025  0.2702  0.6363 -0.3707
 6916TIP3    H242164   4.455   2.271  13.885  0.9112 -0.1961 -0.8029
 6917TIP3   OH242165   3.423   5.954   3.310 -0.1088 -0.4301 -0.1934
 6917TIP3    H142166   3.438   5.869   3.350  0.2867 -0.8910 -1.2702
 6917TIP3    H242167   3.342   5.942   3.259 -1.0143  0.3535  0.9852
 6918TIP3   OH242168   5.974   3.320   0.382 -0.8839 -0.2253  0.1037
 6918TIP3    H142169   5.922   3.244   0.355 -0.9221  0.2202 -1.1398
 6918TIP3    H242170   6.064   3.287   0.385 -0.5773  0.1658 -2.6511
 6919TIP3   OH242171   3.558   3.407   1.727  0.6550  0.2048  0.1643
 6919TIP3    H142172   3.614   3.333   1.706 -0.6103 -1.1590  1.4074
 6919TIP3    H242173   3.481   3.396   1.671 -0.4697 -0.6353  1.8059
 6920TIP3   OH242174   2.695   2.830  11.196  0.1765  0.2880 -0.0329
 6920TIP3    H142175   2.613   2.796  11.232  0.4611 -1.0909 -0.6270
 6920TIP3    H242176   2.761   2.808  11.261  0.2753  0.2302 -0.1522
 6921TIP3   OH242177   6.301   0.739  13.725  0.0239  0.2030  0.6320
 6921TIP3    H142178   6.388   0.702  13.711 -1.0897 -1.7482 -1.9704
 6921TIP3    H242179   6.298   0.815  13.668  0.3854  1.0119  1.6584
 6922TIP3   OH242180   5.635   4.769   0.693  0.0720 -0.4281 -0.4195
 6922TIP3    H142181   5.612   4.685   0.733  0.8454 -0.2477  0.4497
 6922TIP3    H242182   5.616   4.758   0.600 -1.8845 -0.8416 -0.0238
 6923TIP3   OH242183   3.938   5.067  16.681  0.1159 -0.4242 -0.3148
 6923TIP3    H142184   3.935   5.099  16.771 -0.5584  0.0284 -0.4915
 6923TIP3    H242185   3.858   5.016  16.670 -0.4947  0.6363 -1.0475
 6924TIP3   OH242186   0.677   3.016  15.279  0.0178  0.5924  0.0863
 6924TIP3    H142187   0.768   2.992  15.263 -0.2085  0.0390 -0.3993
 6924TIP3    H242188   0.634   3.004  15.195 -1.1747 -2.2442  0.9965
 6925TIP3   OH242189   4.847   4.081   0.335  0.1622 -0.1997 -0.1248
 6925TIP3    H142190   4.853   4.152   0.399 -0.2843 -0.1644 -0.1230
 6925TIP3    H242191   4.904   4.012   0.370 -0.1599 -0.2211  0.3582
 6926TIP3   OH242192   4.204   2.621   5.261 -0.1826  0.2256 -0.3016
 6926TIP3    H142193   4.196   2.579   5.175  0.1813 -3.3076  1.2181
 6926TIP3    H242194   4.115   2.624   5.295 -0.2683  1.2323 -0.5598
 6927TIP3   OH242195   6.256   3.273   2.665  0.4658 -0.0353 -0.5552
 6927TIP3    H142196   6.178   3.222   2.645  1.0338 -0.8899 -0.6329
 6927TIP3    H242197   6.243   3.356   2.619 -0.6092  0.0160 -0.1709
 6928TIP3   OH242198   5.668   1.138   1.250 -0.5213  0.3649 -0.4399
 6928TIP3    H142199   5.630   1.173   1.169 -0.8566  0.9224 -0.0457
 6928TIP3    H242200   5.727   1.068   1.220 -1.8829 -0.5610 -1.0720
 6929TIP3   OH242201   3.663   5.736   2.973  0.2237  0.2579 -0.4202
 6929TIP3    H142202   3.656   5.698   2.885 -1.5454 -1.3936  0.3728
 6929TIP3    H242203   3.714   5.673   3.023  0.7751  0.9418 -0.1008
 6930TIP3   OH242204   0.170   5.573   0.202 -0.1240 -0.3598 -0.0562
 6930TIP3    H142205   0.108   5.645   0.190  0.5210  0.3986  0.9206
 6930TIP3    H242206   0.241   5.612   0.253  0.1876 -1.7230  0.5936
 6931TIP3   OH242207   3.670   0.264  11.713  0.2110  0.1678 -0.4887
 6931TIP3    H142208   3.754   0.242  11.673  0.4111 -0.0777  0.0700
 6931TIP3    H242209   3.605   0.235  11.648  0.5460  0.1749 -0.8300
 6932TIP3   OH242210   5.095   4.749   5.866 -0.6448  0.3379 -0.2198
 6932TIP3    H142211   5.150   4.710   5.799 -0.2805  0.0008  0.2703
 6932TIP3    H242212   5.156   4.783   5.931 -0.9784  1.0557 -0.2646
 6933TIP3   OH242213   1.609   3.519   3.852 -0.0720  0.3970  0.2171
 6933TIP3    H142214   1.587   3.513   3.945 -0.9085  2.0438  0.1619
 6933TIP3    H242215   1.560   3.595   3.821  1.3889  0.7885 -1.2369
 6934TIP3   OH242216   1.095   3.406  12.043 -0.0107 -0.2385 -0.5026
 6934TIP3    H142217   1.123   3.431  11.955 -1.6249 -0.0376 -0.9910
 6934TIP3    H242218   1.042   3.479  12.073  1.2483  0.1056  1.0420
 6935TIP3   OH242219   0.133   4.248   1.972  0.3560 -0.2654  0.2906
 6935TIP3    H142220   0.105   4.197   1.896 -0.6898  0.9033 -0.1401
 6935TIP3    H242221   0.158   4.333   1.936 -3.1131  1.4439  1.4670
 6936TIP3   OH242222   1.893   3.059   2.901  0.3065  0.4183  0.8928
 6936TIP3    H142223   1.894   3.154   2.889  0.2795  0.4104  0.8298
 6936TIP3    H242224   1.821   3.029   2.845 -0.7472  0.5288  2.1155
 6937TIP3   OH242225   3.763   5.463   6.730  0.2787  0.2554  0.0961
 6937TIP3    H142226   3.672   5.485   6.708 -0.6150  1.4897  4.1247
 6937TIP3    H242227   3.814   5.538   6.700  0.2113 -0.7042 -2.7382
 6938TIP3   OH242228   5.521   2.210   1.438  0.0512  0.2907 -0.3871
 6938TIP3    H142229   5.616   2.218   1.425  0.2928  0.1718  1.1542
 6938TIP3    H242230   5.512   2.171   1.525 -1.4348  1.3042 -0.0545
 6939TIP3   OH242231   0.397   1.196  14.826 -0.4349  0.0411 -0.0767
 6939TIP3    H142232   0.419   1.286  14.851 -1.6682  0.5441 -0.6810
 6939TIP3    H242233   0.335   1.167  14.892  0.0825 -0.4259  0.2044
 6940TIP3   OH242234   1.720   5.977   3.907  0.0122 -0.1510  0.2015
 6940TIP3    H142235   1.814   5.977   3.889 -0.1895  0.7326 -1.0221
 6940TIP3    H242236   1.712   6.007   3.998  0.9426 -1.3910  0.7195
 6941TIP3   OH242237   0.850   4.665  12.784 -0.3618  0.1229  0.2213
 6941TIP3    H142238   0.923   4.685  12.725  0.8050 -0.5129  1.4110
 6941TIP3    H242239   0.788   4.737  12.770 -0.3526 -0.2361 -2.0993
 6942TIP3   OH242240   2.622   0.118  13.479  0.3567 -0.5083  0.5815
 6942TIP3    H142241   2.638   0.088  13.568 -0.5460  1.3295  1.4220
 6942TIP3    H242242   2.527   0.116  13.469  0.4291 -0.4155 -0.2316
 6943TIP3   OH242243   0.910   3.547   2.836 -0.1337  0.6178 -0.3396
 6943TIP3    H142244   0.862   3.503   2.766 -1.3276  1.3172  0.0064
 6943TIP3    H242245   0.982   3.488   2.857  1.7233  1.4123 -3.7442
 6944TIP3   OH242246   3.185   2.816   1.973  0.4920  0.0117  0.5845
 6944TIP3    H142247   3.238   2.807   2.052  1.6091  0.9706 -0.0256
 6944TIP3    H242248   3.098   2.840   2.006  0.5344 -1.0830  1.5745
 6945TIP3   OH242249   1.993   2.170   1.920  0.3556 -0.2640  0.2044
 6945TIP3    H142250   1.917   2.120   1.949  0.7689 -0.3240  1.2407
 6945TIP3    H242251   1.968   2.262   1.933  0.2538 -0.2614 -0.0038
 6946TIP3   OH242252   5.230   6.001  14.165  0.1409  0.3733 -0.0118
 6946TIP3    H142253   5.291   5.989  14.238 -0.2983  1.2627  0.5114
 6946TIP3    H242254   5.181   6.080  14.188  1.7698  2.2496 -2.5138
 6947TIP3   OH242255   5.816   3.000  17.036  0.0378  0.1981 -0.8553
 6947TIP3    H142256   5.730   3.040  17.049 -0.1424 -0.5321  0.4381
 6947TIP3    H242257   5.856   3.001  17.123  1.1530  0.0994 -1.3519
 6948TIP3   OH242258   2.429   3.211   2.043 -0.1613 -0.3212  0.3634
 6948TIP3    H142259   2.498   3.274   2.023 -0.4381 -0.5046 -1.4046
 6948TIP3    H242260   2.357   3.264   2.076  0.0466  0.1582  0.0579
 6949TIP3   OH242261   5.777   1.749  13.909 -0.2086  0.0982 -0.3982
 6949TIP3    H142262   5.727   1.667  13.915  0.8879 -0.6211 -0.8496
 6949TIP3    H242263   5.846   1.730  13.846 -0.0877  1.4680 -0.7029
 6950TIP3   OH242264   1.139   4.220   1.069  0.4601 -0.3295 -0.0207
 6950TIP3    H142265   1.178   4.166   1.138 -1.1993 -1.2533  0.2475
 6950TIP3    H242266   1.048   4.190   1.064  0.4264  0.0055 -2.3331
 6951TIP3   OH242267   4.109   5.529   5.536 -0.4523  0.1531  0.6612
 6951TIP3    H142268   4.066   5.607   5.572 -0.3335  0.1010  0.9170
 6951TIP3    H242269   4.202   5.550   5.537 -0.4861  0.3865 -0.1839
 6952TIP3   OH242270   1.514   1.748  10.861  1.2585 -0.1520  0.1013
 6952TIP3    H142271   1.575   1.820  10.873  1.7276 -0.2238 -1.5723
 6952TIP3    H242272   1.515   1.731  10.767 -0.4447 -0.9524  0.1885
 6953TIP3   OH242273   2.209   2.494   1.403  0.7456  0.0884  0.0341
 6953TIP3    H142274   2.192   2.464   1.492  0.2196 -2.6140 -0.8747
 6953TIP3    H242275   2.298   2.464   1.385 -0.3566 -2.7326 -1.4536
 6954TIP3   OH242276   6.571   4.792  15.107  0.6483 -0.1256  0.5387
 6954TIP3    H142277   6.540   4.759  15.023  1.3831  0.6705 -0.0735
 6954TIP3    H242278   6.652   4.743  15.124  0.1404 -0.7631  1.1179
 6955TIP3   OH242279   0.627   6.155   0.152 -0.1416 -0.1420  0.6293
 6955TIP3    H142280   0.657   6.087   0.212  0.1288 -0.9568 -0.3906
 6955TIP3    H242281   0.703   6.174   0.097 -0.6022  0.0013  0.0291
 6956TIP3   OH242282   3.725   2.471   1.241  0.1910  0.3170  0.0790
 6956TIP3    H142283   3.640   2.510   1.221 -0.6508  0.3543  3.1776
 6956TIP3    H242284   3.711   2.377   1.229 -0.7462  0.1993  1.7095
 6957TIP3   OH242285   1.666   5.837  11.704 -0.1098  0.1590 -0.2536
 6957TIP3    H142286   1.753   5.832  11.744 -1.0367 -3.0074  1.7529
 6957TIP3    H242287   1.681   5.822  11.611  1.5341  0.5503 -0.0823
 6958TIP3   OH242288   1.241   5.422   2.608  0.2915  0.3712 -0.6600
 6958TIP3    H142289   1.154   5.450   2.635 -0.1057 -0.4421 -1.0562
 6958TIP3    H242290   1.234   5.327   2.600  1.5884  0.1391  0.6156
 6959TIP3   OH242291   2.030   1.490  14.665  0.0666  0.4468  0.3060
 6959TIP3    H142292   2.119   1.475  14.697 -0.1200  2.0643  1.7334
 6959TIP3    H242293   1.975   1.486  14.744 -0.7516  2.0155 -0.1276
 6960TIP3   OH242294   1.390   6.672  13.684 -0.2445 -0.2771 -0.0864
 6960TIP3    H142295   1.429   6.611  13.747  1.5827 -0.5010 -1.3562
 6960TIP3    H242296   1.334   6.728  13.738  0.3184 -1.2074  1.5559
 6961TIP3   OH242297   0.775   5.397   6.050 -0.2375 -0.1719 -0.3595
 6961TIP3    H142298   0.767   5.360   5.962  0.3924 -1.8519  0.2559
 6961TIP3    H242299   0.699   5.454   6.059 -0.6080 -0.4088 -1.7878
 6962TIP3   OH242300   4.114   3.656   1.971 -0.0519 -0.2554  0.0432
 6962TIP3    H142301   4.187   3.639   2.031  0.7701  0.6769 -0.6603
 6962TIP3    H242302   4.127   3.593   1.900 -1.0592 -1.3999  0.8443
 6963TIP3   OH242303   0.258   2.427   5.474  0.1025  0.0601  0.3440
 6963TIP3    H142304   0.215   2.424   5.388  1.8832 -1.0056 -0.5520
 6963TIP3    H242305   0.239   2.341   5.513  1.2338 -0.3603  0.0054
 6964TIP3   OH242306   5.121   2.872   5.703 -0.0621 -0.1381  0.8075
 6964TIP3    H142307   5.031   2.879   5.670  0.6626  0.6579 -1.1871
 6964TIP3    H242308   5.169   2.831   5.631  1.1884 -0.4734  1.8066
 6965TIP3   OH242309   2.957   5.025   4.885  0.8630 -0.1380 -0.4514
 6965TIP3    H142310   3.028   4.962   4.897  0.2139 -0.6472  0.9092
 6965TIP3    H242311   2.937   5.055   4.973 -1.3211 -0.8011 -0.6688
 6966TIP3   OH242312   0.855   1.118  13.267  0.2357  0.1831  0.5912
 6966TIP3    H142313   0.882   1.041  13.218 -0.4293  0.5523 -0.3878
 6966TIP3    H242314   0.828   1.181  13.200  0.9735  1.3544  1.3568
 6967TIP3   OH242315   1.518   2.256  16.105  0.1723 -0.2843 -0.0921
 6967TIP3    H142316   1.586   2.275  16.041  0.7935  0.2080  0.6885
 6967TIP3    H242317   1.460   2.194  16.062  0.4257  0.2389 -1.2163
 6968TIP3   OH242318   5.249   4.080  14.891 -0.1268  0.0658 -0.0154
 6968TIP3    H142319   5.311   4.152  14.892 -2.0394  1.9017  3.1415
 6968TIP3    H242320   5.173   4.114  14.844 -0.9197  0.0646  1.2068
 6969TIP3   OH242321   0.029   1.945  12.756 -0.7812 -0.5442 -0.0669
 6969TIP3    H142322   0.020   2.022  12.701 -3.5607  0.0433  1.0402
 6969TIP3    H242323  -0.055   1.900  12.749 -1.3409 -0.3813  3.6603
 6970TIP3   OH242324   1.448   4.092  13.064 -0.2485  0.3947  0.7375
 6970TIP3    H142325   1.514   4.135  13.009  0.6069  0.6354  1.9072
 6970TIP3    H242326   1.374   4.076  13.005 -0.1483  2.4466 -0.0239
 6971TIP3   OH242327   0.504   0.066   5.256 -0.4891  0.4103  0.3093
 6971TIP3    H142328   0.496  -0.022   5.220  1.1009  0.9470 -1.5640
 6971TIP3    H242329   0.585   0.064   5.307 -0.8028  0.6270  0.8250
 6972TIP3   OH242330   2.581   1.555  10.942  0.2371 -0.1005  0.1418
 6972TIP3    H142331   2.528   1.635  10.946  1.0403  0.4042  4.0158
 6972TIP3    H242332   2.656   1.579  10.889  0.4625  1.7686  1.2353
 6973TIP3   OH242333   1.969   2.505   0.096  0.0935 -0.6387  0.1281
 6973TIP3    H142334   1.949   2.545   0.180  0.0065  0.1980 -0.2860
 6973TIP3    H242335   1.896   2.528   0.039  0.1935 -1.1247 -0.2117
 6974TIP3   OH242336   0.397   2.842   0.380  0.6985  0.6796 -0.2637
 6974TIP3    H142337   0.417   2.906   0.448 -0.3244  0.3008  0.4172
 6974TIP3    H242338   0.400   2.891   0.298  0.3203  1.5099  0.2136
 6975TIP3   OH242339   3.339   1.134  12.287  0.5863 -0.2023  0.5824
 6975TIP3    H142340   3.384   1.112  12.205 -1.6744  0.2385 -0.8596
 6975TIP3    H242341   3.279   1.061  12.301  0.2729  0.1969  1.3324
 6976TIP3   OH242342   3.653   6.667  14.250  0.1733  0.4327 -0.1008
 6976TIP3    H142343   3.676   6.639  14.161  1.0191  0.5706  0.0710
 6976TIP3    H242344   3.645   6.585  14.299 -2.6000  0.1596 -0.7923
 6977TIP3   OH242345   0.654   0.206  12.753 -0.5523 -0.2540  0.0318
 6977TIP3    H142346   0.651   0.231  12.661 -0.1213 -0.8442 -0.1538
 6977TIP3    H242347   0.748   0.200  12.773 -0.5058  3.1389  1.4458
 6978TIP3   OH242348   4.524   1.788  15.709 -0.3140 -0.0969  0.3463
 6978TIP3    H142349   4.577   1.823  15.638 -0.7887  0.3493  0.2020
 6978TIP3    H242350   4.587   1.753  15.772  0.0879 -3.1111 -1.5323
 6979TIP3   OH242351   3.553   4.950   2.538 -0.4700  0.3710  0.0388
 6979TIP3    H142352   3.605   4.884   2.583 -1.0958 -0.4276 -0.3973
 6979TIP3    H242353   3.506   4.996   2.609 -1.6527 -1.0527  0.2202
 6980TIP3   OH242354   1.762   5.601   6.512 -0.3132  0.0947 -0.0791
 6980TIP3    H142355   1.684   5.634   6.556 -0.9252 -0.7103 -0.5343
 6980TIP3    H242356   1.749   5.623   6.420 -1.0076 -1.8386 -0.4930
 6981TIP3   OH242357   4.006   4.894  15.341 -0.2017  0.4945  0.0736
 6981TIP3    H142358   3.966   4.819  15.297 -1.5254  2.2150 -1.9062
 6981TIP3    H242359   4.093   4.901  15.301 -1.0696  1.5194 -1.7893
 6982TIP3   OH242360   4.212   6.255   2.379 -0.4344 -0.3551  0.0191
 6982TIP3    H142361   4.259   6.317   2.434 -0.5621 -1.0757  0.9557
 6982TIP3    H242362   4.268   6.244   2.302 -0.3078  0.7398 -0.0629
 6983TIP3   OH242363   2.162   0.035   1.150  0.5495  0.5908 -0.1297
 6983TIP3    H142364   2.120   0.117   1.176  0.1836  0.2221  0.4533
 6983TIP3    H242365   2.206   0.056   1.067  0.0104  1.2315 -0.2610
 6984TIP3   OH242366   5.358   3.673  14.324  0.7463 -0.0858  0.3502
 6984TIP3    H142367   5.327   3.604  14.265  1.1976 -2.4454  2.6862
 6984TIP3    H242368   5.281   3.728  14.337 -0.8484 -2.3882  1.3676
 6985TIP3   OH242369   3.135   5.918   6.377 -0.5559  0.5538 -0.1542
 6985TIP3    H142370   3.194   5.986   6.343 -0.5668  0.6798  0.0782
 6985TIP3    H242371   3.165   5.903   6.466 -0.6321  0.3403 -0.1653
 6986TIP3   OH242372   5.452   1.591  14.214 -0.2771  0.4310 -0.6862
 6986TIP3    H142373   5.362   1.623  14.222  0.0022  1.0859  0.0531
 6986TIP3    H242374   5.453   1.510  14.266 -0.4217  0.4665 -0.6269
 6987TIP3   OH242375   3.587   5.292  15.307  0.2089  0.4059 -0.6895
 6987TIP3    H142376   3.575   5.357  15.237 -0.4329 -0.5180 -1.4706
 6987TIP3    H242377   3.670   5.316  15.348 -0.3952  2.1905 -0.4255
 6988TIP3   OH242378   5.267   0.843  17.280  0.5328 -0.0267 -0.4394
 6988TIP3    H142379   5.304   0.757  17.299  2.1378  0.6650 -0.2974
 6988TIP3    H242380   5.222   0.868  17.360  0.8735 -0.3229 -0.1550
 6989TIP3   OH242381   6.041   5.729  12.695 -0.2675  0.3057 -0.1902
 6989TIP3    H142382   5.991   5.811  12.699 -1.5906 -0.3787 -1.5939
 6989TIP3    H242383   5.984   5.669  12.647 -0.2367 -2.1337  2.5661
 6990TIP3   OH242384   5.414   1.697   0.517  0.0222  0.7827  0.2966
 6990TIP3    H142385   5.455   1.653   0.592  1.8696  2.6219  0.4564
 6990TIP3    H242386   5.458   1.661   0.441  0.8537  1.6073  0.3690
 6991TIP3   OH242387   2.577   3.919  16.530 -0.6794  0.0840 -0.2107
 6991TIP3    H142388   2.599   3.831  16.500 -1.1810  0.0122 -0.3799
 6991TIP3    H242389   2.594   3.975  16.454 -0.5569  0.1059 -0.1674
 6992TIP3   OH242390   4.795   4.627  13.486 -0.4118 -0.1134 -0.4521
 6992TIP3    H142391   4.801   4.715  13.449 -0.1776 -0.5806 -1.5518
 6992TIP3    H242392   4.822   4.569  13.415  2.3447 -0.9250  1.1332
 6993TIP3   OH242393   2.798   1.834   5.758  0.5481 -0.3596  0.1395
 6993TIP3    H142394   2.857   1.843   5.833  0.5787  1.5818 -0.0628
 6993TIP3    H242395   2.766   1.744   5.764  1.5645 -0.6670  1.7150
 6994TIP3   OH242396   4.240   3.201   3.478  0.5506  0.2006 -0.1027
 6994TIP3    H142397   4.272   3.175   3.564  0.6984  2.3164  0.5438
 6994TIP3    H242398   4.291   3.149   3.416  1.6395 -0.1376  1.0410
 6995TIP3   OH242399   4.748   1.800  14.914  0.7805 -0.2347  0.3182
 6995TIP3    H142400   4.747   1.895  14.921  2.0442 -0.2821  1.5178
 6995TIP3    H242401   4.660   1.777  14.883  0.2687  1.2618  0.5938
 6996TIP3   OH242402   6.013   6.615   5.051 -0.4531  0.3812  0.6238
 6996TIP3    H142403   6.107   6.624   5.035 -0.6049  1.3711  0.2157
 6996TIP3    H242404   5.972   6.641   4.969 -1.0611 -2.1240  0.0405
 6997TIP3   OH242405   2.645   2.329   2.396  0.0707  0.4863  0.1092
 6997TIP3    H142406   2.574   2.376   2.438 -2.0230 -1.6040 -0.8751
 6997TIP3    H242407   2.703   2.304   2.468 -2.3915 -1.3217  1.6368
 6998TIP3   OH242408   1.281   4.780   4.215 -0.3876  0.3669 -0.2679
 6998TIP3    H142409   1.300   4.743   4.129  0.2673 -1.1748  0.5063
 6998TIP3    H242410   1.214   4.846   4.199 -0.0993  0.2674 -1.9866
 6999TIP3   OH242411   4.376   5.932   4.989 -1.1619  0.4268  0.1401
 6999TIP3    H142412   4.384   5.847   4.944 -0.2192  0.1154  0.8555
 6999TIP3    H242413   4.387   5.911   5.082 -1.7914  1.2311  0.4080
 7000TIP3   OH242414   6.080   1.748   5.889 -0.4020 -0.1741  0.3612
 7000TIP3    H142415   5.996   1.739   5.844 -0.7175 -0.8368  1.0599
 7000TIP3    H242416   6.074   1.832   5.933  0.1431  0.7693 -1.2779
 7001TIP3   OH242417   6.400   0.128  11.407 -0.5029 -0.6701  0.4720
 7001TIP3    H142418   6.394   0.218  11.437  0.2633 -0.4733  0.0548
 7001TIP3    H242419   6.310   0.105  11.382 -0.3340  0.7880 -1.7304
 7002TIP3   OH242420   2.393   0.449  11.752  0.2429 -0.1545  0.3752
 7002TIP3    H142421   2.460   0.416  11.692 -0.6422  2.6889 -2.4524
 7002TIP3    H242422   2.427   0.534  11.782 -0.1546 -0.7083  2.5697
 7003TIP3   OH242423   1.537   1.907   0.001  0.0570  0.2975  0.7377
 7003TIP3    H142424   1.608   1.972   0.005  0.3091  0.0169  0.8499
 7003TIP3    H242425   1.581   1.823   0.016 -0.3375  0.1487  1.0637
 7004TIP3   OH242426   2.028   0.250   1.213 -0.1578 -0.6654  0.5657
 7004TIP3    H142427   1.961   0.319   1.202  0.4983  0.1553  1.5179
 7004TIP3    H242428   2.063   0.266   1.300  1.2846 -1.0900  0.0788
 7005TIP3   OH242429   4.738   4.268   4.073 -0.2534 -0.0394  0.1157
 7005TIP3    H142430   4.682   4.208   4.122 -0.5738 -0.8393 -1.1812
 7005TIP3    H242431   4.679   4.312   4.012  0.2078  0.6122  0.1321
 7006TIP3   OH242432   2.067   5.701  17.340  0.1452  0.2345 -0.2094
 7006TIP3    H142433   2.088   5.776  17.395 -2.4099  0.3745  0.6875
 7006TIP3    H242434   1.987   5.665  17.378  1.1825 -2.8774 -0.6901
 7007TIP3   OH242435   6.313   1.985  16.166  0.1658 -0.4720  0.0221
 7007TIP3    H142436   6.362   2.011  16.244  2.0254 -1.1733 -0.8360
 7007TIP3    H242437   6.317   2.062  16.109 -2.0589  0.4054  0.9373
 7008TIP3   OH242438   2.665   5.482   5.635  0.2889 -0.1189 -0.2499
 7008TIP3    H142439   2.645   5.551   5.698 -1.9786 -0.5624 -0.4156
 7008TIP3    H242440   2.627   5.403   5.673 -2.9051 -0.0780 -2.9412
 7009TIP3   OH242441   4.662   1.603   1.400  0.1094 -0.2745  0.5230
 7009TIP3    H142442   4.678   1.582   1.308 -0.5004 -1.2465  0.6330
 7009TIP3    H242443   4.713   1.538   1.448 -1.1773 -1.0517  0.8668
 7010TIP3   OH242444   5.967   3.496  13.918  0.0123  0.4561 -0.5035
 7010TIP3    H142445   6.041   3.556  13.917  0.5272 -0.1774 -1.3225
 7010TIP3    H242446   5.978   3.443  13.840 -1.9800  1.1540 -1.3089
 7011TIP3   OH242447   5.302   5.725  16.112 -0.0909 -0.1791  0.3372
 7011TIP3    H142448   5.286   5.644  16.063  1.7172 -0.6204  0.3874
 7011TIP3    H242449   5.350   5.781  16.051 -0.1569  0.3241  0.7422
 7012TIP3   OH242450   0.162   5.125   2.525  0.4552 -0.0961  0.9372
 7012TIP3    H142451   0.115   5.193   2.573 -1.1116 -0.3440 -0.1805
 7012TIP3    H242452   0.126   5.043   2.558  2.1160 -0.4256  2.0515
 7013TIP3   OH242453   5.120   2.558   5.796  0.3771 -0.4003 -0.0162
 7013TIP3    H142454   5.191   2.498   5.819  0.5441  0.3754  1.6471
 7013TIP3    H242455   5.135   2.580   5.704  2.8655  0.4956  0.5213
 7014TIP3   OH242456   4.579   0.525   0.727 -0.7072 -0.1506 -0.1284
 7014TIP3    H142457   4.527   0.471   0.787 -1.2642 -0.8313 -1.1889
 7014TIP3    H242458   4.527   0.605   0.716  0.7740  1.3056  2.5414
 7015TIP3   OH242459   6.524   4.173  10.913  0.4884 -0.3226 -0.4094
 7015TIP3    H142460   6.501   4.080  10.925  0.1143 -0.1722  0.0621
 7015TIP3    H242461   6.503   4.213  10.997 -0.7438  0.4804 -1.0753
 7016TIP3   OH242462   1.479   4.883  16.753  0.5985  0.1121 -0.4959
 7016TIP3    H142463   1.546   4.919  16.694  0.6989 -0.4391 -0.7190
 7016TIP3    H242464   1.398   4.887  16.703  0.6623 -0.2445 -0.6291
 7017TIP3   OH242465   0.164   0.050  16.087  0.0137 -0.3211 -0.2114
 7017TIP3    H142466   0.164   0.123  16.025 -1.4539 -0.7021 -0.7063
 7017TIP3    H242467   0.132   0.088  16.169  2.1191  0.2225  0.4362
 7018TIP3   OH242468   1.552   6.164  16.192  0.0555  0.2931 -0.3588
 7018TIP3    H142469   1.550   6.230  16.122 -0.3874  0.6150 -0.0489
 7018TIP3    H242470   1.466   6.170  16.233 -0.0935 -0.6854 -0.5082
 7019TIP3   OH242471   0.545   6.058   1.859 -0.1740  0.1329 -0.0408
 7019TIP3    H142472   0.609   6.122   1.829 -1.1883  1.0311 -0.3244
 7019TIP3    H242473   0.585   6.018   1.936  0.2146  1.5484  0.5086
 7020TIP3   OH242474   5.834   1.414   3.876  0.4219 -0.3521 -0.1239
 7020TIP3    H142475   5.761   1.466   3.842 -1.0750 -1.9824  0.4671
 7020TIP3    H242476   5.887   1.477   3.924 -0.9680  0.7754  0.0215
 7021TIP3   OH242477   2.133   4.333   0.330 -0.6005 -0.1932 -0.5506
 7021TIP3    H142478   2.170   4.339   0.419 -2.2546  2.6831  0.0583
 7021TIP3    H242479   2.115   4.239   0.318 -0.9167 -0.6116  2.4210
 7022TIP3   OH242480   5.269   5.478  15.975 -0.5493 -0.3070  0.6701
 7022TIP3    H142481   5.298   5.388  15.961 -1.6350 -0.3005 -2.3424
 7022TIP3    H242482   5.175   5.471  15.991 -1.0594  0.3168 -1.6667
 7023TIP3   OH242483   0.506   1.843   1.827  0.3934 -0.0649  0.0123
 7023TIP3    H142484   0.460   1.857   1.744 -2.2313 -1.6481  1.0570
 7023TIP3    H242485   0.480   1.754   1.854  2.2913 -0.1438  1.8675
 7024TIP3   OH242486   5.267   3.623   3.716 -0.7143  0.3483  0.2354
 7024TIP3    H142487   5.310   3.707   3.701 -0.3300  0.4424  1.7199
 7024TIP3    H242488   5.248   3.590   3.629  1.2236  0.8980 -0.4373
 7025TIP3   OH242489   0.711   1.280  13.607  0.4542  0.1212 -0.2530
 7025TIP3    H142490   0.682   1.358  13.559 -0.2112 -0.3614 -0.6435
 7025TIP3    H242491   0.650   1.273  13.681  1.8308  1.2085  1.0680
 7026TIP3   OH242492   0.747   4.231   4.722 -0.6083  0.0380 -0.2162
 7026TIP3    H142493   0.710   4.238   4.810 -2.4139  0.8956 -0.9929
 7026TIP3    H242494   0.813   4.301   4.719 -0.8075  0.2593  0.3394
 7027TIP3   OH242495   0.198   4.480  14.505 -0.2855  0.2298 -0.4270
 7027TIP3    H142496   0.191   4.469  14.600 -1.0835 -1.5235 -0.6572
 7027TIP3    H242497   0.289   4.457  14.485  0.0020  1.0115 -0.0503
 7028TIP3   OH242498   4.287   0.001   4.983 -1.0766  0.5285  0.0774
 7028TIP3    H142499   4.219   0.040   4.928 -0.9136  2.0729  0.8904
 7028TIP3    H242500   4.331   0.077   5.022 -0.0925 -0.4883  0.9962
 7029TIP3   OH242501   5.225   4.833  13.357  0.5371  0.0207  0.0317
 7029TIP3    H142502   5.214   4.928  13.360 -0.0195 -0.0367 -0.1052
 7029TIP3    H242503   5.210   4.809  13.266  4.4744  0.2209 -0.8297
 7030TIP3   OH242504   1.792   5.605  11.902  0.5910  0.5175  0.2192
 7030TIP3    H142505   1.704   5.579  11.873  0.4991 -1.0717  1.7610
 7030TIP3    H242506   1.809   5.687  11.855 -1.4606  0.5610 -0.5715
 7031TIP3   OH242507   5.071   3.486   0.103  0.3549 -0.3329 -0.0656
 7031TIP3    H142508   5.098   3.568   0.143 -1.9902 -0.0268  1.0827
 7031TIP3    H242509   5.108   3.488   0.015 -0.0088  2.1640 -0.2219
 7032TIP3   OH242510   5.247   5.684  12.089 -0.0240 -0.3237  0.2205
 7032TIP3    H142511   5.229   5.592  12.071  2.1384 -0.2224 -3.5868
 7032TIP3    H242512   5.340   5.686  12.113 -0.3535  0.7836  1.5600
 7033TIP3   OH242513   5.993   2.304  14.143 -0.2298 -0.5436  0.2097
 7033TIP3    H142514   5.959   2.344  14.223  1.3604  0.0144  0.6511
 7033TIP3    H242515   6.079   2.270  14.168 -0.0485 -1.1007 -1.0693
 7034TIP3   OH242516   2.016   5.406   2.146 -0.1431  0.1851 -0.0544
 7034TIP3    H142517   2.057   5.410   2.232  0.2803  0.4532 -0.2632
 7034TIP3    H242518   2.042   5.321   2.111 -2.2501 -0.9843  1.0103
 7035TIP3   OH242519   4.321   2.498  15.391  0.7563 -0.0954  0.1298
 7035TIP3    H142520   4.357   2.552  15.461  1.3808 -0.7799  0.3524
 7035TIP3    H242521   4.269   2.432  15.436  1.6568 -0.9123 -0.0010
 7036TIP3   OH242522   1.813   2.709   3.495  0.2436 -0.3359  0.1649
 7036TIP3    H142523   1.886   2.770   3.493  0.9369 -1.1560  0.0348
 7036TIP3    H242524   1.854   2.622   3.496 -0.7281 -0.8334 -0.9155
 7037TIP3   OH242525   3.246   5.274   0.358  0.4723 -0.3131  0.2424
 7037TIP3    H142526   3.313   5.229   0.307  0.7736 -0.8776  1.1188
 7037TIP3    H242527   3.183   5.305   0.292  0.9672 -0.8104 -0.4867
 7038TIP3   OH242528   5.248   1.132   5.681  0.6637 -0.2500 -0.2824
 7038TIP3    H142529   5.230   1.120   5.587 -0.8744 -1.7250  0.1534
 7038TIP3    H242530   5.238   1.226   5.695  2.8739  0.3346 -1.9238
 7039TIP3   OH242531   3.547   5.110   1.169  0.0295 -0.0119 -0.4154
 7039TIP3    H142532   3.500   5.027   1.160  1.0206 -0.4766 -1.5947
 7039TIP3    H242533   3.595   5.102   1.251  1.6321 -1.4383 -1.4322
 7040TIP3   OH242534   4.359   1.347   4.638 -0.1950 -0.3029 -0.2319
 7040TIP3    H142535   4.357   1.382   4.726 -0.0377 -0.3696 -0.2014
 7040TIP3    H242536   4.270   1.360   4.604 -0.5185 -1.1197  0.2676
 7041TIP3   OH242537   0.499   0.916  13.045 -0.6778 -0.4053 -0.4339
 7041TIP3    H142538   0.569   0.860  13.077  0.3445 -0.2531 -2.2635
 7041TIP3    H242539   0.450   0.861  12.984 -2.6480 -0.7264  1.3307
 7042TIP3   OH242540   2.436   2.779  16.050 -0.4136 -0.4050 -0.0916
 7042TIP3    H142541   2.529   2.778  16.074  0.0849 -0.3370 -1.8415
 7042TIP3    H242542   2.394   2.832  16.117  0.7192 -0.8858  1.0336
 7043TIP3   OH242543   5.584   6.370   1.978  0.2998  0.3793 -0.9195
 7043TIP3    H142544   5.570   6.289   1.929 -3.0168 -0.0891  0.5512
 7043TIP3    H242545   5.535   6.436   1.930  0.7403  0.8978 -0.6591
 7044TIP3   OH242546   0.896   0.175  16.742 -0.1548 -0.3645 -0.0298
 7044TIP3    H142547   0.832   0.176  16.814  1.8814  1.0785  1.8787
 7044TIP3    H242548   0.942   0.091  16.753 -1.3462 -1.2096 -1.1471
 7045TIP3   OH242549   6.644   6.028   3.594 -0.8075  0.3543  0.5251
 7045TIP3    H142550   6.640   5.951   3.537 -0.1660  1.2332 -0.7482
 7045TIP3    H242551   6.557   6.067   3.587 -1.4498 -0.6924  1.8942
 7046TIP3   OH242552   1.666   6.032  12.709 -0.1939  0.4963  0.2081
 7046TIP3    H142553   1.673   5.940  12.685  1.9495  0.3425  1.2183
 7046TIP3    H242554   1.658   6.079  12.626  1.4826 -0.4172 -0.5059
 7047TIP3   OH242555   0.652   4.423  16.062  0.5825  1.3550 -0.8480
 7047TIP3    H142556   0.680   4.391  16.148  0.6727  0.0617 -1.3259
 7047TIP3    H242557   0.557   4.427  16.067  0.4707 -0.1909 -1.1343
 7048TIP3   OH242558   6.211   4.208   1.784  0.1493 -0.0651  0.0053
 7048TIP3    H142559   6.181   4.265   1.712  0.7394 -1.9591 -1.8398
 7048TIP3    H242560   6.132   4.187   1.833 -0.1720  1.7935  0.3789
 7049TIP3   OH242561   3.454   0.487  14.739  0.2034 -0.0902  0.2667
 7049TIP3    H142562   3.391   0.556  14.762  0.0451 -0.4499  0.9716
 7049TIP3    H242563   3.401   0.419  14.697  0.2982  0.0680 -0.1067
 7050TIP3   OH242564   2.838   1.305  16.127  0.0151 -0.2838 -0.2475
 7050TIP3    H142565   2.853   1.374  16.063  0.8149 -0.4117 -0.2130
 7050TIP3    H242566   2.748   1.319  16.158 -0.3460 -0.1598 -1.3127
 7051TIP3   OH242567   2.169   1.030   1.513 -0.1047  0.1151 -0.0797
 7051TIP3    H142568   2.211   1.116   1.506 -1.6453  0.8600 -0.5663
 7051TIP3    H242569   2.177   0.992   1.426  0.3249 -0.1357  0.0626
 7052TIP3   OH242570   6.192   6.023  16.510  0.2155 -0.3003 -0.2518
 7052TIP3    H142571   6.124   6.039  16.576 -0.9372  0.1518 -1.5090
 7052TIP3    H242572   6.209   6.110  16.472 -1.8180 -0.9864 -3.0570
 7053TIP3   OH242573   2.393   3.379  12.814  0.0072 -0.0437 -0.4436
 7053TIP3    H142574   2.388   3.438  12.889 -1.3058  0.6312 -1.0431
 7053TIP3    H242575   2.482   3.342  12.819  0.0024  0.1044  1.3258
 7054TIP3   OH242576   3.641   1.573   0.783 -0.6826 -0.2212 -0.8891
 7054TIP3    H142577   3.627   1.555   0.690  1.9298  0.5357 -1.5066
 7054TIP3    H242578   3.733   1.553   0.798 -0.2711  2.3985  0.8071
 7055TIP3   OH242579   0.381   0.545   2.222 -0.3100 -0.0356  0.3633
 7055TIP3    H142580   0.361   0.526   2.130  0.7363 -0.1469  0.1371
 7055TIP3    H242581   0.298   0.535   2.268 -0.9391  0.4612 -0.6412
 7056TIP3   OH242582   3.255   1.082  10.693 -0.0536  0.0796  0.0265
 7056TIP3    H142583   3.185   1.039  10.742 -1.7943  0.5326 -1.9009
 7056TIP3    H242584   3.210   1.148  10.640  2.1150  1.8348  0.2153
 7057TIP3   OH242585   1.848   1.112   0.370 -0.4205  0.2621 -0.5949
 7057TIP3    H142586   1.753   1.111   0.371 -0.5120 -1.9262  2.5343
 7057TIP3    H242587   1.873   1.186   0.425 -0.2346  1.2741 -1.9913
 7058TIP3   OH242588   1.326   6.169  12.565 -0.5506  0.4176  0.7165
 7058TIP3    H142589   1.288   6.204  12.645  1.1832  1.4712  1.1345
 7058TIP3    H242590   1.394   6.232  12.541  0.6812 -1.1722 -0.1648
 7059TIP3   OH242591   1.196   2.689  14.032 -0.1122  0.0252 -0.4901
 7059TIP3    H142592   1.226   2.750  14.099 -2.6211  0.7528  0.0975
 7059TIP3    H242593   1.265   2.690  13.966  1.9999 -0.0106  1.6196
 7060TIP3   OH242594   1.333   2.207  14.707 -0.2460  0.0696 -0.0559
 7060TIP3    H142595   1.340   2.116  14.735 -3.7174 -0.3977 -0.1714
 7060TIP3    H242596   1.251   2.210  14.656 -0.5340  3.3387  0.3691
 7061TIP3   OH242597   0.875   5.437   5.407 -0.2852 -0.1024  0.3941
 7061TIP3    H142598   0.874   5.369   5.475 -0.5974  0.4343  0.9360
 7061TIP3    H242599   0.940   5.407   5.344  1.0322  0.0530  1.6251
 7062TIP3   OH242600   6.212   3.335  14.082 -0.5228 -0.2194  0.1257
 7062TIP3    H142601   6.295   3.363  14.120 -0.3465 -1.4911  0.7419
 7062TIP3    H242602   6.146   3.393  14.119 -0.0492  0.0498  0.5487
 7063TIP3   OH242603   2.441   5.969  14.291  0.0192 -0.1312  0.4930
 7063TIP3    H142604   2.461   5.980  14.384 -0.1055 -0.3217  0.5424
 7063TIP3    H242605   2.348   5.991  14.283  0.5252  2.0879  0.0406
 7064TIP3   OH242606   6.498   1.337   2.847  0.9007 -0.3783  0.0104
 7064TIP3    H142607   6.470   1.407   2.788 -0.2837  1.1450  2.2139
 7064TIP3    H242608   6.416   1.292   2.870  1.5005 -1.7434 -0.4101
 7065TIP3   OH242609   2.208   1.040   0.073  0.2458 -0.3466  0.2123
 7065TIP3    H142610   2.123   1.012   0.108  0.1062 -1.0685 -0.6814
 7065TIP3    H242611   2.225   0.981  -0.000  1.7082 -0.4504  0.6058
 7066TIP3   OH242612   3.606   0.181  17.322  0.1924  0.4239  0.4711
 7066TIP3    H142613   3.682   0.150  17.273 -0.2688 -0.8149  0.5058
 7066TIP3    H242614   3.614   0.141  17.408 -0.5593  0.1696  0.4328
 7067TIP3   OH242615   3.474   2.724  14.897 -0.2968  0.3254  0.7683
 7067TIP3    H142616   3.432   2.656  14.846 -1.2019  0.1158  1.7699
 7067TIP3    H242617   3.402   2.775  14.934  0.3519  1.0000  1.1352
 7068TIP3   OH242618   3.988   2.077   5.691 -0.0941  0.1431 -0.1285
 7068TIP3    H142619   3.976   1.988   5.723 -0.6399 -0.4201 -1.8197
 7068TIP3    H242620   4.017   2.067   5.600  2.1254  1.6657  0.3161
 7069TIP3   OH242621   1.151   4.802  15.593 -0.1762  0.3956  0.0386
 7069TIP3    H142622   1.187   4.779  15.679 -1.9399 -0.4422  0.5940
 7069TIP3    H242623   1.185   4.890  15.576  1.4400 -0.0203  0.8741
 7070TIP3   OH242624   2.816   1.515  14.473  0.3233  0.0883 -0.2305
 7070TIP3    H142625   2.893   1.567  14.494  0.6721 -0.5300  0.0617
 7070TIP3    H242626   2.795   1.469  14.555  0.9329 -1.3752 -0.8573
 7071TIP3   OH242627   4.935   5.844   3.606  0.3376  0.0769  0.1103
 7071TIP3    H142628   4.951   5.938   3.616 -0.2099  0.1226  0.6396
 7071TIP3    H242629   4.840   5.836   3.595  0.4900 -0.3338 -1.0790
 7072TIP3   OH242630   4.205   5.787   5.194 -0.0644  0.2908  0.4829
 7072TIP3    H142631   4.184   5.722   5.127  0.1038  0.4422  0.2808
 7072TIP3    H242632   4.123   5.800   5.241 -0.5229  1.0847 -0.4781
 7073TIP3   OH242633   3.526   2.951   5.192 -0.4317  0.0930  0.5952
 7073TIP3    H142634   3.551   3.042   5.175 -0.6590 -0.1357 -1.1535
 7073TIP3    H242635   3.431   2.950   5.181 -0.4468 -0.3167  0.7715
 7074TIP3   OH242636   4.231   6.195   1.906  0.3119 -0.2642 -0.8873
 7074TIP3    H142637   4.213   6.139   1.982  0.3210  1.0644  0.1478
 7074TIP3    H242638   4.197   6.281   1.932  0.3804  0.2376 -2.3817
 7075TIP3   OH242639   5.786   0.335  15.178  0.1781  0.4565 -0.0090
 7075TIP3    H142640   5.880   0.328  15.196  0.1442 -1.3593 -0.4329
 7075TIP3    H242641   5.779   0.412  15.120  1.8294 -1.1632 -2.5776
 7076TIP3   OH242642   6.620   2.610  15.077  0.0327 -0.3514  0.0534
 7076TIP3    H142643   6.539   2.616  15.027  0.3826  1.2666 -0.3665
 7076TIP3    H242644   6.681   2.567  15.018 -0.8452 -2.8826  0.8650
 7077TIP3   OH242645   2.899   2.626  16.262 -0.3709  0.0344 -0.0948
 7077TIP3    H142646   2.890   2.657  16.353  1.2619  0.8965 -0.1939
 7077TIP3    H242647   2.967   2.560  16.266 -1.9434 -1.6765 -0.3539
 7078TIP3   OH242648   0.171   6.275   0.825  0.4313 -0.4809 -0.0969
 7078TIP3    H142649   0.236   6.208   0.847  2.4740  1.5705  0.5758
 7078TIP3    H242650   0.162   6.268   0.729  1.5005 -0.9502 -0.1851
 7079TIP3   OH242651   1.683   0.456  15.416 -0.1887 -0.0040  0.4006
 7079TIP3    H142652   1.719   0.544  15.410  0.0947  0.1857  3.4038
 7079TIP3    H242653   1.611   0.463  15.479 -0.8348 -1.7373 -0.0736
 7080TIP3   OH242654   5.091   3.501   5.153  0.5219 -0.3204 -0.0198
 7080TIP3    H142655   5.145   3.492   5.075  0.7230  1.9677 -0.2025
 7080TIP3    H242656   5.132   3.571   5.204 -1.5417  0.6740  0.4168
 7081TIP3   OH242657   5.398   4.145   6.015 -0.0118 -0.4059  0.3753
 7081TIP3    H142658   5.316   4.119   5.974  0.4108 -0.2692 -0.5742
 7081TIP3    H242659   5.383   4.134   6.109 -1.3753  0.3503  0.2709
 7082TIP3   OH242660   4.169   4.713  12.386 -0.4668 -0.4797 -0.3377
 7082TIP3    H142661   4.135   4.797  12.416 -1.2811 -0.6874 -0.6441
 7082TIP3    H242662   4.253   4.734  12.346  0.1412 -0.0574  1.1088
 7083TIP3   OH242663   2.977   1.863   5.976 -0.9411  0.5331 -0.6514
 7083TIP3    H142664   2.990   1.938   6.033  0.7431  0.5583 -1.0178
 7083TIP3    H242665   3.065   1.838   5.948 -1.5895 -0.5501 -1.8566
 7084TIP3   OH242666   3.503   5.625  15.920 -0.0987 -0.3405 -0.6828
 7084TIP3    H142667   3.445   5.688  15.877 -0.1855  1.0569  1.3401
 7084TIP3    H242668   3.591   5.652  15.895 -0.1847 -0.0412 -0.6757
 7085TIP3   OH242669   2.849   4.915  15.334  0.5599  0.7400 -0.6351
 7085TIP3    H142670   2.765   4.934  15.292  0.3643  0.8630 -0.1975
 7085TIP3    H242671   2.905   4.885  15.263 -0.4579 -1.3666 -0.6321
 7086TIP3   OH242672   0.090   1.932  15.083 -0.1374  0.2204  0.5394
 7086TIP3    H142673   0.173   1.930  15.036  0.6890 -1.8752  1.9165
 7086TIP3    H242674   0.099   2.002  15.147  0.3860  0.3045  0.3756
 7087TIP3   OH242675   4.728   3.955   1.749  0.2396  0.3419 -0.4805
 7087TIP3    H142676   4.762   3.918   1.831  1.5406 -0.3077 -1.2657
 7087TIP3    H242677   4.806   3.982   1.701 -0.1459 -2.3341 -2.9158
 7088TIP3   OH242678   6.349   0.872  11.588 -0.6199 -0.0051  0.3765
 7088TIP3    H142679   6.426   0.817  11.596 -1.0019 -0.9457 -1.6919
 7088TIP3    H242680   6.312   0.876  11.676  0.9128 -0.8094  1.0875
 7089TIP3   OH242681   2.408   6.651   1.247 -0.2914 -0.3309  0.4319
 7089TIP3    H142682   2.324   6.661   1.202 -0.7554  2.0688  1.6881
 7089TIP3    H242683   2.428   6.557   1.239 -2.5963 -0.7989 -0.7108
 7090TIP3   OH242684   1.099   0.799  14.183 -0.1268 -0.2474  0.7044
 7090TIP3    H142685   1.127   0.808  14.274 -0.6278  0.5907  0.7873
 7090TIP3    H242686   1.176   0.820  14.131  0.2089 -0.8949  0.9255
 7091TIP3   OH242687   0.611   2.381  11.595  0.5883  0.2355  0.4411
 7091TIP3    H142688   0.596   2.287  11.585  0.1961  0.5178 -2.3184
 7091TIP3    H242689   0.533   2.422  11.558  1.3686  1.6672  0.3122
 7092TIP3   OH242690   5.892   5.295   2.664 -0.0853  0.7369 -0.1342
 7092TIP3    H142691   5.856   5.209   2.685  1.4724 -0.1107 -0.7446
 7092TIP3    H242692   5.898   5.340   2.748 -1.7275  0.6112  0.0818
 7093TIP3   OH242693   1.471   2.395   1.542  0.1039  0.3521  0.3510
 7093TIP3    H142694   1.517   2.339   1.604  2.8895  1.2487 -0.7903
 7093TIP3    H242695   1.492   2.359   1.456 -1.5035  0.7282 -0.2450
 7094TIP3   OH242696   3.504   3.826  15.645 -0.1356  0.1661  0.2411
 7094TIP3    H142697   3.475   3.750  15.595 -1.6533  1.2460 -0.5930
 7094TIP3    H242698   3.505   3.796  15.736  0.6015 -1.2212 -0.2089
 7095TIP3   OH242699   4.276   3.349   2.797 -0.0951 -0.2119 -0.3803
 7095TIP3    H142700   4.290   3.259   2.766  0.3114 -0.1830 -0.2959
 7095TIP3    H242701   4.183   3.365   2.786  0.0822 -0.0910 -1.8972
 7096TIP3   OH242702   5.430   0.310   3.574  0.0641 -0.2210  0.6190
 7096TIP3    H142703   5.496   0.269   3.629  0.7331  1.8566  1.4206
 7096TIP3    H242704   5.432   0.402   3.596  0.8760  0.9160 -3.3528
 7097TIP3   OH242705   5.515   6.519  15.233  0.5757  0.3901 -0.3777
 7097TIP3    H142706   5.575   6.583  15.271  2.0524 -0.8116 -0.5684
 7097TIP3    H242707   5.431   6.564  15.228  1.1407  1.7056  1.1319
 7098TIP3   OH242708   5.472   3.705   1.080  0.4053  0.0363  0.2005
 7098TIP3    H142709   5.487   3.675   0.990  2.0272  0.6598  0.2121
 7098TIP3    H242710   5.384   3.676   1.101 -0.6933  1.3426 -2.1957
 7099TIP3   OH242711   0.800   3.853  17.463  0.1016 -0.3844  0.0252
 7099TIP3    H142712   0.747   3.778  17.437  0.9332 -0.4579 -1.5785
 7099TIP3    H242713   0.787   3.918  17.394  2.2093 -0.4784 -0.5404
 7100TIP3   OH242714   3.663   0.620   5.014  0.5832  1.1196 -0.1916
 7100TIP3    H142715   3.645   0.606   5.107  4.0357  0.8523  0.5542
 7100TIP3    H242716   3.683   0.713   5.006 -1.3401  1.5181 -1.0818
 7101TIP3   OH242717   3.306   3.542   3.127 -0.0699 -0.4322  0.6339
 7101TIP3    H142718   3.282   3.522   3.036  1.3551  1.1013 -0.1441
 7101TIP3    H242719   3.233   3.594   3.160  0.2140  0.5832 -0.2745
 7102TIP3   OH242720   2.385   4.458  17.086  0.2578  0.0139  0.3585
 7102TIP3    H142721   2.295   4.450  17.117  0.2406  0.5910  0.4720
 7102TIP3    H242722   2.425   4.374  17.107  0.0465  0.1422  1.2978
 7103TIP3   OH242723   0.299   0.162   0.679  0.4612  0.6293  0.5924
 7103TIP3    H142724   0.320   0.101   0.750 -0.1589 -2.2896 -1.5432
 7103TIP3    H242725   0.210   0.190   0.699  0.0658 -0.6251  0.7324
 7104TIP3   OH242726   1.561   6.572  17.079 -0.1475 -0.2528  0.2214
 7104TIP3    H142727   1.474   6.610  17.071  0.4035  0.7733 -1.3039
 7104TIP3    H242728   1.613   6.614  17.010  1.4788 -1.0648  0.8827
 7105TIP3   OH242729   3.608   1.733  17.064  0.3337  0.5118  0.0185
 7105TIP3    H142730   3.601   1.819  17.104 -0.5195  0.2874  0.3679
 7105TIP3    H242731   3.555   1.675  17.120  0.0482 -0.0310 -0.7827
 7106TIP3   OH242732   5.160   4.360  15.398  0.2414 -0.1709  0.2540
 7106TIP3    H142733   5.200   4.437  15.359 -2.3522  0.8246 -0.7102
 7106TIP3    H242734   5.224   4.290  15.386  2.1305  1.5109 -0.0182
 7107TIP3   OH242735   0.510   5.459  11.516 -0.4507  0.1268  0.0596
 7107TIP3    H142736   0.532   5.390  11.579  0.5546 -1.0259 -1.4755
 7107TIP3    H242737   0.416   5.470  11.525 -0.1919  0.9640  2.6599
 7108TIP3   OH242738   5.855   2.231  17.082 -0.5730  0.3002  0.0146
 7108TIP3    H142739   5.890   2.143  17.068 -0.4787  0.4552 -0.8043
 7108TIP3    H242740   5.848   2.268  16.994  1.5918  1.9884  0.4613
 7109TIP3   OH242741   5.777   4.205   0.935  0.0813 -1.0544  0.1454
 7109TIP3    H142742   5.733   4.285   0.909 -0.4507 -1.3987 -0.0220
 7109TIP3    H242743   5.746   4.188   1.024 -1.3113 -2.1076 -0.5106
 7110TIP3   OH242744   1.785   1.650   4.203  0.1536  0.4265  0.5182
 7110TIP3    H142745   1.751   1.562   4.220  0.5516  0.6276  2.6889
 7110TIP3    H242746   1.708   1.704   4.190 -0.0888 -0.2458 -1.0363
 7111TIP3   OH242747   0.288   6.721  14.604 -0.2622 -0.3373 -0.2978
 7111TIP3    H142748   0.335   6.709  14.687 -0.1302 -0.0790 -0.3337
 7111TIP3    H242749   0.206   6.764  14.630  0.1014  0.4348 -0.3734
 7112TIP3   OH242750   0.192   6.267   4.873  0.1344 -0.1928  0.3315
 7112TIP3    H142751   0.254   6.331   4.836  0.2249  1.1089  2.5417
 7112TIP3    H242752   0.158   6.220   4.797  1.6962  1.0154 -1.2008
 7113TIP3   OH242753   3.994   4.598  14.218  0.0768  0.2650 -0.2065
 7113TIP3    H142754   4.075   4.639  14.246 -1.4886  2.2483  1.8520
 7113TIP3    H242755   4.000   4.595  14.122  1.9641  1.6250 -0.1827
 7114TIP3   OH242756   6.154   1.796  15.994  0.1192  0.3783  0.1099
 7114TIP3    H142757   6.071   1.774  16.036 -0.6015  1.1467 -0.8580
 7114TIP3    H242758   6.188   1.870  16.046  0.1828  0.1022  0.4690
 7115TIP3   OH242759   3.107   4.331   4.499  0.4334  0.2907 -0.0541
 7115TIP3    H142760   3.124   4.411   4.548  0.5299  0.2511 -0.0220
 7115TIP3    H242761   3.022   4.301   4.532  0.1878  0.6150 -0.3853
 7116TIP3   OH242762   4.284   3.098   2.032 -0.1404 -0.3303  0.9822
 7116TIP3    H142763   4.290   3.128   1.942 -0.0804  1.5230  1.5488
 7116TIP3    H242764   4.225   3.023   2.029 -0.5395  0.0081 -0.5249
 7117TIP3   OH242765   3.433   0.157  12.796 -0.1612  0.3044 -0.2986
 7117TIP3    H142766   3.481   0.231  12.834  0.3631  0.9114 -2.0287
 7117TIP3    H242767   3.501   0.098  12.764 -0.5741 -0.9677  1.0388
 7118TIP3   OH242768   6.368   0.521   5.861 -0.0176  0.1582 -0.1025
 7118TIP3    H142769   6.354   0.446   5.803  0.1099 -0.5578  0.7617
 7118TIP3    H242770   6.463   0.528   5.868 -0.0056  1.0051 -0.9198
 7119TIP3   OH242771   0.543   4.541   0.478 -0.2665 -0.2171 -0.1913
 7119TIP3    H142772   0.622   4.488   0.492 -0.5587 -0.5177  0.3596
 7119TIP3    H242773   0.548   4.569   0.387  0.4842 -0.2254 -0.1548
 7120TIP3   OH242774   1.015   0.548   2.367  0.0121 -0.1742 -0.1884
 7120TIP3    H142775   1.018   0.599   2.286 -0.6399 -0.6286 -0.5138
 7120TIP3    H242776   1.060   0.467   2.346 -1.2034 -0.7955 -0.4859
 7121TIP3   OH242777   6.395   3.770  13.571 -0.6148 -0.1949 -0.1042
 7121TIP3    H142778   6.382   3.677  13.551  0.1082  0.2105 -3.0285
 7121TIP3    H242779   6.475   3.772  13.623 -0.8564 -1.2401  0.3354
 7122TIP3   OH242780   4.675   5.352  15.709 -0.8673  0.0302  0.2780
 7122TIP3    H142781   4.760   5.314  15.728 -0.1088  1.0203 -1.0096
 7122TIP3    H242782   4.663   5.337  15.615 -2.2187 -0.2789  0.4773
 7123TIP3   OH242783   6.189   1.514  14.909 -0.4545  0.1014  0.2358
 7123TIP3    H142784   6.112   1.483  14.861  1.1896  0.9911 -3.3849
 7123TIP3    H242785   6.256   1.447  14.892  0.1650  0.3739  1.4976
 7124TIP3   OH242786   1.953   3.930   1.330  0.5877  0.2225 -0.0467
 7124TIP3    H142787   1.945   3.882   1.247  0.8348  0.8111 -0.4188
 7124TIP3    H242788   1.881   3.898   1.383  2.1072 -2.3176  0.6305
 7125TIP3   OH242789   2.188   6.027  14.307  0.4510  0.6024  0.0605
 7125TIP3    H142790   2.121   6.073  14.256  1.0278  1.9434  0.4646
 7125TIP3    H242791   2.140   5.989  14.381 -0.2255 -0.5100 -0.9111
 7126TIP3   OH242792   3.541   5.251   1.922 -0.0279  0.2534  0.0210
 7126TIP3    H142793   3.514   5.279   2.009 -0.4771  0.2948 -0.1252
 7126TIP3    H242794   3.583   5.166   1.935 -0.1786  0.2154  0.2636
 7127TIP3   OH242795   6.647   3.651   2.132 -0.1517 -0.1235  0.3650
 7127TIP3    H142796   6.608   3.565   2.143  0.8403 -0.9060 -1.6168
 7127TIP3    H242797   6.574   3.712   2.135 -1.3101 -1.3524 -1.3501
 7128TIP3   OH242798   1.965   0.312   1.860 -0.4921  0.2388 -0.6442
 7128TIP3    H142799   2.025   0.276   1.794 -2.1532  0.0816 -2.1347
 7128TIP3    H242800   1.981   0.406   1.858 -0.1643  0.1819 -0.9017
 7129TIP3   OH242801   2.934   4.221  14.044  0.0831  0.2043  0.0616
 7129TIP3    H142802   2.998   4.248  14.110  1.3905 -1.1872 -0.5833
 7129TIP3    H242803   2.924   4.127  14.058 -1.1898  0.2584 -0.4122
 7130TIP3   OH242804   6.527   6.712   4.906 -0.4041  0.5306  0.5893
 7130TIP3    H142805   6.557   6.800   4.929 -0.6195  0.4736  1.1121
 7130TIP3    H242806   6.607   6.659   4.909 -0.0312  0.9448 -1.0598
 7131TIP3   OH242807   2.824   6.558   3.044 -0.1850  0.1203 -0.2662
 7131TIP3    H142808   2.912   6.586   3.068  0.3006  0.7597 -2.5613
 7131TIP3    H242809   2.801   6.613   2.969 -1.7161 -1.4273 -0.9966
 7132TIP3   OH242810   0.898   3.808  15.316 -0.4861 -0.0114 -0.6104
 7132TIP3    H142811   0.863   3.813  15.405  1.1506 -2.7484  0.3222
 7132TIP3    H242812   0.930   3.896  15.298  0.6878  0.2732  2.2614
 7133TIP3   OH242813   1.123   1.958   0.966 -0.0349 -0.3648  0.1933
 7133TIP3    H142814   1.066   1.997   0.899 -0.9213  0.2051  1.2589
 7133TIP3    H242815   1.186   1.905   0.916 -2.8238 -2.8609 -0.9405
 7134TIP3   OH242816   2.391   2.212   2.113 -0.2853  0.7194  0.1524
 7134TIP3    H142817   2.484   2.233   2.115 -0.0433 -0.3619  1.3477
 7134TIP3    H242818   2.380   2.159   2.034  0.7307 -1.6536  1.4987
 7135TIP3   OH242819   1.722   4.552  12.012 -0.4206  0.1745  0.2987
 7135TIP3    H142820   1.648   4.491  12.006 -0.3366  0.1622 -0.9759
 7135TIP3    H242821   1.737   4.580  11.922 -0.0134  1.5611  0.7695
 7136TIP3   OH242822   1.491   1.352  15.729  0.0436  0.3903 -0.0160
 7136TIP3    H142823   1.486   1.421  15.795 -3.2498  0.8310 -0.5481
 7136TIP3    H242824   1.525   1.396  15.651  0.1437  0.8559  0.2835
 7137TIP3   OH242825   4.215   3.081   0.156 -0.1825 -0.5128 -0.0346
 7137TIP3    H142826   4.134   3.049   0.116  0.1638 -0.6049 -0.6873
 7137TIP3    H242827   4.233   3.163   0.109 -0.0273 -0.3688  0.2771
 7138TIP3   OH242828   3.528   5.016   3.286  0.2264 -0.1284  0.2526
 7138TIP3    H142829   3.508   5.000   3.378 -1.4548  0.2740 -0.0111
 7138TIP3    H242830   3.593   4.949   3.264  0.0285 -0.7615  1.5091
 7139TIP3   OH242831   3.980   1.923  13.133 -0.2812  0.0373 -0.8849
 7139TIP3    H142832   4.059   1.925  13.186 -1.2223 -1.4273  0.6575
 7139TIP3    H242833   3.910   1.901  13.194 -1.7026  0.1037 -2.4180
 7140TIP3   OH242834   6.283   6.170   4.370  0.4739 -0.0384 -0.2795
 7140TIP3    H142835   6.254   6.220   4.294  2.5219 -0.7225 -1.5958
 7140TIP3    H242836   6.374   6.197   4.384  0.4756 -0.7238  1.2797
 7141TIP3   OH242837   3.402   2.037   5.194 -0.6374  0.4632 -0.1867
 7141TIP3    H142838   3.425   1.972   5.260 -1.4850 -0.1534 -0.4910
 7141TIP3    H242839   3.400   1.989   5.111  1.9842  1.5238 -0.9770
 7142TIP3   OH242840   6.332   1.897   4.945  0.4904 -0.5370  0.0973
 7142TIP3    H142841   6.393   1.826   4.962 -1.2412 -1.8848  1.0852
 7142TIP3    H242842   6.286   1.909   5.028  0.8420  1.8901  0.0012
 7143TIP3   OH242843   2.935   3.695   2.026 -0.4362  0.0201 -0.1821
 7143TIP3    H142844   2.914   3.753   1.952  0.7698  0.1071 -0.4730
 7143TIP3    H242845   2.919   3.607   1.992  0.1714  0.0553 -0.5881
 7144TIP3   OH242846   3.139   0.578   4.039  0.4454  0.3276 -0.5389
 7144TIP3    H142847   3.160   0.665   4.006  0.8473  1.3060  2.0950
 7144TIP3    H242848   3.194   0.567   4.116 -1.2275 -1.3221  0.5066
 7145TIP3   OH242849   6.084   5.775   6.601 -0.0076 -0.1822  0.2462
 7145TIP3    H142850   6.055   5.686   6.622 -2.4050  0.3658 -0.4295
 7145TIP3    H242851   6.143   5.798   6.673 -2.1036 -1.0574  2.4036
 7146TIP3   OH242852   0.827   3.587   2.222 -0.0016 -0.0215 -0.3705
 7146TIP3    H142853   0.858   3.661   2.170  0.8705  0.6170  0.9859
 7146TIP3    H242854   0.740   3.568   2.189  0.1705  0.9517 -1.4257
 7147TIP3   OH242855   4.087   2.241   4.767  0.1517 -0.4230 -0.1308
 7147TIP3    H142856   4.142   2.310   4.732  1.4326 -0.6048  1.4299
 7147TIP3    H242857   3.999   2.263   4.737  0.6743  1.3385 -0.4653
 7148TIP3   OH242858   0.283   0.488  16.561  0.5880  0.1250 -0.0393
 7148TIP3    H142859   0.196   0.454  16.579  1.2707 -0.4612  2.5304
 7148TIP3    H242860   0.268   0.562  16.502 -1.6880  0.2677  0.6266
 7149TIP3   OH242861   5.763   6.460  12.503  0.1825  0.1723  0.3366
 7149TIP3    H142862   5.783   6.548  12.473  0.4080 -0.0413 -0.1555
 7149TIP3    H242863   5.781   6.404  12.427  0.9504 -0.4057  0.9277
 7150TIP3   OH242864   4.330   3.820   5.608  0.4431  0.3621 -0.1845
 7150TIP3    H142865   4.374   3.861   5.533  0.6508 -1.2213 -0.9947
 7150TIP3    H242866   4.298   3.893   5.661  3.4036  1.5960  0.0747
 7151TIP3   OH242867   1.112   1.684   1.593  0.0552 -0.0989  0.1791
 7151TIP3    H142868   1.120   1.638   1.510  0.1356 -0.7462  0.5295
 7151TIP3    H242869   1.103   1.613   1.658 -0.8726  0.4145  0.6242
 7152TIP3   OH242870   0.182   1.203   5.610 -0.7634  0.4992  0.0832
 7152TIP3    H142871   0.236   1.133   5.647  0.0407  0.8011 -0.4929
 7152TIP3    H242872   0.094   1.168   5.609 -0.5017 -0.1887  0.5954
 7153TIP3   OH242873   0.445   2.193  17.001  0.5324  0.4203  0.3082
 7153TIP3    H142874   0.539   2.178  16.988  0.3383  0.2754 -0.9857
 7153TIP3    H242875   0.432   2.285  16.979  0.8849  1.3948  3.6255
 7154TIP3   OH242876   3.344   3.637   5.222 -0.6316  0.0845 -0.0945
 7154TIP3    H142877   3.363   3.553   5.264 -3.0150 -0.3552  0.2886
 7154TIP3    H242878   3.338   3.617   5.129 -3.2219 -0.6973  0.1646
 7155TIP3   OH242879   1.803   2.764   3.759 -0.3686  0.4372  0.1658
 7155TIP3    H142880   1.784   2.757   3.665 -2.1833  1.1589  0.4366
 7155TIP3    H242881   1.812   2.858   3.774  2.2826  0.2356  0.3524
 7156TIP3   OH242882   5.962   2.207   6.469 -0.0684 -0.0416  0.1600
 7156TIP3    H142883   5.873   2.241   6.459  0.2139  1.0997  1.2690
 7156TIP3    H242884   5.978   2.157   6.389 -1.5406  0.1041 -0.2517
 7157TIP3   OH242885   3.469   2.160  16.522 -0.0758 -0.3431  0.0650
 7157TIP3    H142886   3.435   2.110  16.596  1.8030 -0.5744  0.8260
 7157TIP3    H242887   3.485   2.095  16.453 -1.1541 -0.2296 -0.3020
 7158TIP3   OH242888   4.893   6.152   3.590 -0.5169  0.2768  0.0493
 7158TIP3    H142889   4.907   6.181   3.680  0.1486  0.7752 -0.2081
 7158TIP3    H242890   4.803   6.120   3.589 -0.6747  0.6830  0.7797
 7159TIP3   OH242891   0.580   2.986   3.570 -0.3664 -0.3799 -0.2037
 7159TIP3    H142892   0.508   2.923   3.564  1.9518 -3.0974 -2.6304
 7159TIP3    H242893   0.572   3.040   3.492 -0.4338  0.1165  0.1406
 7160TIP3   OH242894   5.722   5.867   1.593 -0.2727 -0.5589 -0.4932
 7160TIP3    H142895   5.630   5.851   1.570 -0.3727 -0.7884  0.0601
 7160TIP3    H242896   5.766   5.784   1.575 -0.0693 -0.2924 -1.2568
 7161TIP3   OH242897   4.088   0.410  15.573  0.3554  0.1994  0.3853
 7161TIP3    H142898   4.047   0.436  15.491 -0.6067  0.3209  0.8909
 7161TIP3    H242899   4.017   0.368  15.623  1.4184 -1.8429  0.2936
 7162TIP3   OH242900   2.013   4.748  12.806 -1.0744 -0.2652 -0.3871
 7162TIP3    H142901   2.009   4.691  12.883  0.4945  1.1722  0.8290
 7162TIP3    H242902   1.926   4.740  12.766 -1.9528 -1.0235  1.5496
 7163TIP3   OH242903   6.578   5.522  16.409 -0.3913 -0.6834  0.2690
 7163TIP3    H142904   6.570   5.583  16.336  0.1895 -1.1289 -0.1812
 7163TIP3    H242905   6.610   5.575  16.482 -1.3192 -0.1627  0.3148
 7164TIP3   OH242906   5.539   2.972   0.980 -1.1751  0.2536 -0.2355
 7164TIP3    H142907   5.556   2.926   0.898 -2.8193 -0.2516 -0.3260
 7164TIP3    H242908   5.476   3.040   0.957 -1.5990  0.1553  0.5902
 7165TIP3   OH242909   5.597   3.782  16.364 -0.0404 -0.1950  0.0738
 7165TIP3    H142910   5.646   3.836  16.301 -0.2615 -0.1904 -0.0950
 7165TIP3    H242911   5.660   3.764  16.434  0.0354  0.2914  0.1352
 7166TIP3   OH242912   2.941   5.693   3.622  0.1533  0.2982 -0.0191
 7166TIP3    H142913   2.979   5.631   3.683  2.4821  3.9919  2.6632
 7166TIP3    H242914   2.847   5.690   3.640  0.3573 -1.3832  0.9631
 7167TIP3   OH242915   4.191   4.723   6.213 -0.5072  0.0268  0.5519
 7167TIP3    H142916   4.146   4.643   6.240 -0.4646 -0.6784 -1.3054
 7167TIP3    H242917   4.180   4.783   6.287  1.2143 -2.3350  2.8764
 7168TIP3   OH242918   3.468   5.437   4.003  0.2263  0.5003 -0.5998
 7168TIP3    H142919   3.374   5.419   3.992  0.3427 -0.4229 -0.2038
 7168TIP3    H242920   3.486   5.507   3.940 -0.8242  1.0342 -0.3474
 7169TIP3   OH242921   1.668   4.389  17.428 -0.0207  0.1222 -0.5568
 7169TIP3    H142922   1.594   4.338  17.395 -0.0641  0.7048 -1.4078
 7169TIP3    H242923   1.632   4.439  17.501 -0.0929 -0.6820 -0.0212
 7170TIP3   OH242924   4.696   5.432   2.230 -0.4742 -0.0559  0.1249
 7170TIP3    H142925   4.715   5.340   2.247  0.4323 -0.3008 -1.9181
 7170TIP3    H242926   4.777   5.468   2.195 -1.1832  1.2065 -0.3257
 7171TIP3   OH242927   0.514   2.182  13.701 -0.1502  0.2539 -0.2010
 7171TIP3    H142928   0.543   2.242  13.770  0.2737 -0.2326  0.0522
 7171TIP3    H242929   0.588   2.179  13.640 -0.6818  1.0026 -0.8985
 7172TIP3   OH242930   4.155   5.280  14.399  0.2369  0.2953 -0.3789
 7172TIP3    H142931   4.075   5.285  14.451 -0.1909  1.9446 -1.1453
 7172TIP3    H242932   4.154   5.192  14.361  0.3096 -0.7697  1.9508
 7173TIP3   OH242933   2.436   0.502  15.152 -0.3206  0.6781 -0.1341
 7173TIP3    H142934   2.511   0.458  15.192 -0.2653 -0.3743 -1.3313
 7173TIP3    H242935   2.475   0.570  15.096 -0.3035  0.7180 -0.0737
 7174TIP3   OH242936   1.635   2.374   3.786 -0.5657  0.1375  0.6602
 7174TIP3    H142937   1.701   2.432   3.824 -1.7766 -0.2289  3.6196
 7174TIP3    H242938   1.682   2.293   3.768  0.6096  1.1685 -1.2245
 7175TIP3   OH242939   4.340   4.258  15.118 -0.3444  0.3989 -0.4288
 7175TIP3    H142940   4.422   4.288  15.077 -0.7697 -0.7599 -2.2508
 7175TIP3    H242941   4.358   4.169  15.146 -0.4348  0.7831  0.8970
 7176TIP3   OH242942   1.117   1.964   3.858 -0.2247  0.2792 -0.0196
 7176TIP3    H142943   1.141   1.997   3.945  0.9557  0.1935 -0.2954
 7176TIP3    H242944   1.071   2.037   3.816 -1.8661 -0.0695  1.0867
 7177TIP3   OH242945   5.960   1.524  12.680  0.3573 -0.2251 -0.2521
 7177TIP3    H142946   6.026   1.591  12.696 -0.7977  0.5825  1.4748
 7177TIP3    H242947   5.877   1.572  12.679 -0.6952 -1.7017  2.6392
 7178TIP3   OH242948   4.892   6.339   0.861 -0.0822 -0.1543 -0.4277
 7178TIP3    H142949   4.809   6.299   0.836 -2.1787  1.1027  3.6220
 7178TIP3    H242950   4.895   6.421   0.811 -0.0432 -1.2248 -2.2801
 7179TIP3   OH242951   1.587   5.259  15.270  0.1586 -0.1126  0.0198
 7179TIP3    H142952   1.620   5.293  15.187  1.6496  1.7404  1.2941
 7179TIP3    H242953   1.494   5.283  15.271  0.0744 -0.3439 -1.1796
 7180TIP3   OH242954   4.144   2.882   4.254 -0.5660  0.1528  0.0250
 7180TIP3    H142955   4.129   2.881   4.159 -1.2686 -0.0388  0.1316
 7180TIP3    H242956   4.065   2.844   4.291  0.1949 -0.9013  0.6336
 7181TIP3   OH242957   1.762   0.204  16.424  0.0374 -0.2158 -0.1493
 7181TIP3    H142958   1.828   0.273  16.433 -1.2476  1.1264 -0.4640
 7181TIP3    H242959   1.678   0.251  16.432 -0.8841 -1.8052 -0.0710
 7182TIP3   OH242960   2.003   0.238   5.062  0.0594 -0.5807  0.2883
 7182TIP3    H142961   1.908   0.226   5.053  0.1601 -0.4591 -1.2948
 7182TIP3    H242962   2.037   0.218   4.975  1.6204 -1.6787  1.1135
 7183TIP3   OH242963   2.461   3.725   1.568  0.0998  0.1068 -0.2920
 7183TIP3    H142964   2.379   3.713   1.521 -0.4359 -0.5061  0.7766
 7183TIP3    H242965   2.518   3.770   1.505 -1.3469  1.4114 -0.7198
 7184TIP3   OH242966   0.884   1.747  15.070  0.2094  0.7114  0.2829
 7184TIP3    H142967   0.899   1.688  15.143  0.2740  0.7711  0.3184
 7184TIP3    H242968   0.815   1.806  15.101 -0.4348  0.1400 -0.0503
 7185TIP3   OH242969   6.015   2.910  15.181  0.5313  0.3364 -0.3895
 7185TIP3    H142970   6.046   2.823  15.156  0.3413  0.5656 -1.4772
 7185TIP3    H242971   6.053   2.925  15.268  1.0300 -0.5951 -0.4348
 7186TIP3   OH242972   2.022   0.830   3.584  0.3957  0.3454  0.4754
 7186TIP3    H142973   2.044   0.800   3.672 -2.2873 -0.5560  0.9329
 7186TIP3    H242974   1.952   0.893   3.596  0.3891  0.6598 -0.9848
 7187TIP3   OH242975   2.142   1.250  16.398 -0.3671 -0.2420  0.8148
 7187TIP3    H142976   2.158   1.273  16.489 -1.2262 -0.8144  1.1261
 7187TIP3    H242977   2.051   1.275  16.382  0.1009  0.8699 -0.2279
 7188TIP3   OH242978   5.246   3.387   2.762 -0.0361 -0.3879  0.5296
 7188TIP3    H142979   5.160   3.401   2.721 -1.1053 -1.8505  2.1436
 7188TIP3    H242980   5.293   3.469   2.745 -2.6844  1.5750  1.8372
 7189TIP3   OH242981   6.302   0.327   1.229 -0.3664 -0.1645 -0.3042
 7189TIP3    H142982   6.264   0.320   1.141  0.0856  0.3847 -0.5471
 7189TIP3    H242983   6.292   0.420   1.252  0.4631 -0.0996 -0.2030
 7190TIP3   OH242984   6.634   4.055  12.349 -0.5039  0.8367 -0.3871
 7190TIP3    H142985   6.594   4.075  12.434  0.8262  0.2694  0.3971
 7190TIP3    H242986   6.723   4.089  12.356 -0.0551 -0.1465 -1.1833
 7191TIP3   OH242987   4.185   5.471   1.006 -0.1890 -0.3022  0.2250
 7191TIP3    H142988   4.266   5.489   1.055 -0.4771 -0.7542  0.8681
 7191TIP3    H242989   4.128   5.544   1.028 -1.3653 -1.8783  2.8554
 7192TIP3   OH242990   4.437   5.312   1.797 -0.0880 -0.3605 -0.2685
 7192TIP3    H142991   4.457   5.263   1.877  0.4783  0.2669 -0.0208
 7192TIP3    H242992   4.348   5.284   1.775 -1.0989  0.9837  1.7622
 7193TIP3   OH242993   0.782   5.230   2.490 -0.4637 -0.0703 -0.0723
 7193TIP3    H142994   0.793   5.178   2.569  0.7121  0.7229  0.3167
 7193TIP3    H242995   0.689   5.225   2.470 -0.5854 -1.2154  0.7034
 7194TIP3   OH242996   5.963   4.491   6.468  0.0970 -0.1860  0.0935
 7194TIP3    H142997   6.054   4.518   6.462 -0.1723  0.8250  0.3682
 7194TIP3    H242998   5.919   4.541   6.399 -0.0957 -1.3928 -0.6875
 7195TIP3   OH242999   6.729   4.696  15.938 -0.1774 -0.1512  0.2092
 7195TIP3    H143000   6.709   4.762  15.872  1.3164  0.3474  0.2257
 7195TIP3    H243001   6.710   4.740  16.022 -2.9881 -1.0873  0.1890
 7196TIP3   OH243002   4.989   3.415  14.076 -0.6939  0.0813 -0.2047
 7196TIP3    H143003   4.946   3.460  14.148 -1.4662 -0.6654 -0.1801
 7196TIP3    H243004   4.984   3.322  14.100  0.8499 -0.0381 -0.2512
 7197TIP3   OH243005   2.944   4.963   4.023  0.3731  0.0658  0.0711
 7197TIP3    H143006   2.972   4.972   3.932 -1.9904 -2.8640 -1.1348
 7197TIP3    H243007   2.898   5.044   4.043 -2.4295 -0.6174 -2.8189
 7198TIP3   OH243008   5.566   3.180   6.702 -0.2102 -0.3458  0.4530
 7198TIP3    H143009   5.576   3.263   6.749 -2.1924  0.2265 -0.0223
 7198TIP3    H243010   5.569   3.113   6.770 -1.3576  0.3426  1.2082
 7199TIP3   OH243011   4.648   3.972   5.107 -0.2320  0.0886  0.0121
 7199TIP3    H143012   4.668   4.014   5.023 -0.8149 -1.0717 -0.7399
 7199TIP3    H243013   4.574   3.915   5.087  0.1966 -0.8787  1.1127
 7200TIP3   OH243014   5.370   5.213   5.662 -0.2523  0.0033 -0.4139
 7200TIP3    H143015   5.277   5.216   5.639 -0.3000  0.0912 -0.2157
 7200TIP3    H243016   5.373   5.157   5.740 -0.1167 -0.1499 -0.5314
 7201TIP3   OH243017   3.752   6.012   0.283 -0.1092 -0.2345  0.2831
 7201TIP3    H143018   3.748   5.971   0.196 -0.9032  1.9387 -0.7559
 7201TIP3    H243019   3.835   6.058   0.284 -1.6338  2.8203 -0.8785
 7202TIP3   OH243020   6.286   4.112   5.719 -0.0824 -0.6057 -0.3924
 7202TIP3    H143021   6.272   4.090   5.626 -0.5476 -0.0709 -0.4554
 7202TIP3    H243022   6.226   4.184   5.735  0.0930 -0.6117  0.2990
 7203TIP3   OH243023   6.639   1.346   5.303  0.0399 -0.1948 -0.1129
 7203TIP3    H143024   6.663   1.265   5.258  1.3196  0.5519 -0.8208
 7203TIP3    H243025   6.707   1.359   5.369  0.8673  1.1920 -1.1783
 7204TIP3   OH243026   5.111   5.893  11.483  0.6506  0.2281  0.1145
 7204TIP3    H143027   5.169   5.818  11.473  0.1396 -0.1956  0.2734
 7204TIP3    H243028   5.033   5.870  11.433  0.7724  0.9603 -0.4291
 7205TIP3   OH243029   3.760   4.061  17.053  0.0923 -0.1315  0.5439
 7205TIP3    H143030   3.844   4.051  17.009 -0.6189  0.5642 -1.0508
 7205TIP3    H243031   3.702   3.998  17.010 -0.5409  0.3371  0.6940
 7206TIP3   OH243032   5.100   1.569   6.145  0.1447  0.3970 -1.3083
 7206TIP3    H143033   5.179   1.516   6.155 -0.2861 -0.4066 -2.0764
 7206TIP3    H243034   5.094   1.618   6.228  0.9161 -0.2399 -0.8587
 7207TIP3   OH243035   1.835   0.153  13.318 -0.3339  0.3528 -0.4688
 7207TIP3    H143036   1.780   0.111  13.251  0.8469 -0.6140 -0.8716
 7207TIP3    H243037   1.779   0.219  13.357 -1.3808  0.2500 -1.7307
 7208TIP3   OH243038   0.421   0.732   5.646 -0.1626 -0.2805 -0.2632
 7208TIP3    H143039   0.421   0.743   5.741 -0.3195  0.6945 -0.3644
 7208TIP3    H243040   0.443   0.640   5.633 -2.0136 -0.9149  0.7644
 7209TIP3   OH243041   0.905   4.847   5.883 -0.2946  0.1674 -0.8655
 7209TIP3    H143042   0.897   4.918   5.820 -0.1671 -0.2798 -1.3925
 7209TIP3    H243043   0.885   4.887   5.967  0.8277  1.0764 -1.0124
 7210TIP3   OH243044   4.297   5.946  16.139  0.2975  0.0041 -0.0302
 7210TIP3    H143045   4.380   5.900  16.138 -0.3378 -1.2262  0.8952
 7210TIP3    H243046   4.235   5.886  16.097 -0.0641  1.0909 -1.1485
 7211TIP3   OH243047   4.804   2.327  15.804  0.0907  0.2348  0.4790
 7211TIP3    H143048   4.849   2.271  15.867 -0.8515  0.6140  1.5148
 7211TIP3    H243049   4.769   2.266  15.739  0.0345 -0.2744  0.9798
 7212TIP3   OH243050   3.943   1.929  14.627  0.1445 -0.5029 -0.0631
 7212TIP3    H143051   3.902   2.013  14.644  0.7472 -0.4102  1.0515
 7212TIP3    H243052   4.021   1.928  14.683 -0.3618 -2.1712  0.7002
 7213TIP3   OH243053   3.372   4.673  16.615  0.2647 -0.4893  0.2292
 7213TIP3    H143054   3.363   4.709  16.526 -0.4746  1.3418  0.9827
 7213TIP3    H243055   3.286   4.635  16.633  1.1252 -3.0925 -0.6711
 7214TIP3   OH243056   0.677   2.220  16.309 -0.2668 -0.3099  0.0947
 7214TIP3    H143057   0.741   2.255  16.371  0.4119 -0.9327 -0.2423
 7214TIP3    H243058   0.664   2.291  16.246 -2.0133  0.8661  1.6784
 7215TIP3   OH243059   4.531   1.549  10.952  0.1079 -0.1238  0.3655
 7215TIP3    H143060   4.472   1.535  11.026  1.9596  0.4636  2.0299
 7215TIP3    H243061   4.511   1.476  10.892 -2.3573  0.1376  0.7605
 7216TIP3   OH243062   4.431   6.302   4.354 -0.2118 -0.5548 -0.5848
 7216TIP3    H143063   4.518   6.333   4.378  0.4098 -2.0329 -0.8568
 7216TIP3    H243064   4.392   6.272   4.436  0.1711 -1.4088 -0.7107
 7217TIP3   OH243065   4.781   5.624  15.852  0.5712 -0.4055 -0.3505
 7217TIP3    H143066   4.754   5.595  15.765  1.8020  0.5047 -1.0701
 7217TIP3    H243067   4.760   5.717  15.853  0.2910 -0.4729  0.4547
 7218TIP3   OH243068   5.185   3.564  14.680 -0.4677  0.0822 -0.0481
 7218TIP3    H143069   5.238   3.493  14.643  1.3017  1.2761  0.0276
 7218TIP3    H243070   5.121   3.584  14.612  0.4068 -0.1669 -0.9752
 7219TIP3   OH243071   6.211   1.951   2.063  0.5679 -0.7222  0.2306
 7219TIP3    H143072   6.149   2.023   2.070  1.0673 -0.4780  2.8933
 7219TIP3    H243073   6.296   1.992   2.077  1.3162 -1.2380 -2.2846
 7220TIP3   OH243074   4.215   4.039  13.764 -0.3003  0.1144  0.1192
 7220TIP3    H143075   4.172   4.064  13.846 -0.3803  0.7745 -0.1255
 7220TIP3    H243076   4.280   4.107  13.749 -0.9368  0.5099 -0.8684
 7221TIP3   OH243077   4.377   2.089  15.023 -0.2251 -0.5050  0.1640
 7221TIP3    H143078   4.328   2.039  14.958  0.3720  0.9174 -1.4900
 7221TIP3    H243079   4.326   2.168  15.036  0.9358  0.4290 -0.6465
 7222TIP3   OH243080   3.877   5.660  12.880 -0.0660  0.5772  0.1678
 7222TIP3    H143081   3.855   5.578  12.835 -0.6135  0.9861 -0.3163
 7222TIP3    H243082   3.847   5.729  12.821 -0.0634  1.1280  0.8021
 7223TIP3   OH243083   0.323   6.513  12.070  0.6246 -0.1154 -0.0880
 7223TIP3    H143084   0.234   6.480  12.079 -0.9676  3.4843 -0.6045
 7223TIP3    H243085   0.358   6.511  12.159  0.4954 -2.5319 -0.0323
 7224TIP3   OH243086   2.611   2.432   0.707 -0.4942  0.2575  0.7955
 7224TIP3    H143087   2.568   2.374   0.771  1.0788  0.4542  2.0979
 7224TIP3    H243088   2.575   2.405   0.623 -2.7466  0.0667  1.7437
 7225TIP3   OH243089   2.018   1.029   2.718 -0.0193  0.3517 -0.2847
 7225TIP3    H143090   2.012   1.118   2.752 -0.9496  0.7687 -1.4551
 7225TIP3    H243091   2.022   1.040   2.623  3.0202 -0.7233 -0.4104
 7226TIP3   OH243092   2.691   1.660  13.302  0.3600 -0.3294  0.3296
 7226TIP3    H143093   2.629   1.693  13.237 -0.6138 -1.2182  0.7770
 7226TIP3    H243094   2.637   1.607  13.361  1.3338 -0.0638  1.4839
 7227TIP3   OH243095   2.727   4.335   2.677 -0.3029  0.5285  0.1104
 7227TIP3    H143096   2.811   4.294   2.658 -0.5858 -0.0602  0.1305
 7227TIP3    H243097   2.677   4.326   2.596 -0.8754 -0.4292  0.5684
 7228TIP3   OH243098   5.431   4.404   4.391 -0.0845  0.4979  0.1219
 7228TIP3    H143099   5.336   4.401   4.394 -0.1324 -2.1595 -1.0621
 7228TIP3    H243100   5.458   4.426   4.480 -1.7783  0.3676  0.6910
 7229TIP3   OH243101   1.611   0.724  14.821 -0.3895 -0.4779 -0.1219
 7229TIP3    H143102   1.646   0.698  14.907 -1.6086 -1.8096  0.0042
 7229TIP3    H243103   1.640   0.655  14.761 -0.4921 -0.1437 -0.5595
 7230TIP3   OH243104   1.961   5.195   1.236  0.1505  0.2638 -0.7926
 7230TIP3    H143105   1.948   5.175   1.328  1.3085  1.2431 -0.3917
 7230TIP3    H243106   1.878   5.234   1.208 -1.0614 -2.1731 -0.8268
 7231TIP3   OH243107   1.994   3.942  11.293 -0.2361  0.0182  0.7262
 7231TIP3    H143108   1.913   3.945  11.242  0.7500 -1.0662 -0.9906
 7231TIP3    H243109   2.058   3.987  11.238  0.9569 -1.5165  0.8145
 7232TIP3   OH243110   5.758   0.422   6.638 -0.2125  0.3218  0.5373
 7232TIP3    H143111   5.711   0.347   6.601 -0.2824  0.3303  0.6082
 7232TIP3    H243112   5.729   0.497   6.586 -0.4856  0.3702  0.7541
 7233TIP3   OH243113   4.784   6.369   5.216 -0.2099  0.6443 -0.1051
 7233TIP3    H143114   4.726   6.300   5.185  0.7328 -0.3636  0.3021
 7233TIP3    H243115   4.872   6.332   5.208  0.3453  1.8850 -0.0846
 7234TIP3   OH243116   0.228   2.447  13.827  0.0028  0.3165 -0.4572
 7234TIP3    H143117   0.297   2.470  13.889 -0.2160 -1.0923  0.3241
 7234TIP3    H243118   0.229   2.352  13.822 -0.5767  0.3488 -1.9534
 7235TIP3   OH243119   0.702   0.739  13.118 -0.3066 -0.1031  0.1150
 7235TIP3    H143120   0.760   0.777  13.185  0.3083 -0.2880 -0.3021
 7235TIP3    H243121   0.758   0.730  13.041 -1.8611  3.3020 -1.5610
 7236TIP3   OH243122   4.176   2.680  15.151 -0.1121  0.4528 -0.4634
 7236TIP3    H143123   4.255   2.706  15.104  1.6312 -1.4723  1.1903
 7236TIP3    H243124   4.195   2.698  15.243 -1.3901 -0.4778  0.0255
 7237TIP3   OH243125   2.803   5.215   3.939 -0.0589  0.1695  0.2571
 7237TIP3    H143126   2.784   5.266   4.018 -0.2454 -1.4314  1.2865
 7237TIP3    H243127   2.722   5.219   3.889 -0.2102  0.5435  0.5240
 7238TIP3   OH243128   6.098   1.224  13.064  0.1211 -0.1688  0.4545
 7238TIP3    H143129   6.059   1.257  13.145  0.4285  1.4684 -0.0282
 7238TIP3    H243130   6.025   1.218  13.003 -0.0518 -1.0769  0.7363
 7239TIP3   OH243131   2.329   3.738  12.494  0.1816 -0.2210 -0.1617
 7239TIP3    H143132   2.347   3.791  12.417 -1.1330 -0.6829 -0.8089
 7239TIP3    H243133   2.369   3.787  12.566  1.3917  0.2425 -1.1023
 7240TIP3   OH243134   0.291   5.984   4.506 -0.0637  0.1684 -0.1727
 7240TIP3    H143135   0.214   6.036   4.482 -0.9492 -0.0316  1.9971
 7240TIP3    H243136   0.348   6.046   4.551 -0.0678 -0.1960  0.3482
 7241TIP3   OH243137   5.804   0.212   1.904  0.5677 -0.3622 -0.4257
 7241TIP3    H143138   5.851   0.150   1.849  0.3222  1.8094 -3.2700
 7241TIP3    H243139   5.863   0.287   1.913  0.7569 -0.7500  2.7112
 7242TIP3   OH243140   4.685   5.343   5.376  0.2715 -0.8804 -0.2842
 7242TIP3    H143141   4.765   5.292   5.363  0.3280 -1.0813  0.8021
 7242TIP3    H243142   4.716   5.432   5.393  0.2576 -0.9351  0.0243
 7243TIP3   OH243143   3.681   6.173   3.704  0.1904 -0.1390 -0.7469
 7243TIP3    H143144   3.664   6.168   3.610 -1.0722  0.6324 -0.5773
 7243TIP3    H243145   3.661   6.263   3.727 -0.2549 -0.5139  0.3897
 7244TIP3   OH243146   2.466   1.933   0.566  0.0296 -0.7249 -0.2058
 7244TIP3    H143147   2.469   1.895   0.478  2.2576  1.9385 -1.4452
 7244TIP3    H243148   2.554   1.966   0.580 -0.3795 -0.7253  2.9454
 7245TIP3   OH243149   4.629   0.541  16.248 -0.5714  0.6170  0.3786
 7245TIP3    H143150   4.572   0.527  16.173 -2.8311  0.5466  2.0277
 7245TIP3    H243151   4.698   0.476  16.238 -2.4113 -1.3526 -0.1719
 7246TIP3   OH243152   1.839   3.570  16.053 -0.0586 -0.0655  0.2113
 7246TIP3    H143153   1.801   3.542  15.970  0.1898 -1.4534  0.5357
 7246TIP3    H243154   1.821   3.664  16.058 -0.8387 -0.1360 -0.9952
 7247TIP3   OH243155   5.748   0.030  10.778 -0.0791 -0.7443  0.5680
 7247TIP3    H143156   5.753  -0.063  10.756  1.9395 -0.8846  1.4200
 7247TIP3    H243157   5.828   0.047  10.828 -0.3673  1.4771  0.3572
 7248TIP3   OH243158   0.083   3.514   5.119 -0.5509  0.1964 -0.1919
 7248TIP3    H143159   0.042   3.449   5.175 -1.1003 -1.6380 -2.5401
 7248TIP3    H243160   0.013   3.574   5.096 -0.5487  0.3932  0.3125
 7249TIP3   OH243161   3.520   5.053  13.306 -0.7557  0.3202  0.6246
 7249TIP3    H143162   3.513   5.091  13.394 -2.1257  0.6498  0.4053
 7249TIP3    H243163   3.435   5.011  13.292 -0.5590  0.2709 -0.5467
 7250TIP3   OH243164   2.432   2.510  16.095 -0.4809  0.0004 -0.4761
 7250TIP3    H143165   2.433   2.605  16.083  0.1250  0.0151 -0.3363
 7250TIP3    H243166   2.484   2.495  16.174 -1.0811 -0.4034 -0.1449
 7251TIP3   OH243167   1.895   1.539   5.576 -0.3175  0.0538  0.0084
 7251TIP3    H143168   1.842   1.567   5.501  0.0258 -2.1129 -1.1326
 7251TIP3    H243169   1.838   1.550   5.652 -2.0777 -1.1748 -1.0565
 7252TIP3   OH243170   0.408   4.699  12.586 -0.0567 -0.2007  0.7032
 7252TIP3    H143171   0.329   4.746  12.612 -0.1128 -1.1755  2.4691
 7252TIP3    H243172   0.439   4.744  12.508 -1.1962  1.4942  1.1884
 7253TIP3   OH243173   3.679   3.813  11.634 -0.4033  0.0805  0.5967
 7253TIP3    H143174   3.623   3.810  11.711 -0.6944  0.1547  0.3889
 7253TIP3    H243175   3.693   3.906  11.618 -3.5228  0.3021 -1.7148
 7254TIP3   OH243176   5.366   1.956   0.850  0.6161 -0.7285 -0.3357
 7254TIP3    H143177   5.427   1.933   0.780  2.1559 -0.5701  0.8872
 7254TIP3    H243178   5.314   2.028   0.815  0.1570 -1.7782 -1.9094
 7255TIP3   OH243179   1.078   5.434   5.194 -0.0363  0.1125  0.6275
 7255TIP3    H143180   1.161   5.464   5.160 -0.0758  1.2574  1.4912
 7255TIP3    H243181   1.098   5.352   5.239  0.2273 -0.7388 -0.9781
 7256TIP3   OH243182   4.101   0.055  11.901 -0.0799 -0.8787 -0.1277
 7256TIP3    H143183   4.066  -0.032  11.919 -0.2062 -0.7620  0.2004
 7256TIP3    H243184   4.055   0.113  11.962  1.8635 -0.9499  1.4976
 7257TIP3   OH243185   4.445   0.998  10.851 -0.3574  0.0850 -0.0680
 7257TIP3    H143186   4.419   0.908  10.835 -3.4957  1.2500 -2.6654
 7257TIP3    H243187   4.366   1.049  10.835  1.3455  3.3603  1.0058
 7258TIP3   OH243188   4.391   5.639   4.922 -0.0050 -0.3633  0.3068
 7258TIP3    H143189   4.316   5.580   4.936 -0.1179 -1.0008 -2.4695
 7258TIP3    H243190   4.378   5.674   4.834  1.7855  1.3358  0.6501
 7259TIP3   OH243191   0.564   2.753  15.413 -0.0776  0.1149 -0.4264
 7259TIP3    H143192   0.577   2.735  15.320 -0.7692 -3.1786 -0.0037
 7259TIP3    H243193   0.651   2.772  15.446  0.4657 -0.5492 -1.4313
 7260TIP3   OH243194   1.174   6.124   4.193 -0.8262  0.1300  0.9328
 7260TIP3    H143195   1.120   6.135   4.115 -1.2358 -0.6207  1.1042
 7260TIP3    H243196   1.235   6.198   4.191 -0.2844 -0.3287 -0.5268
 7261TIP3   OH243197   2.394   0.898   4.847  0.0580 -0.4662 -0.4277
 7261TIP3    H143198   2.486   0.910   4.872 -0.5117  0.6970  1.2433
 7261TIP3    H243199   2.353   0.861   4.925 -0.7277 -1.9189 -1.4858
 7262TIP3   OH243200   5.641   2.601   1.695 -0.1954 -0.7558 -0.3187
 7262TIP3    H143201   5.691   2.522   1.715  0.2190 -0.3544  0.2428
 7262TIP3    H243202   5.652   2.657   1.772 -0.8328 -0.3255 -0.5371
 7263TIP3   OH243203   0.855   6.387  15.954 -0.5908 -0.0810 -0.3013
 7263TIP3    H143204   0.945   6.413  15.977 -0.0613 -2.0733  0.0817
 7263TIP3    H243205   0.861   6.361  15.862 -0.9755  0.5473 -0.5096
 7264TIP3   OH243206   2.717   5.113   3.583  0.2035 -0.3528 -0.1444
 7264TIP3    H143207   2.658   5.151   3.648 -0.2731 -1.4034  0.0468
 7264TIP3    H243208   2.722   5.180   3.514 -0.5803  0.0803  0.2065
 7265TIP3   OH243209   5.067   5.130  12.645 -0.3261 -1.0858  0.1754
 7265TIP3    H143210   5.105   5.048  12.676 -0.0528 -1.0330 -0.0138
 7265TIP3    H243211   5.142   5.181  12.614 -0.5259 -0.8826  0.0213
 7266TIP3   OH243212   5.744   1.040   2.339  0.5470  0.2237 -0.1948
 7266TIP3    H143213   5.790   1.102   2.283  2.7565 -0.4716  0.7384
 7266TIP3    H243214   5.706   1.094   2.409 -0.9834  0.9203 -1.5124
 7267TIP3   OH243215   2.182   3.138   2.297 -0.0368 -0.3931  0.1714
 7267TIP3    H143216   2.114   3.201   2.319 -0.5001 -0.9472  0.3437
 7267TIP3    H243217   2.197   3.089   2.377  0.8572 -0.0169  0.2525
 7268TIP3   OH243218   2.105   3.359   0.223 -0.4152  0.0728 -0.1801
 7268TIP3    H143219   2.143   3.374   0.310 -0.6085 -2.2727  0.3870
 7268TIP3    H243220   2.123   3.439   0.175 -1.2005  1.9098  2.3369
 7269TIP3   OH243221   1.140   0.882  15.685  0.1898 -0.2338 -1.2526
 7269TIP3    H143222   1.232   0.907  15.675  0.1757  1.2021  1.4303
 7269TIP3    H243223   1.139   0.820  15.757 -0.6489 -3.0125 -3.4557
 7270TIP3   OH243224   3.232   3.439   0.100 -0.0558  0.1231 -0.6890
 7270TIP3    H143225   3.214   3.401   0.186 -1.8013  3.0194  0.3670
 7270TIP3    H243226   3.171   3.395   0.041 -0.6582 -0.0993  0.0749
 7271TIP3   OH243227   2.690   6.406   6.411  0.1731  0.1941 -0.2779
 7271TIP3    H143228   2.713   6.328   6.361 -0.0597 -0.9292  1.3038
 7271TIP3    H243229   2.753   6.408   6.483  0.6758  1.9290 -0.7308
 7272TIP3   OH243230   0.021   5.007   2.181 -0.6084  0.2344  0.6046
 7272TIP3    H143231   0.078   5.012   2.104 -0.7493  0.4859  0.5143
 7272TIP3    H243232   0.074   4.965   2.248 -1.2596 -2.3295 -0.3545
 7273TIP3   OH243233   5.087   6.207  14.257 -0.7746  0.3068 -0.2253
 7273TIP3    H143234   5.027   6.245  14.193 -1.6304 -1.2029 -0.3542
 7273TIP3    H243235   5.031   6.171  14.325 -0.1370 -2.1452 -0.8988
 7274TIP3   OH243236   2.571   3.969  13.195 -0.9881  0.2228 -0.0243
 7274TIP3    H143237   2.510   3.998  13.127 -0.0558 -0.6048 -1.2598
 7274TIP3    H243238   2.653   4.016  13.176 -0.8974  0.4783  0.9370
 7275TIP3   OH243239   0.747   0.559  11.766 -0.0800  0.0626 -0.0696
 7275TIP3    H143240   0.768   0.576  11.858 -0.0205  0.4086 -0.1464
 7275TIP3    H243241   0.652   0.546  11.765 -0.0153 -0.4760  0.1202
 7276TIP3   OH243242   0.065   2.378  16.276  0.1218  0.2098  0.2263
 7276TIP3    H143243   0.128   2.336  16.217  0.2545 -0.2698  0.6996
 7276TIP3    H243244   0.066   2.324  16.355 -2.0897 -0.7752 -0.3473
 7277TIP3   OH243245   3.066   6.486   2.033 -0.4223  0.0128  0.5079
 7277TIP3    H143246   2.970   6.485   2.036 -0.7271 -0.0371 -3.7233
 7277TIP3    H243247   3.087   6.554   1.969  2.3070 -1.2896 -0.1123
 7278TIP3   OH243248   5.556   6.355  15.467  1.0027 -0.2850 -0.2588
 7278TIP3    H143249   5.489   6.384  15.529  1.6590 -0.3887  0.5026
 7278TIP3    H243250   5.514   6.364  15.381  0.1426  0.0027  0.1834
 7279TIP3   OH243251   5.713   4.240  14.144 -0.3419 -0.1749  0.4631
 7279TIP3    H143252   5.752   4.210  14.226 -1.1345 -2.9798 -0.0970
 7279TIP3    H243253   5.766   4.200  14.075 -0.0286  1.6807 -0.4449
 7280TIP3   OH243254   1.635   3.400   5.248  0.4109 -0.4235 -0.0450
 7280TIP3    H143255   1.684   3.330   5.205  1.7681 -0.1152  0.9208
 7280TIP3    H243256   1.549   3.362   5.267  1.5039 -2.2690  1.5209
 7281TIP3   OH243257   1.033   2.348  12.215  0.3485  0.0935  0.6510
 7281TIP3    H143258   1.049   2.441  12.233  0.4270  0.4792 -1.1919
 7281TIP3    H243259   0.955   2.348  12.159 -0.3071 -1.0504  1.5303
 7282TIP3   OH243260   0.180   3.807  10.375 -0.3673  0.3618 -0.7001
 7282TIP3    H143261   0.191   3.712  10.374  2.2317  0.4863  1.8744
 7282TIP3    H243262   0.123   3.824  10.449 -0.0430  0.8269 -0.5514
 7283TIP3   OH243263   2.548   1.139   5.581 -0.4119  0.3119 -0.1254
 7283TIP3    H143264   2.633   1.107   5.611  0.1460  1.1117 -0.7879
 7283TIP3    H243265   2.485   1.100   5.640  0.3998 -0.4988  0.2282
 7284TIP3   OH243266   4.374   0.669   1.010  0.2208  0.0334  0.3550
 7284TIP3    H143267   4.295   0.721   0.994  0.0429  0.4278  2.2585
 7284TIP3    H243268   4.342   0.582   1.030  0.4681 -0.6072 -1.8145
 7285TIP3   OH243269   0.206   2.129  10.660 -0.0383 -0.8793  0.6946
 7285TIP3    H143270   0.246   2.133  10.747 -0.7601  0.9506  0.9887
 7285TIP3    H243271   0.186   2.036  10.647  2.1990 -1.5435  1.4710
 7286TIP3   OH243272   1.548   5.403  16.645 -0.4802 -0.8035  0.1246
 7286TIP3    H143273   1.469   5.358  16.618  0.4918 -1.2869 -2.1654
 7286TIP3    H243274   1.564   5.374  16.734 -3.4553  0.2099  1.0818
 7287TIP3   OH243275   6.373   4.423  13.806 -0.6014 -0.0348  0.0884
 7287TIP3    H143276   6.296   4.368  13.819 -1.4804  0.8150 -1.2347
 7287TIP3    H243277   6.338   4.512  13.801  0.5187  0.4138 -0.0960
 7288TIP3   OH243278   1.498   0.922   1.695  0.5859  0.1665 -0.4403
 7288TIP3    H143279   1.407   0.900   1.715  0.2523  1.4105 -0.4558
 7288TIP3    H243280   1.505   0.916   1.600  1.1778 -2.1966 -0.2930
 7289TIP3   OH243281   2.049   5.127  16.413 -0.1639  0.0216 -0.1066
 7289TIP3    H143282   2.041   5.185  16.337  2.3667 -0.4870 -0.8585
 7289TIP3    H243283   2.106   5.056  16.383 -0.0323 -0.8045  1.9530
 7290TIP3   OH243284   2.796   3.078  14.540  0.2774  0.3514  0.3559
 7290TIP3    H143285   2.717   3.041  14.501  0.4735 -0.1704  0.4436
 7290TIP3    H243286   2.860   3.006  14.537  0.5808  0.6016  0.7715
 7291TIP3   OH243287   3.620   5.899  12.393  0.9104 -0.1801 -0.2743
 7291TIP3    H143288   3.604   5.826  12.334 -0.8483 -0.5975  0.6497
 7291TIP3    H243289   3.569   5.971  12.357  1.2903  0.1079 -0.2495
 7292TIP3   OH243290   3.330   0.826   6.495  0.1298 -0.0013 -0.6211
 7292TIP3    H143291   3.284   0.900   6.455 -0.5996 -0.9489 -1.5498
 7292TIP3    H243292   3.267   0.790   6.557 -0.3037 -1.1089 -1.6717
 7293TIP3   OH243293   3.714   0.457  15.554  0.0131 -0.7395  0.3757
 7293TIP3    H143294   3.708   0.546  15.588 -0.9873 -0.5356 -0.3050
 7293TIP3    H243295   3.784   0.460  15.489 -0.1722 -0.3981  0.1911
 7294TIP3   OH243296   4.425   5.270   4.187 -0.5993  0.3240  1.0114
 7294TIP3    H143297   4.334   5.297   4.173 -0.1654  2.1439  1.3597
 7294TIP3    H243298   4.474   5.353   4.188  1.1594 -0.6509  0.1532
 7295TIP3   OH243299   4.299   3.385   0.846  0.9936  0.6325  0.4032
 7295TIP3    H143300   4.238   3.316   0.821  0.2929  0.6585  1.9165
 7295TIP3    H243301   4.337   3.415   0.764  0.2202 -0.5468 -0.4118
 7296TIP3   OH243302   1.322   3.537   0.097 -0.2513 -0.3714 -0.3417
 7296TIP3    H143303   1.348   3.482   0.171  0.1284 -1.2898 -1.1483
 7296TIP3    H243304   1.394   3.529   0.034 -0.7057  0.1713 -0.9435
 7297TIP3   OH243305   3.171   6.275   1.775 -0.3083  0.0805 -0.4062
 7297TIP3    H143306   3.127   6.252   1.857 -0.5188  0.1321 -0.5029
 7297TIP3    H243307   3.120   6.349   1.740  1.0041  1.4255  0.4327
 7298TIP3   OH243308   5.645   2.475  13.883 -0.5417  0.3774 -0.2133
 7298TIP3    H143309   5.570   2.428  13.921 -0.8443  1.6637  0.8272
 7298TIP3    H243310   5.698   2.501  13.959  0.2538  0.6698 -0.8597
 7299TIP3   OH243311   3.266   3.616   0.907 -0.5511 -0.4618 -0.3254
 7299TIP3    H143312   3.303   3.530   0.926 -1.2564 -0.7335 -0.1823
 7299TIP3    H243313   3.201   3.599   0.839 -1.7527 -0.2669  0.7493
 7300TIP3   OH243314   2.563   1.940   2.056 -0.3332 -0.2414 -0.1831
 7300TIP3    H143315   2.557   1.845   2.053  1.2297 -0.3674 -0.3960
 7300TIP3    H243316   2.519   1.964   2.138 -0.3907 -1.1821  0.0748
 7301TIP3   OH243317   2.755   5.811  16.924  0.0774  0.0156  0.6535
 7301TIP3    H143318   2.699   5.735  16.939 -1.2700  1.1197  1.3808
 7301TIP3    H243319   2.794   5.795  16.838 -1.0569 -0.9660  0.2980
 7302TIP3   OH243320   6.417   6.287   5.663 -0.5445 -0.8125 -0.1903
 7302TIP3    H143321   6.336   6.337   5.662 -0.2845 -0.3981 -1.4079
 7302TIP3    H243322   6.450   6.292   5.574  0.6834 -1.2194  0.2230
 7303TIP3   OH243323   0.507   0.914  16.875  0.3565  0.1618  0.1662
 7303TIP3    H143324   0.477   0.854  16.807  0.1915 -1.3743  1.5317
 7303TIP3    H243325   0.483   0.871  16.957  0.2616  2.1091  1.2133
 7304TIP3   OH243326   5.032   5.167   3.279 -1.0134 -0.2005  0.7662
 7304TIP3    H143327   5.005   5.094   3.335  0.0971 -0.6153  0.7777
 7304TIP3    H243328   5.022   5.244   3.335  0.1492 -0.6148  1.5948
 7305TIP3   OH243329   1.952   0.767  13.954  0.2484  0.1783 -0.2685
 7305TIP3    H143330   1.973   0.775  13.861 -0.0169  0.6119 -0.2917
 7305TIP3    H243331   1.879   0.705  13.957 -1.1055  1.6988 -0.5364
 7306TIP3   OH243332   4.267   2.887  12.374 -0.0110  0.1500  0.0511
 7306TIP3    H143333   4.202   2.922  12.435  0.4388 -1.3074  1.4263
 7306TIP3    H243334   4.248   2.794  12.368  1.7532 -0.2688  0.2769
 7307TIP3   OH243335   1.088   1.817  14.876 -0.7051  0.0894 -0.0220
 7307TIP3    H143336   0.997   1.801  14.903 -0.8665  0.5256 -0.2853
 7307TIP3    H243337   1.138   1.815  14.957 -1.4038  2.9150  0.5989
 7308TIP3   OH243338   2.709   4.744  14.191  0.4620 -0.5923 -0.0483
 7308TIP3    H143339   2.643   4.704  14.248 -0.3347 -1.6173 -1.6089
 7308TIP3    H243340   2.658   4.794  14.128  1.3109  0.3802  0.0238
 7309TIP3   OH243341   5.068   4.725  11.838 -0.1479  0.2504  1.0757
 7309TIP3    H143342   5.158   4.712  11.809 -0.0270 -0.0883  1.5844
 7309TIP3    H243343   5.019   4.654  11.795 -0.1315  0.2987  0.9775
 7310TIP3   OH243344   2.327   1.025   3.438 -0.1231 -0.1114  0.3380
 7310TIP3    H143345   2.341   0.930   3.438 -0.1677 -0.1589  2.3550
 7310TIP3    H243346   2.264   1.040   3.368  1.2230 -1.3321 -1.2001
 7311TIP3   OH243347   4.798   2.949  13.375 -0.1194 -0.1319  0.1080
 7311TIP3    H143348   4.750   2.869  13.399 -0.4228  0.5986  2.1580
 7311TIP3    H243349   4.881   2.918  13.340 -0.9842 -1.3669 -0.9477
 7312TIP3   OH243350   6.306   4.509  13.415 -0.3475 -0.0700  0.0017
 7312TIP3    H143351   6.373   4.458  13.461  0.3886  0.1919 -0.7477
 7312TIP3    H243352   6.226   4.457  13.424  0.1221 -0.7598  0.2840
 7313TIP3   OH243353   2.250   2.506   0.303  0.1573  0.4368 -0.1352
 7313TIP3    H143354   2.212   2.594   0.313 -1.6009 -0.3249  0.3134
 7313TIP3    H243355   2.252   2.491   0.209  0.8226  1.0908 -0.2342
 7314TIP3   OH243356   3.893   1.514   3.235 -0.3938  0.5697  0.0564
 7314TIP3    H143357   3.835   1.575   3.190  0.9012  0.4608 -1.9081
 7314TIP3    H243358   3.944   1.568   3.295 -1.5669  0.8667  0.7955
 7315TIP3   OH243359   2.760   3.487  13.017 -0.0931  0.0459  0.5911
 7315TIP3    H143360   2.766   3.567  13.070  0.6647  0.1771  0.3157
 7315TIP3    H243361   2.845   3.443  13.031  0.4442  0.4795 -1.1460
 7316TIP3   OH243362   1.996   0.813  16.110 -0.0206  0.2112  0.0470
 7316TIP3    H143363   2.053   0.829  16.185  1.4985 -0.2380 -0.9633
 7316TIP3    H243364   2.036   0.864  16.039 -1.8854  1.2794 -0.2997
 7317TIP3   OH243365   1.022   2.818   5.349 -0.8641  0.1142  0.3250
 7317TIP3    H143366   0.941   2.794   5.395 -1.5079 -1.2905 -1.4476
 7317TIP3    H243367   1.012   2.912   5.331 -0.5438  0.7425  3.0225
 7318TIP3   OH243368   0.322   5.534  12.013 -0.4325  0.4971 -0.2026
 7318TIP3    H143369   0.350   5.597  11.946  1.6701  0.1498  0.2752
 7318TIP3    H243370   0.302   5.589  12.090 -2.8353  0.8934 -1.0374
 7319TIP3   OH243371   0.453   3.332  11.168 -0.0414  0.0342  0.3599
 7319TIP3    H143372   0.532   3.386  11.173 -0.2589  0.3699  0.2560
 7319TIP3    H243373   0.389   3.388  11.124 -0.4229 -0.1277  0.6974
 7320TIP3   OH243374   1.667   4.413  14.318  0.6235  0.2292  0.0034
 7320TIP3    H143375   1.739   4.429  14.379  0.4554 -1.4991  0.7318
 7320TIP3    H243376   1.690   4.331  14.274 -0.6188 -0.0518 -0.1778
 7321TIP3   OH243377   3.544   3.223   5.536 -0.2976  0.6146 -0.4159
 7321TIP3    H143378   3.521   3.281   5.463  1.6969  1.0960 -0.6997
 7321TIP3    H243379   3.639   3.217   5.534 -0.3280 -1.1065  0.8430
 7322TIP3   OH243380   1.483   3.360  13.321 -0.1460 -0.6616 -0.3733
 7322TIP3    H143381   1.465   3.420  13.393 -0.3189 -0.5197 -0.5339
 7322TIP3    H243382   1.550   3.301  13.355  1.2084  0.6103 -0.7314
 7323TIP3   OH243383   5.870   1.894   0.798 -0.0191 -0.1667 -0.8500
 7323TIP3    H143384   5.825   1.850   0.725  1.3463 -1.0615 -1.1769
 7323TIP3    H243385   5.884   1.984   0.767 -1.3806  0.0788 -0.8127
 7324TIP3   OH243386   6.550   1.669   5.290  0.1120  0.1274 -0.1943
 7324TIP3    H143387   6.604   1.592   5.308 -0.5298 -0.1190  0.7355
 7324TIP3    H243388   6.524   1.701   5.377 -1.0587  0.3663 -0.6162
 7325TIP3   OH243389   2.393   0.893  14.076  0.0370 -0.5262 -0.0147
 7325TIP3    H143390   2.368   0.971  14.126  1.7524  0.7300 -0.9849
 7325TIP3    H243391   2.347   0.821  14.118 -1.1856  0.9315  1.2658
 7326TIP3   OH243392   4.229   4.097  13.026 -0.1569 -0.3577 -0.3930
 7326TIP3    H143393   4.298   4.113  13.090  0.4887 -2.4710 -0.5026
 7326TIP3    H243394   4.149   4.126  13.070  0.2934 -1.5770  1.3237
 7327TIP3   OH243395   3.814   0.241   1.879 -0.4964 -0.5896  0.2931
 7327TIP3    H143396   3.889   0.184   1.863 -0.7974 -0.9998  0.3207
 7327TIP3    H243397   3.747   0.211   1.817 -1.1461 -1.1906  1.2544
 7328TIP3   OH243398   2.039   0.557   1.815 -0.2829 -0.0156  0.0611
 7328TIP3    H143399   1.977   0.630   1.823 -0.3086 -0.2312  2.7764
 7328TIP3    H243400   2.115   0.584   1.867  0.7429 -0.9417 -0.8989
 7329TIP3   OH243401   3.449   5.099   5.754  0.2130 -0.3607  0.0342
 7329TIP3    H143402   3.500   5.175   5.728  1.6602 -0.9121  1.1585
 7329TIP3    H243403   3.393   5.131   5.826 -1.2252  0.2841 -1.3116
 7330TIP3   OH243404   0.537   0.782   4.842  0.4044 -0.5483 -0.3789
 7330TIP3    H143405   0.495   0.864   4.866 -0.1650 -0.6987 -0.8467
 7330TIP3    H243406   0.625   0.807   4.815  0.2314 -0.0938 -0.5291
 7331TIP3   OH243407   2.251   3.417  11.809  0.9147 -0.5633 -0.0518
 7331TIP3    H143408   2.208   3.501  11.791 -0.2658 -1.1007  0.1195
 7331TIP3    H243409   2.183   3.365  11.852  1.4965 -1.7547 -0.5360
 7332TIP3   OH243410   5.705   4.363  12.587  0.2145 -0.2644 -0.7498
 7332TIP3    H143411   5.769   4.432  12.572 -0.3537  0.2469 -0.9014
 7332TIP3    H243412   5.678   4.336  12.500  0.9878 -1.2203 -0.7031
 7333TIP3   OH243413   3.196   6.083   2.565 -0.4119  0.1080  0.0866
 7333TIP3    H143414   3.228   6.147   2.501 -1.4395  0.0001 -0.5514
 7333TIP3    H243415   3.194   6.131   2.648  0.9483  0.2436  0.0713
 7334TIP3   OH243416   6.486   4.927   1.457  0.4155  0.2752  0.1251
 7334TIP3    H143417   6.540   4.984   1.511 -0.9420  0.8479  0.9517
 7334TIP3    H243418   6.517   4.838   1.476  1.4419  0.6295  0.1173
 7335TIP3   OH243419   4.274   3.948  16.470 -0.2033  0.1750 -0.4326
 7335TIP3    H143420   4.249   3.987  16.386  0.1649 -1.5810 -1.4126
 7335TIP3    H243421   4.244   4.011  16.535  2.3079  3.2503 -1.9245
 7336TIP3   OH243422   4.778   6.178   5.453  0.0359  0.3893 -0.7717
 7336TIP3    H143423   4.758   6.179   5.547  0.1914 -0.1113 -0.7296
 7336TIP3    H243424   4.874   6.180   5.450  0.0309  0.3339 -0.9211
 7337TIP3   OH243425   1.937   2.320  12.344 -0.1643  0.9786  0.1886
 7337TIP3    H143426   1.994   2.337  12.419  0.3796  1.2240 -0.2721
 7337TIP3    H243427   1.962   2.386  12.279 -0.8568  0.9801 -0.0862
 7338TIP3   OH243428   5.030   4.350  12.702 -0.3767  0.4484  0.1209
 7338TIP3    H143429   5.045   4.366  12.795  1.0606 -1.3137  0.2590
 7338TIP3    H243430   4.940   4.318  12.697  0.0607 -1.1166  1.2149
 7339TIP3   OH243431   2.112   5.314   2.859 -0.1441 -0.5673 -0.5472
 7339TIP3    H143432   2.197   5.290   2.822 -0.5474  0.4744 -2.2526
 7339TIP3    H243433   2.057   5.332   2.783 -1.5737 -0.1247  0.5485
 7340TIP3   OH243434   2.402   4.963  15.211 -0.0566 -0.2545 -0.0563
 7340TIP3    H143435   2.316   4.935  15.240 -0.5289  1.0826 -0.0933
 7340TIP3    H243436   2.428   4.898  15.146 -0.2296 -1.6801  1.2346
 7341TIP3   OH243437   1.532   3.031  14.205  0.1696 -0.1349 -1.1077
 7341TIP3    H143438   1.625   3.053  14.195  0.3093 -0.4255 -0.5216
 7341TIP3    H243439   1.520   2.954  14.150 -0.0540  0.6849 -2.2580
 7342TIP3   OH243440   1.377   5.038  13.138 -0.4243 -0.3563  0.1791
 7342TIP3    H143441   1.312   4.978  13.103 -1.1950  0.7554 -0.3728
 7342TIP3    H243442   1.434   4.984  13.192 -0.3184 -1.7999 -1.3051
 7343TIP3   OH243443   2.675   4.847  12.313 -0.2236  0.7132  0.1779
 7343TIP3    H143444   2.738   4.899  12.364 -0.7948 -0.1076  1.7794
 7343TIP3    H243445   2.598   4.904  12.305 -1.3913 -0.2691  3.1409
 7344TIP3   OH243446   2.812   0.286  11.680 -0.6880 -0.5656  0.0791
 7344TIP3    H143447   2.786   0.207  11.728  2.0700 -0.8180  1.3452
 7344TIP3    H243448   2.906   0.274  11.664 -0.6629  1.4616 -1.7338
 7345TIP3   OH243449   3.752   5.517  14.994  0.9428 -0.4097  0.6858
 7345TIP3    H143450   3.770   5.556  15.080  0.7366  1.6005 -0.1411
 7345TIP3    H243451   3.676   5.565  14.962  1.0799 -1.0691 -0.6818
 7346TIP3   OH243452   0.601   0.462  14.592  0.2653  0.0031  0.0069
 7346TIP3    H143453   0.677   0.520  14.586 -0.2927  1.0149  1.9980
 7346TIP3    H243454   0.586   0.451  14.685  0.0042 -2.9821 -0.2693
 7347TIP3   OH243455   4.092   3.676  13.756 -0.3064 -0.2842  0.1557
 7347TIP3    H143456   4.143   3.747  13.794 -1.7956 -0.0135  1.8002
 7347TIP3    H243457   4.103   3.686  13.661 -1.4966  3.0105  0.2212
 7348TIP3   OH243458   4.997   1.505   6.426 -0.0781 -0.3311 -0.4023
 7348TIP3    H143459   4.971   1.426   6.378 -0.2947 -0.5906  0.1351
 7348TIP3    H243460   5.076   1.479   6.474 -0.1174 -0.2026 -0.2672
 7349TIP3   OH243461   6.339   6.227  16.803  0.0082 -0.6230 -0.6314
 7349TIP3    H143462   6.393   6.239  16.725  1.2363 -1.2585  0.0908
 7349TIP3    H243463   6.375   6.149  16.845 -1.1691 -0.7750  0.1453
 7350TIP3   OH243464   2.293   4.284  12.237  0.1699  0.5718  0.1603
 7350TIP3    H143465   2.260   4.205  12.279 -0.8131  0.2737 -1.1045
 7350TIP3    H243466   2.305   4.260  12.145 -0.7058  2.0104 -0.3777
 7351TIP3   OH243467   3.333   2.270  13.147 -0.7821 -0.2586  0.2608
 7351TIP3    H143468   3.408   2.220  13.178 -0.6511  0.5317  1.2700
 7351TIP3    H243469   3.326   2.249  13.054 -0.3822 -1.6860  0.5366
 7352TIP3   OH243470   5.435   3.222   4.945  0.2099 -0.4680  0.6431
 7352TIP3    H143471   5.422   3.216   4.851  1.3236  0.3404  0.4044
 7352TIP3    H243472   5.425   3.316   4.964  3.2351 -0.0618  0.7305
 7353TIP3   OH243473   5.417   2.626   1.933 -0.2509 -0.1311 -0.0248
 7353TIP3    H143474   5.349   2.563   1.909 -1.9904  1.1705  1.1911
 7353TIP3    H243475   5.383   2.711   1.903  0.8964  0.5534  0.5210
 7354TIP3   OH243476   1.659   4.867   5.803 -0.5033 -0.9376 -0.6282
 7354TIP3    H143477   1.600   4.818   5.746 -1.9561 -0.2100  0.2000
 7354TIP3    H243478   1.647   4.958   5.779 -2.8994 -0.3240  2.2073
 7355TIP3   OH243479   5.902   3.454  15.562  0.1484  0.4223 -0.2222
 7355TIP3    H143480   5.856   3.390  15.617  0.6938 -0.1968 -0.4774
 7355TIP3    H243481   5.833   3.511  15.529 -0.2863  0.2710  0.4116
 7356TIP3   OH243482   6.495   2.636   1.276 -0.0071 -0.5096 -0.1970
 7356TIP3    H143483   6.438   2.562   1.258  2.5071 -2.7922  0.5803
 7356TIP3    H243484   6.449   2.687   1.343 -2.1482 -0.8568 -1.3342
 7357TIP3   OH243485   1.280   5.563  14.748  0.0358  0.0620  0.1317
 7357TIP3    H143486   1.200   5.564  14.799  0.5928 -0.4817  1.0376
 7357TIP3    H243487   1.256   5.603  14.664 -0.8653  1.0276  0.8364
 7358TIP3   OH243488   0.654   0.531   2.136 -0.2380  0.0794  0.7357
 7358TIP3    H143489   0.585   0.562   2.196  0.9293  2.5839  0.9244
 7358TIP3    H243490   0.607   0.503   2.058 -1.5287  1.5321  0.9329
 7359TIP3   OH243491   0.550   3.808  12.686 -0.1622 -0.1806  0.9606
 7359TIP3    H143492   0.616   3.746  12.718  0.5263  0.6354  1.1718
 7359TIP3    H243493   0.600   3.888  12.668 -0.8344 -0.0725 -0.4882
 7360TIP3   OH243494   4.044   5.818  16.264  0.3031 -0.4175  0.1088
 7360TIP3    H143495   3.962   5.860  16.289 -0.0037 -1.2020  0.4697
 7360TIP3    H243496   4.049   5.829  16.169  1.1134  1.9555  0.3654
 7361TIP3   OH243497   0.130   3.658  15.250 -0.3307  0.7535  0.2466
 7361TIP3    H143498   0.127   3.629  15.159 -0.4396  2.4238 -0.3062
 7361TIP3    H243499   0.039   3.665  15.277 -0.3232  1.2662  0.1453
 7362TIP3   OH243500   6.229   1.386  17.460 -0.1087  0.2995 -0.7778
 7362TIP3    H143501   6.293   1.457  17.469 -0.2668  0.3221  0.1831
 7362TIP3    H243502   6.233   1.363  17.367 -0.2771  1.7763 -1.1847
 7363TIP3   OH243503   3.778   1.565  17.401  0.4224 -0.0394  0.4096
 7363TIP3    H143504   3.851   1.615  17.365 -0.1068 -0.9557 -2.1730
 7363TIP3    H243505   3.819   1.490  17.445  1.0998  1.2850  2.1576
 7364TIP3   OH243506   0.978   4.912   5.000  1.0490  0.4669  0.1659
 7364TIP3    H143507   0.907   4.851   4.978 -0.1197  0.9683  2.2807
 7364TIP3    H243508   0.947   4.997   4.969  0.9617  0.5924  0.5878
 7365TIP3   OH243509   4.994   3.242   5.851  0.4561  0.5579 -0.1776
 7365TIP3    H143510   5.000   3.237   5.755 -1.0250 -0.2996 -0.2600
 7365TIP3    H243511   5.083   3.224   5.881  0.5558 -1.2063 -1.3619
 7366TIP3   OH243512   5.832   3.651  17.214 -0.6271  0.4346 -0.1126
 7366TIP3    H143513   5.911   3.618  17.256 -0.9843  0.0892  0.2858
 7366TIP3    H243514   5.788   3.703  17.282  0.3975  2.5576 -0.9781
 7367TIP3   OH243515   4.714   2.457   3.345 -0.1357  0.0078  0.1268
 7367TIP3    H143516   4.799   2.453   3.301  0.7959 -1.1008  1.9032
 7367TIP3    H243517   4.720   2.535   3.402  0.1456 -0.6631  1.0477
 7368TIP3   OH243518   5.039   4.793   2.536  0.0778  0.2635  0.6141
 7368TIP3    H143519   4.947   4.800   2.511  0.6941  0.7907 -1.7611
 7368TIP3    H243520   5.054   4.868   2.594 -0.5651  1.2213 -0.4251
 7369TIP3   OH243521   4.929   0.756   5.633  0.7574 -0.1086  0.6449
 7369TIP3    H143522   4.961   0.738   5.721  1.7852 -0.8062  0.1487
 7369TIP3    H243523   4.948   0.677   5.584  0.1700  0.2615 -0.2054
 7370TIP3   OH243524   5.186   4.259  11.791 -0.3482 -0.1794  0.0721
 7370TIP3    H143525   5.106   4.285  11.836 -0.1675 -0.5025  0.5825
 7370TIP3    H243526   5.166   4.173  11.755 -0.2179 -0.2796  0.2372
 7371TIP3   OH243527   6.096   5.419  13.533 -0.0337 -0.1973  0.0932
 7371TIP3    H143528   6.129   5.397  13.446 -2.0207 -0.5303 -0.6265
 7371TIP3    H243529   6.081   5.513  13.531  2.4370  0.2922  1.0348
 7372TIP3   OH243530   6.008   5.347  13.075  0.8115  0.2231  0.1230
 7372TIP3    H143531   5.935   5.289  13.099  2.6112 -2.4333 -0.3707
 7372TIP3    H243532   5.991   5.369  12.983 -0.2717  1.1100  0.5225
 7373TIP3   OH243533   2.339   5.321   4.190 -0.1387  0.0477 -0.1154
 7373TIP3    H143534   2.354   5.405   4.233 -0.3728 -0.2214  0.5013
 7373TIP3    H243535   2.256   5.291   4.226 -0.5211 -0.0090 -1.0388
 7374TIP3   OH243536   2.576   5.249   3.798  0.3721  0.2024 -0.0893
 7374TIP3    H143537   2.493   5.205   3.814  0.9434 -0.0586  2.6525
 7374TIP3    H243538   2.553   5.326   3.746 -1.3092 -0.7526 -0.8442
 7375TIP3   OH243539   5.371   4.808   5.911 -0.2831  0.1578 -0.2187
 7375TIP3    H143540   5.455   4.835   5.874  0.4266 -3.6391 -1.8349
 7375TIP3    H243541   5.390   4.789   6.003  1.0094 -1.7254 -0.8162
 7376TIP3   OH243542   4.422   6.715  14.293  0.1513  0.6478  0.2832
 7376TIP3    H143543   4.484   6.719  14.366 -1.6413 -1.0186  2.0169
 7376TIP3    H243544   4.360   6.785  14.312  1.3590  2.2832 -1.4265
 7377TIP3   OH243545   6.674   5.393  13.720  0.3730  0.4634  0.0892
 7377TIP3    H143546   6.760   5.424  13.748  0.5366  1.2247 -1.2016
 7377TIP3    H243547   6.673   5.300  13.743  1.5232  0.4530  0.1276
 7378TIP3   OH243548   3.219   5.000   2.712  0.6624 -0.0403 -0.0491
 7378TIP3    H143549   3.153   4.997   2.643  0.8120  0.4308 -0.2150
 7378TIP3    H243550   3.191   4.934   2.775 -0.0730  0.2931 -0.0198
 7379TIP3   OH243551   2.109   1.698  15.356  0.2482 -0.0575 -0.1458
 7379TIP3    H143552   2.151   1.638  15.295 -0.3497 -0.7495  0.1111
 7379TIP3    H243553   2.174   1.712  15.425  0.4184 -0.3510 -0.2461
 7380TIP3   OH243554   4.399   5.375   5.191 -0.6980  0.7420 -0.4846
 7380TIP3    H143555   4.376   5.304   5.130 -0.4648  1.3910 -1.3457
 7380TIP3    H243556   4.491   5.360   5.211 -0.3645  1.4154 -1.5075
 7381TIP3   OH243557   5.465   5.125  15.051 -0.4741  0.1783 -0.4007
 7381TIP3    H143558   5.439   5.217  15.061 -0.5572  0.0738  0.4786
 7381TIP3    H243559   5.383   5.078  15.039 -0.6549 -0.0294  1.3649
 7382TIP3   OH243560   6.262   3.953   1.644 -0.0781  0.6482  0.1697
 7382TIP3    H143561   6.280   4.042   1.670 -1.2090  0.6169  1.1466
 7382TIP3    H243562   6.170   3.954   1.616  0.8461  0.5825 -3.4683
 7383TIP3   OH243563   6.025   4.354  11.723  0.2904 -0.9421 -0.7489
 7383TIP3    H143564   6.060   4.435  11.685 -1.0989 -0.9876 -2.2204
 7383TIP3    H243565   6.063   4.351  11.811  1.3624  0.6503 -1.1075
 7384TIP3   OH243566   1.020   2.425  13.663 -0.4820  0.0031 -0.0621
 7384TIP3    H143567   1.071   2.436  13.583 -0.0007  0.1057  0.2526
 7384TIP3    H243568   0.985   2.512  13.681 -0.5040  0.0032 -0.1056
 7385TIP3   OH243569   0.396   4.393   2.660 -0.4080  0.4553  0.4114
 7385TIP3    H143570   0.402   4.489   2.663  0.6488  0.3910  1.0263
 7385TIP3    H243571   0.327   4.372   2.723 -1.7397  0.8601 -0.8389
 7386TIP3   OH243572   4.844   5.136  12.779  0.1289  0.1984  0.2767
 7386TIP3    H143573   4.823   5.229  12.792  2.9436  0.7925  1.3342
 7386TIP3    H243574   4.931   5.137  12.738  0.7928 -1.9638  1.5049
 7387TIP3   OH243575   1.889   4.020  13.718  0.3259  0.2062  0.3267
 7387TIP3    H143576   1.890   3.924  13.717  1.5988  0.1964 -0.2635
 7387TIP3    H243577   1.817   4.043  13.777 -0.5571 -1.0978 -0.1927
 7388TIP3   OH243578   0.108   5.787  17.181  0.1338  0.5124 -0.8722
 7388TIP3    H143579   0.024   5.782  17.228 -0.2481  0.8871 -1.5009
 7388TIP3    H243580   0.098   5.861  17.122  1.1430  0.9444 -0.5196
 7389TIP3   OH243581   1.905   2.916  10.927  0.1275  0.4464 -0.9003
 7389TIP3    H143582   1.836   2.881  10.870 -0.6790 -1.6286  1.1990
 7389TIP3    H243583   1.974   2.848  10.926  0.6017  0.9083 -0.3114
 7390TIP3   OH243584   0.660   3.831   0.196  0.1647 -0.7792 -0.0486
 7390TIP3    H143585   0.699   3.787   0.272  0.7131  0.8917  0.6753
 7390TIP3    H243586   0.727   3.826   0.128  0.4514 -0.5628  0.2155
 7391TIP3   OH243587   0.684   5.436   6.974  0.2109  0.2882  0.1972
 7391TIP3    H143588   0.731   5.355   6.953 -1.9737 -1.0315  0.1796
 7391TIP3    H243589   0.689   5.487   6.893  0.7533 -0.2619 -0.1280
 7392TIP3   OH243590   2.565   5.733   1.990 -0.8166  0.0278  0.5149
 7392TIP3    H143591   2.567   5.698   1.901 -0.0443  1.7778 -0.1925
 7392TIP3    H243592   2.654   5.722   2.023 -0.7665  0.5833  0.5743
 7393TIP3   OH243593   2.587   3.553  13.891 -0.1781 -0.7599  0.5141
 7393TIP3    H143594   2.608   3.561  13.984  1.1333 -1.4554  0.3125
 7393TIP3    H243595   2.665   3.513  13.852  0.3846  1.8078 -1.3327
 7394TIP3   OH243596   6.446   5.696   3.895  0.3496 -0.7493 -0.6979
 7394TIP3    H143597   6.427   5.619   3.949  0.5720 -0.5143 -0.2810
 7394TIP3    H243598   6.442   5.663   3.805  3.4421 -2.0119 -0.5304
 7395TIP3   OH243599   5.466   6.667  17.450  0.2407  0.0328 -0.1143
 7395TIP3    H143600   5.399   6.666  17.381 -0.3406  1.2445  0.3841
 7395TIP3    H243601   5.517   6.588  17.436 -1.1189 -0.7788 -0.7019
 7396TIP3   OH243602   1.296   2.141   1.548  0.1747 -0.1718 -0.3900
 7396TIP3    H143603   1.281   2.215   1.606 -1.8857 -1.0678  0.2884
 7396TIP3    H243604   1.230   2.077   1.572  0.3097 -1.2501 -2.6281
 7397TIP3   OH243605   6.128   3.791  15.335 -0.1334 -0.3218  0.2335
 7397TIP3    H143606   6.136   3.697  15.353  2.4487 -0.3798 -0.8131
 7397TIP3    H243607   6.113   3.830  15.421  1.6031 -1.4788  1.1236
 7398TIP3   OH243608   3.910   5.663   1.635  0.3225 -0.0267 -0.4003
 7398TIP3    H143609   3.831   5.690   1.682 -1.3710 -1.5751 -2.1619
 7398TIP3    H243610   3.942   5.743   1.593  0.8582  1.0080  1.8563
 7399TIP3   OH243611   0.641   2.778  11.583 -0.0467 -0.0613  0.1366
 7399TIP3    H143612   0.655   2.805  11.492 -2.2729 -0.3095 -0.3471
 7399TIP3    H243613   0.573   2.710  11.577  0.2264 -0.5416  1.9438
 7400TIP3   OH243614   3.686   2.198   0.734 -0.1870 -0.0107  0.5074
 7400TIP3    H143615   3.775   2.229   0.747 -0.5671  1.2251  0.3166
 7400TIP3    H243616   3.637   2.232   0.810 -1.2358  2.4843 -1.1575
 7401TIP3   OH243617   1.276   1.212   6.050 -0.0424 -0.0819  0.1738
 7401TIP3    H143618   1.257   1.134   6.102  1.6970 -0.4980  0.2550
 7401TIP3    H243619   1.370   1.205   6.031 -0.0129  1.6277 -0.4305
 7402TIP3   OH243620   0.548   6.473  14.074 -0.2132  0.4949  0.2517
 7402TIP3    H143621   0.509   6.445  13.991  0.2426 -2.1150  0.8228
 7402TIP3    H243622   0.478   6.520  14.118 -0.9238  0.6779 -1.0098
 7403TIP3   OH243623   0.721   4.079   0.511  0.4462 -0.4450 -0.0675
 7403TIP3    H143624   0.628   4.078   0.488  0.0130  1.1936  1.4046
 7403TIP3    H243625   0.763   4.125   0.437  0.0089 -0.7074 -0.4822
 7404TIP3   OH243626   1.610   5.312  12.277  0.0163 -0.2143  0.0677
 7404TIP3    H143627   1.519   5.338  12.261 -0.5127 -0.9975  1.5590
 7404TIP3    H243628   1.654   5.325  12.193 -1.8964 -1.6644 -1.2579
 7405TIP3   OH243629   4.886   1.412  12.950 -0.0341  0.0976 -0.5491
 7405TIP3    H143630   4.932   1.327  12.947 -0.1887  0.0331 -1.2585
 7405TIP3    H243631   4.931   1.461  13.019  1.5916  0.3038 -1.6980
 7406TIP3   OH243632   1.670   0.299  13.457  0.1051 -0.4045 -0.5439
 7406TIP3    H143633   1.651   0.388  13.487 -0.4692 -0.6368 -0.1910
 7406TIP3    H243634   1.627   0.242  13.521 -0.8092 -0.9153 -1.5632
 7407TIP3   OH243635   5.893   0.113   5.577  0.3999  0.5826  0.0168
 7407TIP3    H143636   5.929   0.135   5.663 -0.2986  1.4832  0.0960
 7407TIP3    H243637   5.859   0.196   5.543 -2.2584 -0.2976  0.2658
 7408TIP3   OH243638   6.160   3.719   0.955  0.3168 -0.0707  0.1434
 7408TIP3    H143639   6.145   3.775   1.031  0.5276 -0.6187  0.5960
 7408TIP3    H243640   6.074   3.687   0.931  0.1033  0.9242 -0.5080
 7409TIP3   OH243641   2.168   2.244   5.882  0.9908  0.0031  0.2690
 7409TIP3    H143642   2.171   2.150   5.864  0.8851  0.0805 -0.1506
 7409TIP3    H243643   2.084   2.273   5.845  0.3607  0.0017  1.6366
 7410TIP3   OH243644   3.981   6.592   4.861  0.3624  0.1282  0.2106
 7410TIP3    H143645   4.030   6.510   4.859  1.3669  0.7065  0.2201
 7410TIP3    H243646   4.028   6.649   4.800 -0.9081  0.3827 -0.5594
 7411TIP3   OH243647   2.720   2.795   1.813 -0.1860 -0.1421 -0.0378
 7411TIP3    H143648   2.658   2.844   1.867 -0.1650  1.5157 -1.4449
 7411TIP3    H243649   2.672   2.717   1.785 -0.4596 -0.6230  1.6335
 7412TIP3   OH243650   0.263   1.095  12.485  0.0266 -0.3159  0.1880
 7412TIP3    H143651   0.230   1.089  12.395 -1.4356 -1.5006  0.7603
 7412TIP3    H243652   0.353   1.063  12.480 -0.3268 -1.2127 -0.7167
 7413TIP3   OH243653   0.649   0.728  16.531  0.2128  0.3684  0.0021
 7413TIP3    H143654   0.594   0.741  16.608 -0.1490  1.9584 -0.4911
 7413TIP3    H243655   0.672   0.816  16.502  2.0967 -0.2283 -0.4887
 7414TIP3   OH243656   4.853   5.134   5.002  0.0976  0.1710 -0.3545
 7414TIP3    H143657   4.770   5.131   4.955 -1.7187 -0.9096  2.6451
 7414TIP3    H243658   4.883   5.043   5.005  0.5443  0.3219 -0.0774
 7415TIP3   OH243659   5.699   2.587  12.484  1.1604  0.4749 -0.7772
 7415TIP3    H143660   5.715   2.531  12.560 -0.3048 -1.3630 -1.7306
 7415TIP3    H243661   5.653   2.663  12.519  1.4807  0.1857  0.3026
 7416TIP3   OH243662   6.728   4.510  11.468  0.0694  0.5681 -0.1584
 7416TIP3    H143663   6.677   4.469  11.538  1.5384  3.4142  2.8479
 7416TIP3    H243664   6.810   4.461  11.466  0.2214  0.7909  0.5121
 7417TIP3   OH243665   3.951   5.619   4.369  0.0018 -0.0295  0.4409
 7417TIP3    H143666   3.919   5.537   4.332  0.0922 -0.7791  1.9651
 7417TIP3    H243667   3.964   5.676   4.293 -4.4073  0.1950 -0.4357
 7418TIP3   OH243668   2.033   1.309   0.011 -0.1664 -0.3294 -0.3630
 7418TIP3    H143669   1.967   1.247   0.042  0.5646 -1.3810 -0.8353
 7418TIP3    H243670   2.091   1.256  -0.043  0.9451  0.6113 -0.1287
 7419TIP3   OH243671   6.563   5.085  16.263  0.1765 -0.5032  0.6609
 7419TIP3    H143672   6.555   5.013  16.200  0.6953  0.5831 -0.6814
 7419TIP3    H243673   6.476   5.090  16.303 -0.4260 -0.6903 -0.5624
 7420TIP3   OH243674   5.499   5.379  16.779  0.2480  0.0468 -0.1784
 7420TIP3    H143675   5.571   5.358  16.721  0.1737  1.8797 -0.9950
 7420TIP3    H243676   5.430   5.316  16.757  1.2239 -1.0886 -0.0584
 7421TIP3   OH243677   3.388   0.410   6.010  0.0722 -0.0018 -0.2276
 7421TIP3    H143678   3.414   0.488   5.962  0.7081 -0.6509 -0.9651
 7421TIP3    H243679   3.469   0.359   6.019 -0.2902 -0.4808  0.4200
 7422TIP3   OH243680   5.294   6.013  12.729 -0.3370  0.4238 -0.2286
 7422TIP3    H143681   5.233   5.973  12.666 -0.8643  0.9871 -0.0822
 7422TIP3    H243682   5.237   6.051  12.796  0.1601  1.2047 -0.2386
 7423TIP3   OH243683   1.797   5.440   4.432  0.4228 -0.0254  0.1144
 7423TIP3    H143684   1.710   5.424   4.469 -0.1599  0.0660 -1.1498
 7423TIP3    H243685   1.858   5.403   4.495 -0.5406 -0.1669  0.9811
 7424TIP3   OH243686   2.393   6.671  11.524 -0.3384 -0.4551 -0.2615
 7424TIP3    H143687   2.479   6.701  11.494 -1.0633  2.1656 -0.0453
 7424TIP3    H243688   2.380   6.587  11.481  2.1774 -0.7737 -0.5487
 7425TIP3   OH243689   4.132   2.330  15.966 -0.0239  0.8891  0.3668
 7425TIP3    H143690   4.223   2.360  15.974  0.7119 -0.7427 -1.4202
 7425TIP3    H243691   4.126   2.257  16.027 -0.2623  1.1966  0.7207
 7426TIP3   OH243692   4.025   1.311   5.621 -0.0890 -0.0315  0.3906
 7426TIP3    H143693   4.095   1.283   5.562 -1.0722  0.1973 -0.9368
 7426TIP3    H243694   4.071   1.353   5.694  1.3577 -3.4117  1.6177
 7427TIP3   OH243695   0.410   1.730  16.083 -0.3108  0.0274 -0.6503
 7427TIP3    H143696   0.423   1.637  16.104 -1.4684  0.2218  1.1710
 7427TIP3    H243697   0.473   1.776  16.139 -1.6145  0.4378  0.5430
 7428TIP3   OH243698   5.299   4.810   0.656  0.2347 -0.3769 -0.0465
 7428TIP3    H143699   5.249   4.810   0.738  0.8904 -0.7028  0.3588
 7428TIP3    H243700   5.260   4.881   0.604 -0.0778 -0.0547  0.6147
 7429TIP3   OH243701   6.044   3.399   4.618 -0.1054 -0.4123 -0.2185
 7429TIP3    H143702   6.057   3.369   4.528 -1.4185 -3.1987  0.4038
 7429TIP3    H243703   5.957   3.438   4.618  0.9600  2.1214 -0.6667
 7430TIP3   OH243704   2.877   0.800   3.914  0.7712  0.2794 -0.3516
 7430TIP3    H143705   2.911   0.888   3.929 -0.2173  0.5519  0.3851
 7430TIP3    H243706   2.829   0.779   3.994  0.1210 -0.5148 -0.9329
 7431TIP3   OH243707   0.929   0.413  13.326  0.3582  0.4855  0.1464
 7431TIP3    H143708   1.017   0.427  13.361 -0.6529  0.5848  2.8696
 7431TIP3    H243709   0.936   0.331  13.277  2.6195  2.0669 -2.4441
 7432TIP3   OH243710   3.738   5.840   2.282 -0.3100  0.0916 -0.3822
 7432TIP3    H143711   3.655   5.884   2.298 -0.0715  1.1511 -1.8650
 7432TIP3    H243712   3.804   5.894   2.326 -0.3848 -0.8655  0.9822
 7433TIP3   OH243713   1.825   6.404  12.239  0.0894 -0.3502  0.4054
 7433TIP3    H143714   1.904   6.421  12.188 -1.2109  1.5655 -1.1028
 7433TIP3    H243715   1.771   6.348  12.183 -0.4495 -0.0092  0.5707
 7434TIP3   OH243716   0.381   4.808   2.901 -0.4066  0.2011 -0.0902
 7434TIP3    H143717   0.354   4.752   2.975 -1.3385  1.3228  0.4557
 7434TIP3    H243718   0.349   4.762   2.824 -2.4135  0.6198  0.4372
 7435TIP3   OH243719   4.158   5.313  12.355  0.0629 -0.1186 -0.3238
 7435TIP3    H143720   4.148   5.268  12.438  2.1196  0.1971  0.1631
 7435TIP3    H243721   4.150   5.406  12.377  2.1984  0.0681 -0.1288
 7436TIP3   OH243722   5.582   5.124  13.227  0.0066 -0.1562 -1.1133
 7436TIP3    H143723   5.509   5.078  13.268 -0.7027  0.3058 -1.8078
 7436TIP3    H243724   5.657   5.107  13.284 -0.4108 -1.4835 -0.9175
 7437TIP3   OH243725   6.301   4.411  11.391 -0.0210  0.1603 -0.3994
 7437TIP3    H143726   6.233   4.344  11.397 -0.9778  0.8882 -2.2860
 7437TIP3    H243727   6.274   4.479  11.453 -0.1835 -0.2413 -0.0260
 7438TIP3   OH243728   5.908   0.403   4.497  0.6740 -0.2031 -0.4865
 7438TIP3    H143729   5.851   0.472   4.464 -1.4600 -1.4822  0.3025
 7438TIP3    H243730   5.899   0.332   4.432  1.3235 -0.4565 -0.3081
 7439TIP3   OH243731   3.775   1.950  11.397  0.5240 -0.1394  0.5564
 7439TIP3    H143732   3.691   1.923  11.435  0.1297 -0.6907 -0.6748
 7439TIP3    H243733   3.766   2.044  11.382 -0.2740 -0.3845 -0.5476
 7440TIP3   OH243734   6.677   0.201   4.978 -0.5687  0.0304  0.4659
 7440TIP3    H143735   6.749   0.260   4.956 -0.5034 -0.8850 -2.1271
 7440TIP3    H243736   6.682   0.192   5.073  4.0058 -1.5156  0.3458
 7441TIP3   OH243737   1.867   6.320   1.231 -0.5704  0.4912  0.1458
 7441TIP3    H143738   1.908   6.401   1.201  2.3474 -1.6129 -2.1574
 7441TIP3    H243739   1.904   6.306   1.319  0.8896  0.4632 -0.4454
 7442TIP3   OH243740   4.648   4.103  15.646  0.5495 -0.5877 -0.2010
 7442TIP3    H143741   4.715   4.049  15.690  1.9617 -0.0926 -1.6293
 7442TIP3    H243742   4.625   4.053  15.568 -0.7801 -0.7356  0.2584
 7443TIP3   OH243743   3.175   0.839  17.377 -0.2361 -0.1737 -0.0263
 7443TIP3    H143744   3.129   0.784  17.313  0.2855 -0.3158 -0.2873
 7443TIP3    H243745   3.262   0.799  17.384  1.0791  2.0451 -2.1515
 7444TIP3   OH243746   6.364   6.699  13.140 -0.4709 -0.5130  0.1621
 7444TIP3    H143747   6.452   6.674  13.109 -0.9777 -1.2636 -0.7344
 7444TIP3    H243748   6.362   6.669  13.231 -0.1660 -1.4835 -0.1374
 7445TIP3   OH243749   0.688   5.869   6.311 -0.3495  0.3139 -0.2283
 7445TIP3    H143750   0.615   5.807   6.308  1.0955 -1.6776  2.2261
 7445TIP3    H243751   0.676   5.923   6.232 -4.7299  0.4919  0.3028
 7446TIP3   OH243752   2.786   6.709   0.121  0.3662 -0.3557  0.3501
 7446TIP3    H143753   2.706   6.661   0.144  0.0652  0.0887  0.2364
 7446TIP3    H243754   2.776   6.794   0.163 -0.4353  0.6718 -1.7916
 7447TIP3   OH243755   2.567   4.328   2.418  0.0873  0.5050 -0.2458
 7447TIP3    H143756   2.618   4.257   2.377  1.4302  1.5807 -0.5060
 7447TIP3    H243757   2.498   4.282   2.466  0.3720 -0.9432 -1.1338
 7448TIP3   OH243758   1.802   5.668   4.781 -0.4357 -0.3410 -0.5913
 7448TIP3    H143759   1.882   5.670   4.728  0.1872 -1.1390  0.2769
 7448TIP3    H243760   1.823   5.608   4.853 -0.7231  1.7474  1.3673
 7449TIP3   OH243761   0.801   1.408  16.101 -0.1238 -0.3546  0.2941
 7449TIP3    H143762   0.878   1.381  16.050 -0.4189  0.0522 -0.3719
 7449TIP3    H243763   0.763   1.480  16.052 -1.0972 -0.7295  0.4718
 7450TIP3   OH243764   4.165   2.189   3.102  0.1107  0.2499  0.7686
 7450TIP3    H143765   4.224   2.150   3.166  0.7194 -0.3934 -0.1627
 7450TIP3    H243766   4.083   2.203   3.150  0.6136 -0.0449  1.7258
 7451TIP3   OH243767   1.373   4.714  13.914  0.4231  0.1669 -0.0079
 7451TIP3    H143768   1.399   4.627  13.944  0.8769  0.3608  0.1732
 7451TIP3    H243769   1.453   4.767  13.920  0.8154 -0.0274 -2.5607
 7452TIP3   OH243770   5.190   2.191  16.073 -0.2995  0.1945  0.2772
 7452TIP3    H143771   5.111   2.244  16.067  0.5158  1.5354  0.9092
 7452TIP3    H243772   5.160   2.101  16.056 -2.0326  0.5906  1.0061
 7453TIP3   OH243773   1.086   2.039  11.563 -0.5067 -0.1644 -0.1119
 7453TIP3    H143774   1.056   1.949  11.574 -0.4951 -0.3658 -1.5675
 7453TIP3    H243775   1.124   2.042  11.475 -1.3666  1.4910 -0.4771
 7454TIP3   OH243776   3.756   1.699   4.217 -0.2919 -0.4066  0.1752
 7454TIP3    H143777   3.750   1.613   4.176 -1.0005  0.1847 -1.0012
 7454TIP3    H243778   3.790   1.681   4.305  1.7057 -1.6725 -0.7699
 7455TIP3   OH243779   1.291   3.178  13.243 -0.1384  0.0573 -0.3558
 7455TIP3    H143780   1.350   3.246  13.276 -0.7829 -0.0148  1.0172
 7455TIP3    H243781   1.349   3.117  13.197  0.6927  0.6114 -0.0770
 7456TIP3   OH243782   5.105   3.904  13.820 -0.1724 -0.0752 -0.7060
 7456TIP3    H143783   5.181   3.891  13.877 -0.3139 -0.3314 -0.5725
 7456TIP3    H243784   5.056   3.822  13.828 -0.4154  0.0561 -0.8628
 7457TIP3   OH243785   4.957   3.451  13.242  0.5796 -0.0831  0.2230
 7457TIP3    H143786   4.936   3.426  13.331  2.1445 -1.4714  0.2486
 7457TIP3    H243787   4.962   3.547  13.244 -0.9252 -0.0055  1.2339
 7458TIP3   OH243788   3.708   0.231   5.656  0.3352 -0.7479 -0.1410
 7458TIP3    H143789   3.748   0.276   5.731  1.3483 -2.5188  0.4482
 7458TIP3    H243790   3.763   0.254   5.581 -0.4229  0.6758 -0.2884
 7459TIP3   OH243791   4.670   2.241   0.584 -0.4297 -0.6761 -0.0685
 7459TIP3    H143792   4.686   2.210   0.495 -0.7113 -0.0527 -0.3437
 7459TIP3    H243793   4.586   2.203   0.609 -0.1556 -1.1801  0.0846
 7460TIP3   OH243794   0.631   5.722   6.938 -0.9406 -0.0627 -0.0966
 7460TIP3    H143795   0.564   5.685   6.995 -0.5626  0.6330  0.8241
 7460TIP3    H243796   0.622   5.674   6.855 -2.0253 -0.5355  0.2821
 7461TIP3   OH243797   4.615   6.646  11.896 -0.1411  0.2121  0.5566
 7461TIP3    H143798   4.528   6.683  11.911 -0.4440 -0.4238  0.4146
 7461TIP3    H243799   4.612   6.614  11.805 -0.0110 -0.4579  0.7800
 7462TIP3   OH243800   4.020   1.432  12.340 -0.5177  0.2269 -0.0400
 7462TIP3    H143801   4.030   1.374  12.415  1.3547 -0.2381 -0.5883
 7462TIP3    H243802   4.110   1.448  12.310 -0.9672  3.0585 -0.1901
 7463TIP3   OH243803   0.339   1.007   5.717  0.3193 -0.7890 -0.2728
 7463TIP3    H143804   0.371   0.939   5.657 -1.0129 -0.8797 -0.9125
 7463TIP3    H243805   0.327   0.961   5.800 -1.3427 -1.5593 -0.9090
 7464TIP3   OH243806   4.203   4.644   1.913  0.9273 -0.5354 -0.3224
 7464TIP3    H143807   4.186   4.629   2.006 -0.1090  0.5956 -0.3015
 7464TIP3    H243808   4.171   4.565   1.869 -2.4253  0.5202 -0.0499
 7465TIP3   OH243809   3.394   1.872  12.792 -0.3012 -0.4942 -0.8018
 7465TIP3    H143810   3.384   1.906  12.703  0.7025 -0.0854 -0.7629
 7465TIP3    H243811   3.487   1.882  12.812 -0.2352 -1.9486 -0.2522
 7466TIP3   OH243812   0.985   1.909   1.283  0.0994  0.0814  0.9363
 7466TIP3    H143813   0.993   2.003   1.298 -0.2879  0.2052  0.3905
 7466TIP3    H243814   0.892   1.890   1.296 -0.0935  0.0350 -0.3205
 7467TIP3   OH243815   0.442   0.020   3.514 -0.8035  0.0276 -0.3577
 7467TIP3    H143816   0.354   0.042   3.485 -0.2018  0.3470 -2.0431
 7467TIP3    H243817   0.452  -0.073   3.491 -0.8548 -0.1339  0.2574
 7468TIP3   OH243818   1.081   1.421   0.002 -0.2058  0.1683  0.3686
 7468TIP3    H143819   1.038   1.437  -0.082  0.2101  0.3885  0.1943
 7468TIP3    H243820   1.170   1.393  -0.021  0.1980  1.0970  0.7408
 7469TIP3   OH243821   1.182   4.752   5.807 -0.0929  0.5130 -0.7788
 7469TIP3    H143822   1.212   4.674   5.853  1.8269  0.9597 -1.2215
 7469TIP3    H243823   1.109   4.785   5.860  2.6775  1.6428  2.6270
 7470TIP3   OH243824   0.627   1.962   1.508 -0.3154 -0.3318 -0.4719
 7470TIP3    H143825   0.535   1.973   1.485 -0.5672 -0.2114  0.5179
 7470TIP3    H243826   0.661   1.900   1.444 -0.5403  1.1712 -2.1116
 7471TIP3   OH243827   6.713   2.846  15.644 -0.3962  0.1510  0.1133
 7471TIP3    H143828   6.724   2.772  15.584 -2.2223  0.5442 -0.7723
 7471TIP3    H243829   6.670   2.808  15.721 -2.1053  0.3762 -0.6808
 7472TIP3   OH243830   6.230   1.603   2.313 -0.7619  0.6080  0.0065
 7472TIP3    H143831   6.228   1.695   2.290 -2.4056  0.8244  0.8853
 7472TIP3    H243832   6.321   1.586   2.338 -0.8137  2.5109  1.7667
 7473TIP3   OH243833   4.022   4.907   5.462 -0.3262 -0.1659  0.4284
 7473TIP3    H143834   4.027   4.965   5.386 -0.1258  1.2903  1.5288
 7473TIP3    H243835   4.037   4.819   5.425 -2.6481  0.1808 -1.5846
 7474TIP3   OH243836   2.807   4.060   6.365 -0.0208 -0.0170  0.2131
 7474TIP3    H143837   2.893   4.078   6.402  0.3837 -1.1655 -0.1166
 7474TIP3    H243838   2.799   3.965   6.368  0.1980 -0.2521 -2.9100
 7475TIP3   OH243839   3.604   2.749   4.504  0.2719 -0.3371 -0.0370
 7475TIP3    H143840   3.606   2.727   4.597  0.6112  2.7029  0.7934
 7475TIP3    H243841   3.518   2.789   4.491  1.6933  3.1929  0.1629
 7476TIP3   OH243842   0.278   3.306   0.695  0.3788  0.2587 -0.0599
 7476TIP3    H143843   0.226   3.330   0.618  0.1556  0.4689  0.1563
 7476TIP3    H243844   0.236   3.227   0.729 -0.0455  0.6568  0.3502
 7477TIP3   OH243845   3.789   1.274  13.532  0.7385  0.1395 -0.1589
 7477TIP3    H143846   3.801   1.214  13.606 -1.9263  0.0574  0.3163
 7477TIP3    H243847   3.749   1.219  13.464  0.3012  0.8964 -0.5186
 7478TIP3   OH243848   5.954   5.457   2.876  0.5341  0.2504  0.5245
 7478TIP3    H143849   6.005   5.533   2.849 -1.2484  1.2916 -0.0612
 7478TIP3    H243850   5.969   5.451   2.970  1.1331  0.9709  0.4899
 7479TIP3   OH243851   0.008   3.578  13.404 -0.6294 -0.2472  0.6621
 7479TIP3    H143852   0.030   3.609  13.491  0.8769  1.6887 -0.3283
 7479TIP3    H243853   0.075   3.513  13.383  0.4421  1.0015  0.0918
 7480TIP3   OH243854   2.059   4.536   5.191  1.0271 -0.0476 -0.4694
 7480TIP3    H143855   2.047   4.443   5.171  1.6542 -0.1094 -0.5695
 7480TIP3    H243856   2.045   4.581   5.108 -1.9920  0.2197  0.0820
 7481TIP3   OH243857   4.870   0.746   5.257 -0.0198 -0.3843  0.1784
 7481TIP3    H143858   4.854   0.669   5.312  2.5709 -0.4739  0.9387
 7481TIP3    H243859   4.920   0.805   5.313 -0.4115  1.0932 -0.9795
 7482TIP3   OH243860   3.778   2.922  12.182 -0.6469  0.1040  0.6023
 7482TIP3    H143861   3.829   3.002  12.191  1.9060 -1.2714 -0.3216
 7482TIP3    H243862   3.702   2.948  12.130  0.4633  1.8034 -0.2798
 7483TIP3   OH243863   6.569   4.427  16.192  0.1194 -0.4465 -0.3590
 7483TIP3    H143864   6.586   4.519  16.213 -1.2223 -0.4748  0.9899
 7483TIP3    H243865   6.657   4.388  16.185  0.8289  1.3412 -3.3095
 7484TIP3   OH243866   4.832   3.138   3.486 -0.0513  0.0025 -0.4402
 7484TIP3    H143867   4.835   3.100   3.398 -1.1960 -0.7736 -0.1673
 7484TIP3    H243868   4.898   3.207   3.484 -1.1899  1.1384 -2.4471
 7485TIP3   OH243869   4.646   2.810   2.536 -0.2220  0.0192 -0.6746
 7485TIP3    H143870   4.580   2.876   2.512  0.7208  1.3219  0.2042
 7485TIP3    H243871   4.723   2.861   2.560 -0.2874 -1.2617  2.6973
 7486TIP3   OH243872   6.666   0.611   0.316 -0.0418 -0.0931  0.0358
 7486TIP3    H143873   6.662   0.705   0.330  0.3473 -0.2417  1.2205
 7486TIP3    H243874   6.606   0.595   0.243  0.4817  1.1527 -0.6896
 7487TIP3   OH243875   3.128   4.556   2.198 -0.4632  0.3605 -1.4162
 7487TIP3    H143876   3.209   4.556   2.147  1.1405 -0.3405  0.9257
 7487TIP3    H243877   3.062   4.518   2.139  1.4719 -1.2978 -2.6483
 7488TIP3   OH243878   5.209   5.961   3.955 -0.6309  0.4266 -0.6250
 7488TIP3    H143879   5.148   5.959   4.029  0.2733 -2.1255  0.1412
 7488TIP3    H243880   5.164   5.914   3.885 -0.5399  0.7653 -0.9144
 7489TIP3   OH243881   2.351   0.633  13.860 -0.8051 -0.4117  0.0663
 7489TIP3    H143882   2.282   0.574  13.890  0.5549 -0.7142  2.8937
 7489TIP3    H243883   2.381   0.677  13.939  0.8599  1.2576 -1.3947
 7490TIP3   OH243884   4.110   0.342   1.916  0.5409  0.2625 -0.6127
 7490TIP3    H143885   4.174   0.337   1.844 -0.0340 -0.9065 -1.0640
 7490TIP3    H243886   4.085   0.251   1.932  2.0908  0.2424  2.4035
 7491TIP3   OH243887   6.260   0.309   6.254 -0.2839  0.0225 -0.8176
 7491TIP3    H143888   6.285   0.246   6.322 -0.4150 -0.0498 -0.8359
 7491TIP3    H243889   6.218   0.256   6.187 -1.4184  0.2627 -0.3237
 7492TIP3   OH243890   0.616   6.025   6.108 -0.2025  0.2979 -0.1530
 7492TIP3    H143891   0.549   6.084   6.143 -0.5358  0.3620 -0.8956
 7492TIP3    H243892   0.685   6.083   6.075 -2.4657  0.6442 -5.0792
 7493TIP3   OH243893   1.204   4.979   0.028  0.3448  0.0027  0.2515
 7493TIP3    H143894   1.174   4.957  -0.060  0.2629  0.7192  0.0978
 7493TIP3    H243895   1.273   4.915   0.046  1.3180  0.6908 -0.8813
 7494TIP3   OH243896   2.521   2.691   0.176  0.0500 -0.1633  0.8123
 7494TIP3    H143897   2.464   2.624   0.214 -0.2900 -0.4375 -0.1605
 7494TIP3    H243898   2.488   2.774   0.212 -1.4829 -0.2404 -0.3425
 7495TIP3   OH243899   2.249   3.243   5.887  0.4457 -0.1055  0.0008
 7495TIP3    H143900   2.282   3.267   5.801  1.2845  0.0559  0.3643
 7495TIP3    H243901   2.247   3.325   5.936  0.4736 -0.2854  0.3055
 7496TIP3   OH243902   5.693   5.168  11.533 -0.9059 -0.3003 -0.9426
 7496TIP3    H143903   5.656   5.130  11.453  0.9063  0.8691 -2.4128
 7496TIP3    H243904   5.652   5.255  11.539 -0.7773 -0.2513 -0.7743
 7497TIP3   OH243905   3.143   4.709   1.730  0.3216  0.0612 -0.1396
 7497TIP3    H143906   3.205   4.715   1.802 -0.9022  1.2820  0.8505
 7497TIP3    H243907   3.198   4.702   1.652  1.6970  0.6761  0.7403
 7498TIP3   OH243908   4.499   2.347   3.253  0.0237 -0.1011  0.1906
 7498TIP3    H143909   4.507   2.261   3.294  0.7749 -1.2646 -2.2194
 7498TIP3    H243910   4.571   2.398   3.290  0.5889 -1.0570  0.4433
 7499TIP3   OH243911   5.926   2.998   0.695 -0.3414  0.2886 -0.0633
 7499TIP3    H143912   5.895   2.948   0.771 -0.0175 -0.7385 -0.5782
 7499TIP3    H243913   5.886   2.954   0.620  0.3568  0.4975 -0.5714
 7500TIP3   OH243914   6.664   3.080   3.878 -0.1668  0.2227 -0.8676
 7500TIP3    H143915   6.738   3.125   3.919 -0.2703  0.2698 -0.7308
 7500TIP3    H243916   6.703   3.005   3.834 -0.1932 -0.4975  0.3039
 7501TIP3   OH243917   1.976   4.286  16.429  0.7740  0.3265 -0.2944
 7501TIP3    H143918   1.900   4.229  16.437 -0.5196  2.1341  1.1191
 7501TIP3    H243919   2.019   4.282  16.514  2.1027 -0.4001 -0.9610
 7502TIP3   OH243920   1.797   4.351   3.603  0.1123 -0.1900  0.0423
 7502TIP3    H143921   1.807   4.296   3.526 -1.5335 -0.1492 -0.2215
 7502TIP3    H243922   1.787   4.440   3.568 -1.5739 -0.2833  0.2204
 7503TIP3   OH243923   2.449   2.993  17.236 -0.2293  0.2252  0.0826
 7503TIP3    H143924   2.530   2.988  17.287  0.8886 -1.1171 -1.7233
 7503TIP3    H243925   2.386   2.942  17.287  0.6051 -0.3456  0.5717
 7504TIP3   OH243926   6.383   0.763  13.982 -0.2289  0.1992 -0.0659
 7504TIP3    H143927   6.319   0.761  13.910  0.6318  0.4706 -0.8563
 7504TIP3    H243928   6.458   0.715  13.948  0.4649  0.9469  0.3990
 7505TIP3   OH243929   6.176   1.022   0.038  0.1487 -0.0974 -0.1812
 7505TIP3    H143930   6.211   1.072   0.111 -1.7931 -1.2219  1.6373
 7505TIP3    H243931   6.095   1.067   0.014 -0.0696 -0.6607 -0.5492
 7506TIP3   OH243932   5.988   4.811   5.529  0.6904  0.1682  0.0789
 7506TIP3    H143933   6.004   4.788   5.438  0.0079  0.3380 -0.0870
 7506TIP3    H243934   5.894   4.799   5.541  0.9611 -1.0829  1.1091
 7507TIP3   OH243935   2.366   4.255   6.688 -0.6533  0.2438  0.4720
 7507TIP3    H143936   2.295   4.198   6.658 -0.6783  0.2441  0.5299
 7507TIP3    H243937   2.392   4.304   6.611 -1.3092  0.8776  0.6509
 7508TIP3   OH243938   2.298   3.768   1.817  1.0518  0.5171  0.1706
 7508TIP3    H143939   2.369   3.737   1.873  1.3497  0.1577 -0.3933
 7508TIP3    H243940   2.304   3.713   1.739  1.4435  1.8215 -0.7619
 7509TIP3   OH243941   2.580   3.884   1.372 -0.7933  0.5371 -0.4851
 7509TIP3    H143942   2.561   3.832   1.294 -0.3681 -0.7104  0.2124
 7509TIP3    H243943   2.663   3.928   1.353  0.5012 -1.5121  0.0471
 7510TIP3   OH243944   2.852   2.840  15.518 -0.4550 -0.2213  0.3155
 7510TIP3    H143945   2.769   2.793  15.527 -0.5138  0.0630  1.4407
 7510TIP3    H243946   2.919   2.779  15.547 -0.5244  0.3107  1.7051
 7511TIP3   OH243947   5.957   0.997   5.527 -0.1979 -0.1537  0.4545
 7511TIP3    H143948   5.882   1.044   5.490  0.5392  2.0798  1.6342
 7511TIP3    H243949   5.923   0.960   5.608 -0.7556 -1.6840 -0.4335
 7512TIP3   OH243950   5.771   3.923   5.322 -0.3678  0.4990  0.2818
 7512TIP3    H143951   5.837   3.909   5.254  1.0617  1.5485  1.3658
 7512TIP3    H243952   5.691   3.945   5.274 -0.2439 -1.7748 -1.1004
 7513TIP3   OH243953   4.977   1.711  12.019 -0.3663 -0.4272 -0.3940
 7513TIP3    H143954   4.908   1.757  12.068 -0.2462  1.2597 -1.7052
 7513TIP3    H243955   5.056   1.722  12.072 -0.6812 -0.5722  0.1077
 7514TIP3   OH243956   3.168   5.536  15.011 -0.1964 -0.3914 -0.5239
 7514TIP3    H143957   3.150   5.509  15.101 -0.0627 -0.3532 -0.4863
 7514TIP3    H243958   3.135   5.626  15.006  0.8264  0.0239 -0.1821
 7515TIP3   OH243959   6.701   1.955  12.364 -0.4853 -0.2992  0.0433
 7515TIP3    H143960   6.626   1.897  12.381 -1.9606  0.5959 -2.8872
 7515TIP3    H243961   6.664   2.043  12.360  0.8411  0.2520 -0.7964
 7516TIP3   OH243962   1.283   4.241   2.412  0.1969 -0.1382  0.7062
 7516TIP3    H143963   1.324   4.326   2.422  0.5945 -0.0336 -1.3554
 7516TIP3    H243964   1.210   4.242   2.474  0.0164  1.8026  0.5191
 7517TIP3   OH243965   6.432   2.438  14.253  0.0695 -0.6255 -0.1056
 7517TIP3    H143966   6.522   2.409  14.238 -0.2172 -1.1735 -0.8335
 7517TIP3    H243967   6.378   2.373  14.209 -0.7208 -0.6629  0.8888
 7518TIP3   OH243968   1.928   6.359  15.835  0.3717 -0.1900  0.0140
 7518TIP3    H143969   1.938   6.390  15.925  1.6823  3.0043 -1.1045
 7518TIP3    H243970   1.986   6.415  15.783 -1.9058 -0.4546 -3.1318
 7519TIP3   OH243971   0.129   3.844   3.295 -0.8029  0.5850 -0.1510
 7519TIP3    H143972   0.186   3.818   3.367  0.2662 -0.7216 -1.4096
 7519TIP3    H243973   0.082   3.764   3.271 -0.7461  0.8504 -1.2211
 7520TIP3   OH243974   0.323   3.038  12.913  0.1865 -0.3689  0.3984
 7520TIP3    H143975   0.398   3.057  12.857 -0.5303  0.2231 -0.3893
 7520TIP3    H243976   0.356   2.975  12.977  1.6395  0.7195  0.7607
 7521TIP3   OH243977   4.805   5.984  11.236 -0.0330  0.2052 -0.3001
 7521TIP3    H143978   4.794   6.043  11.311  1.2956  1.0308 -0.7164
 7521TIP3    H243979   4.838   5.903  11.275  3.2768  1.4736 -0.1239
 7522TIP3   OH243980   3.472   0.332   0.463  0.1606 -0.0526  0.1706
 7522TIP3    H143981   3.386   0.347   0.503 -0.2735  0.5128 -0.9418
 7522TIP3    H243982   3.477   0.394   0.390  1.4743 -0.1502  0.1429
 7523TIP3   OH243983   5.129   3.390  11.522 -0.0279 -0.2207  0.2120
 7523TIP3    H143984   5.139   3.485  11.518  1.5962 -0.3108  1.2330
 7523TIP3    H243985   5.129   3.362  11.431 -2.3234  0.8769 -0.1963
 7524TIP3   OH243986   5.974   2.717   5.806 -0.6188 -0.1941 -0.2201
 7524TIP3    H143987   5.905   2.749   5.747 -1.6198  0.5290  1.2662
 7524TIP3    H243988   5.931   2.648   5.857  0.4683 -1.3736 -0.8447
 7525TIP3   OH243989   6.548   4.133   6.555 -0.1867 -0.1215  0.2507
 7525TIP3    H143990   6.508   4.055   6.517 -0.7946 -0.2831  1.1946
 7525TIP3    H243991   6.475   4.182   6.592  0.3462  0.1964  0.9043
 7526TIP3   OH243992   5.339   0.347  11.134 -0.5603  0.4757  0.5624
 7526TIP3    H143993   5.247   0.372  11.124 -0.7004 -0.8558 -2.9352
 7526TIP3    H243994   5.338   0.252  11.138  0.6679  0.4304  0.2661
 7527TIP3   OH243995   5.573   5.223  12.708  0.0144  0.3988 -0.2325
 7527TIP3    H143996   5.610   5.185  12.628 -0.1571 -2.6996  1.0369
 7527TIP3    H243997   5.590   5.158  12.776  0.3158  2.9981  2.3769
 7528TIP3   OH243998   5.789   2.348   0.414 -0.5623 -0.3978 -0.4580
 7528TIP3    H143999   5.696   2.336   0.397 -0.3678  0.2294 -2.1399
 7528TIP3    H244000   5.824   2.259   0.421 -1.0460 -0.6673 -1.3273
 7529TIP3   OH244001   3.809   5.625  13.927  0.0167 -0.4316 -0.0883
 7529TIP3    H144002   3.724   5.640  13.885 -0.0911  0.4244  0.4143
 7529TIP3    H244003   3.872   5.633  13.855 -0.1620  1.0737 -0.1287
 7530TIP3   OH244004   2.982   5.892   1.300 -0.4309  0.3892  0.2984
 7530TIP3    H144005   3.000   5.985   1.312  1.0526 -0.1041  2.5960
 7530TIP3    H244006   3.048   5.863   1.237  0.0377  0.6510  0.6620
 7531TIP3   OH244007   5.799   6.181  13.973 -0.7307  0.0118 -0.1891
 7531TIP3    H144008   5.831   6.256  14.023  0.1889  0.4153 -1.3421
 7531TIP3    H244009   5.726   6.215  13.922 -0.8032 -0.0694 -0.1405
 7532TIP3   OH244010   1.958   5.839  16.843  1.2093 -0.6450  0.0438
 7532TIP3    H144011   1.969   5.934  16.847  0.9902 -0.4810 -2.1052
 7532TIP3    H244012   1.912   5.816  16.924  1.3777  1.0485  0.6459
 7533TIP3   OH244013   6.721   5.184   3.800 -0.7612 -0.1136 -0.2273
 7533TIP3    H144014   6.709   5.180   3.706  0.7260 -0.8515 -0.4249
 7533TIP3    H244015   6.689   5.099   3.832 -1.7773  0.3519  0.0100
 7534TIP3   OH244016   1.836   0.098   2.732 -0.7115  0.0348  0.3262
 7534TIP3    H144017   1.857   0.007   2.712 -0.6946 -0.1952  1.3339
 7534TIP3    H244018   1.740   0.103   2.725 -1.1149 -0.9381  3.4777
 7535TIP3   OH244019   2.650   5.074   1.711 -0.3367 -0.0466 -0.2724
 7535TIP3    H144020   2.673   5.058   1.620 -0.6338  0.1776 -0.3869
 7535TIP3    H244021   2.727   5.119   1.747 -0.0293 -0.5544 -0.2845
 7536TIP3   OH244022   3.479   3.112  15.116 -0.0706 -0.1629  0.2811
 7536TIP3    H144023   3.444   3.178  15.056 -1.3592 -0.6286  0.4767
 7536TIP3    H244024   3.518   3.046  15.059 -1.0867 -0.4913 -0.0472
 7537TIP3   OH244025   6.072   4.999   5.756  0.2213  0.1869 -0.0938
 7537TIP3    H144026   6.044   4.963   5.671 -1.1161  2.4315 -0.6847
 7537TIP3    H244027   6.015   4.957   5.820  0.9220 -1.1731 -0.3199
 7538TIP3   OH244028   2.626   0.548   0.162  0.0303 -0.4880 -0.3383
 7538TIP3    H144029   2.607   0.497   0.241 -0.0762 -0.3978 -0.3057
 7538TIP3    H244030   2.544   0.593   0.143  0.7105  1.3438  0.8309
 7539TIP3   OH244031   4.100   3.767  15.962 -0.5053 -0.1145  0.3313
 7539TIP3    H144032   4.008   3.791  15.949 -0.6993 -1.4673 -1.0763
 7539TIP3    H244033   4.149   3.835  15.916 -1.0054 -1.5597 -2.6017
 7540TIP3   OH244034   0.181   1.951  11.274  0.4178  0.6581  0.6953
 7540TIP3    H144035   0.209   2.005  11.200  1.5204 -0.1269  0.5142
 7540TIP3    H244036   0.194   1.861  11.245 -1.2873  0.2560  1.0395
 7541TIP3   OH244037   3.693   0.608  13.981 -0.6650  0.4920 -0.3484
 7541TIP3    H144038   3.762   0.674  13.978 -1.1954  1.1748  1.4256
 7541TIP3    H244039   3.611   0.657  13.975 -1.0568 -0.2173 -1.2384
 7542TIP3   OH244040   1.970   6.478   2.907 -0.3038  0.7301 -0.5538
 7542TIP3    H144041   1.975   6.400   2.962 -1.1220  2.1076  1.6145
 7542TIP3    H244042   2.061   6.506   2.895 -0.0437 -0.2508 -0.9249
 7543TIP3   OH244043   5.002   5.680   2.012  0.7267  1.0804 -0.2812
 7543TIP3    H144044   5.059   5.707   1.940  0.2929 -0.6688 -1.3637
 7543TIP3    H244045   5.001   5.584   2.006  0.3644  0.9167  1.8437
 7544TIP3   OH244046   4.378   3.228  15.503  0.1452  0.2565 -0.4205
 7544TIP3    H144047   4.391   3.255  15.412  0.4427  1.0755 -0.1468
 7544TIP3    H244048   4.284   3.217  15.512  0.2159 -1.1168 -1.1712
 7545TIP3   OH244049   0.927   0.637   2.114 -0.0615 -0.0107  1.0124
 7545TIP3    H144050   0.853   0.581   2.137 -1.5131  1.2043 -0.5156
 7545TIP3    H244051   0.960   0.602   2.031  0.4801  0.0341  1.2015
 7546TIP3   OH244052   1.452   4.415  15.981 -0.3759  0.0207  0.3336
 7546TIP3    H144053   1.504   4.337  15.964 -1.2755 -0.8493  1.3748
 7546TIP3    H244054   1.384   4.414  15.913 -0.8585 -0.5628  0.8097
 7547TIP3   OH244055   6.482   5.400   0.198 -0.3601  0.3147  0.3587
 7547TIP3    H144056   6.575   5.386   0.184 -0.1308  2.4738 -0.5984
 7547TIP3    H244057   6.439   5.329   0.151  0.7732 -0.0248 -0.1822
 7548TIP3   OH244058   6.702   2.368  14.351 -0.3837 -0.1929 -0.8195
 7548TIP3    H144059   6.771   2.428  14.381 -1.0497  0.7312 -1.0653
 7548TIP3    H244060   6.749   2.289  14.324  0.6878  0.7125 -1.7719
 7549TIP3   OH244061   6.270   1.724  12.899  0.1860 -0.2789  0.0630
 7549TIP3    H144062   6.253   1.786  12.828  0.8068 -0.5405 -0.3282
 7549TIP3    H244063   6.302   1.778  12.971 -1.1243  0.0773  0.4128
 7550TIP3   OH244064   4.744   1.874   4.651 -0.1254 -0.5392  0.5650
 7550TIP3    H144065   4.838   1.877   4.637  0.1755 -1.1584  2.2668
 7550TIP3    H244066   4.715   1.964   4.639  0.9256 -0.0558  1.4763
 7551TIP3   OH244067   2.697   1.303   0.889  0.0249  0.1310 -0.1992
 7551TIP3    H144068   2.774   1.353   0.919  0.5439 -1.2903  0.9754
 7551TIP3    H244069   2.630   1.321   0.954  0.1012 -0.4088  0.0328
 7552TIP3   OH244070   2.959   0.308  14.469 -0.2417 -0.2127 -0.2245
 7552TIP3    H144071   2.892   0.283  14.533  0.8876  0.6700  1.3906
 7552TIP3    H244072   2.946   0.402  14.457  0.1394 -0.2046 -0.5917
 7553TIP3   OH244073   5.378   5.215  15.987 -0.4035  0.5159 -0.1041
 7553TIP3    H144074   5.308   5.171  16.035  2.2116 -2.5406  1.2837
 7553TIP3    H244075   5.400   5.154  15.917  0.9742  1.3345 -0.4075
 7554TIP3   OH244076   0.285   3.305  12.296  0.2292  0.8074  0.0397
 7554TIP3    H144077   0.285   3.295  12.391 -0.6003  0.1801 -0.0074
 7554TIP3    H244078   0.355   3.367  12.278  1.5156 -0.3445  0.9154
 7555TIP3   OH244079   2.216   1.714  14.836  0.4404 -0.5644  0.3101
 7555TIP3    H144080   2.235   1.620  14.833 -0.8457 -0.8816  1.2853
 7555TIP3    H244081   2.250   1.748  14.754  0.9027 -1.8896 -0.0716
 7556TIP3   OH244082   1.344   5.537   2.212  0.1924 -0.2017 -0.2241
 7556TIP3    H144083   1.353   5.592   2.290 -0.6577  0.2005 -0.3988
 7556TIP3    H244084   1.249   5.528   2.200  0.3186 -0.8780 -0.7829
 7557TIP3   OH244085   5.025   0.864   1.244 -0.8763 -0.0644  0.1797
 7557TIP3    H144086   5.120   0.865   1.250 -0.8421 -1.0212 -0.0349
 7557TIP3    H244087   4.999   0.782   1.286 -1.4465 -0.8242 -1.5558
 7558TIP3   OH244088   1.613   4.240   1.559  0.2091  0.3895  0.1297
 7558TIP3    H144089   1.528   4.197   1.564  1.2539 -1.8015  0.2916
 7558TIP3    H244090   1.672   4.182   1.606  1.6894  2.2334  0.7009
 7559TIP3   OH244091   1.357   4.729  13.051 -0.2490  0.2879 -0.0971
 7559TIP3    H144092   1.290   4.790  13.019 -0.9801  0.2478  1.2783
 7559TIP3    H244093   1.400   4.697  12.972 -1.6733  0.5294 -1.0052
 7560TIP3   OH244094   2.790   4.307  16.934  0.0069 -0.1753  0.1498
 7560TIP3    H144095   2.884   4.319  16.918  0.3086 -0.4201  1.5802
 7560TIP3    H244096   2.754   4.395  16.928  0.1952 -0.1660 -1.0910
 7561TIP3   OH244097   5.665   2.846   0.737 -0.0940 -0.0559 -0.1828
 7561TIP3    H144098   5.732   2.781   0.718  0.5443  0.8515 -1.1156
 7561TIP3    H244099   5.614   2.852   0.656 -0.7462 -0.0750  0.2186
 7562TIP3   OH244100   1.239   1.327  13.819 -0.0809 -0.6618 -0.3115
 7562TIP3    H144101   1.300   1.321  13.745  0.9119 -1.5363  0.5346
 7562TIP3    H244102   1.168   1.267  13.796 -1.0983  0.9694 -1.6785
 7563TIP3   OH244103   1.356   4.572   3.284 -0.0543  0.0327 -0.4821
 7563TIP3    H144104   1.355   4.628   3.362  0.3745  1.2830 -1.3459
 7563TIP3    H244105   1.305   4.619   3.219  1.5422  0.1605 -1.7026
 7564TIP3   OH244106   2.896   2.981  16.175  0.1463 -0.2904  0.3737
 7564TIP3    H144107   2.922   2.984  16.267 -0.1633 -0.2987  0.4622
 7564TIP3    H244108   2.963   2.926  16.133  3.2580  3.5807 -0.3825
 7565TIP3   OH244109   0.909   0.699  16.212 -0.0038 -0.1973  0.5012
 7565TIP3    H144110   0.840   0.672  16.152  0.3548 -0.8403  0.3632
 7565TIP3    H244111   0.893   0.792  16.229 -0.6192 -0.2314  0.1027
 7566TIP3   OH244112   4.031   2.543   2.432 -0.1309 -0.3000  0.1618
 7566TIP3    H144113   3.953   2.492   2.453  1.1715 -1.7093  1.8788
 7566TIP3    H244114   4.073   2.494   2.361 -0.5188  0.1794 -0.4092
 7567TIP3   OH244115   3.233   4.542   3.888  0.5957  0.1667 -0.1219
 7567TIP3    H144116   3.180   4.463   3.902  1.4138 -0.3325  0.2970
 7567TIP3    H244117   3.306   4.511   3.834  0.9891  0.6096  0.1545
 7568TIP3   OH244118   0.941   0.156  12.781  0.5837 -0.0136  0.8308
 7568TIP3    H144119   0.951   0.108  12.699 -0.0865 -0.3591  0.9394
 7568TIP3    H244120   1.007   0.119  12.839 -0.9957 -2.0326  1.4566
 7569TIP3   OH244121   5.432   4.377   4.706  0.2787 -0.1088 -0.1353
 7569TIP3    H144122   5.341   4.402   4.693  0.2344  0.8617  1.7507
 7569TIP3    H244123   5.427   4.286   4.738 -0.0637  0.0241  0.2066
 7570TIP3   OH244124   1.068   1.483   3.381 -0.3859  0.2373 -0.0636
 7570TIP3    H144125   1.061   1.469   3.476  2.6729 -1.2830  0.0721
 7570TIP3    H244126   1.080   1.578   3.372  0.4274  0.2877  1.2345
 7571TIP3   OH244127   3.077   5.928   0.666 -0.4430 -0.5239 -0.8130
 7571TIP3    H144128   2.990   5.913   0.703 -0.0443 -0.6253  0.1095
 7571TIP3    H244129   3.062   5.936   0.572 -1.7172  1.3859 -0.5002
 7572TIP3   OH244130   4.905   1.694   5.428  0.2969 -0.4200  0.4767
 7572TIP3    H144131   4.828   1.637   5.430  0.5965 -0.8646 -0.2473
 7572TIP3    H244132   4.967   1.652   5.488  0.1231 -0.2677  0.7674
 7573TIP3   OH244133   2.260   3.920   3.337  0.5906 -0.3397 -0.5194
 7573TIP3    H144134   2.288   3.949   3.424 -0.0832  1.2581 -0.8011
 7573TIP3    H244135   2.206   3.992   3.303  0.7358 -0.9718 -2.2162
 7574TIP3   OH244136   5.655   2.211   5.657  0.0910  0.0509  0.1382
 7574TIP3    H144137   5.625   2.265   5.584 -0.1271  0.2530  0.3769
 7574TIP3    H244138   5.688   2.274   5.721  0.5432 -0.1408  0.0963
 7575TIP3   OH244139   1.427   3.315  13.622  0.1050  0.2759 -0.5309
 7575TIP3    H144140   1.427   3.332  13.716 -0.0622  0.0989 -0.4978
 7575TIP3    H244141   1.431   3.401  13.581 -1.7026  0.4796 -0.3708
 7576TIP3   OH244142   3.254   6.184  16.149  0.3926  0.1469 -0.3509
 7576TIP3    H144143   3.284   6.210  16.062  0.7659  1.0147  0.0273
 7576TIP3    H244144   3.334   6.180  16.202 -0.0777  2.2991  0.6165
 7577TIP3   OH244145   2.092   5.743   5.850  0.6971 -0.4370  0.1172
 7577TIP3    H144146   2.152   5.796   5.902  0.1576  0.2260  0.0847
 7577TIP3    H244147   2.042   5.693   5.915  0.0865  0.3218  0.2459
 7578TIP3   OH244148   1.665   2.060  14.632 -0.3551  0.1489  0.4888
 7578TIP3    H144149   1.722   2.131  14.662  1.1677 -0.8151  0.0156
 7578TIP3    H244150   1.690   1.985  14.686  1.6410 -1.3281 -2.1852
 7579TIP3   OH244151   5.618   6.426   0.170 -0.0666  0.2983 -0.3271
 7579TIP3    H144152   5.605   6.331   0.169  0.8144  0.1717 -0.0100
 7579TIP3    H244153   5.646   6.448   0.082  0.0396  0.2211 -0.3120
 7580TIP3   OH244154   6.310   3.855  13.303  0.1253 -0.6228  0.6446
 7580TIP3    H144155   6.278   3.776  13.260  0.7666 -0.7535  0.3948
 7580TIP3    H244156   6.283   3.846  13.394  3.1325 -2.8439  1.4951
 7581TIP3   OH244157   1.690   1.295   2.580 -0.0216  0.2522  0.0164
 7581TIP3    H144158   1.683   1.205   2.549 -0.8509 -0.1584  1.3281
 7581TIP3    H244159   1.743   1.339   2.514 -1.3089 -0.6813 -1.7304
 7582TIP3   OH244160   3.045   5.032  14.751  0.0148 -0.3340 -0.0426
 7582TIP3    H144161   3.079   4.986  14.675  0.3347 -0.4085  0.1478
 7582TIP3    H244162   2.962   4.988  14.770  0.5402 -1.1283  0.4211
 7583TIP3   OH244163   1.987   5.324   2.590 -0.0185  0.2077  0.2760
 7583TIP3    H144164   1.948   5.242   2.561 -0.8488  0.8562 -0.4839
 7583TIP3    H244165   2.026   5.361   2.511  0.4451  0.5082  0.6352
 7584TIP3   OH244166   5.397   1.506   3.553 -0.0886 -0.5554 -0.2432
 7584TIP3    H144167   5.441   1.421   3.542  2.0284  0.1559  1.9667
 7584TIP3    H244168   5.462   1.570   3.526 -0.0904  0.5002  2.0572
 7585TIP3   OH244169   3.758   3.016   2.237 -0.0078  0.8088  0.0043
 7585TIP3    H144170   3.821   2.980   2.300 -1.0097  0.8964  1.0749
 7585TIP3    H244171   3.785   2.978   2.153  0.5033 -0.4190  0.6984
 7586TIP3   OH244172   4.221   1.188  11.376 -0.6547 -0.3118  0.0399
 7586TIP3    H144173   4.240   1.237  11.455  2.6255  1.2448 -1.5368
 7586TIP3    H244174   4.212   1.254  11.307 -1.1091 -1.7039 -1.3053
 7587TIP3   OH244175   5.800   6.334   5.559  0.8095 -0.3257 -0.6398
 7587TIP3    H144176   5.714   6.310   5.593  1.1318  0.1898  0.5876
 7587TIP3    H244177   5.812   6.425   5.587  2.3340 -0.8217  0.4472
 7588TIP3   OH244178   5.165   6.684   1.746 -0.1529 -0.1722  0.0408
 7588TIP3    H144179   5.089   6.732   1.779  0.0229  1.1430 -1.3488
 7588TIP3    H244180   5.235   6.750   1.743  0.2277 -0.6022 -1.4470
 7589TIP3   OH244181   6.411   2.191  14.086  0.0137  0.0759  0.0361
 7589TIP3    H144182   6.458   2.138  14.150  2.4060  0.0358 -1.6184
 7589TIP3    H244183   6.372   2.128  14.026  0.3743  0.1415 -0.2701
 7590TIP3   OH244184   1.245   3.622   4.893 -0.5535 -0.0717 -0.1651
 7590TIP3    H144185   1.231   3.576   4.811 -2.3883 -1.1720  0.6913
 7590TIP3    H244186   1.320   3.578   4.933 -0.9008 -0.8573 -0.3664
 7591TIP3   OH244187   3.921   1.120  17.213  0.4320 -0.1849  0.4465
 7591TIP3    H144188   3.999   1.120  17.158  1.1941  1.6093  1.4386
 7591TIP3    H244189   3.850   1.146  17.155  1.1231  1.1348  0.1574
 7592TIP3   OH244190   3.725   0.661  13.379  0.2250  0.3934 -0.1648
 7592TIP3    H144191   3.738   0.707  13.462 -2.4277 -1.4397  1.4248
 7592TIP3    H244192   3.813   0.650  13.343  1.3729  1.9803  1.9698
 7593TIP3   OH244193   4.016   3.405  13.070  0.2570 -0.1431 -0.2122
 7593TIP3    H144194   4.013   3.389  12.975 -0.5724  0.1931 -0.2542
 7593TIP3    H244195   3.934   3.367  13.102  0.4359 -0.0598  0.3424
 7594TIP3   OH244196   3.325   6.471   6.552  0.9763  0.2610 -0.9702
 7594TIP3    H144197   3.350   6.464   6.460  1.8082  2.9229 -1.0219
 7594TIP3    H244198   3.406   6.497   6.597  0.6547 -1.2827  0.5903
 7595TIP3   OH244199   3.464   5.773  16.940  0.5825 -0.4439 -0.0810
 7595TIP3    H144200   3.488   5.827  17.016 -2.7600  3.1380 -1.2327
 7595TIP3    H244201   3.530   5.793  16.874  1.6656 -1.0530  0.7759
 7596TIP3   OH244202   4.912   6.276   2.492  0.1747  0.7687  0.3908
 7596TIP3    H144203   4.939   6.200   2.440 -0.3296  0.7804  0.1071
 7596TIP3    H244204   4.974   6.278   2.565 -0.7347 -0.8733  1.2762
 7597TIP3   OH244205   5.744   3.691  16.576 -0.1602  0.0183  0.1357
 7597TIP3    H144206   5.746   3.600  16.606 -1.0516 -0.0676 -0.0501
 7597TIP3    H244207   5.770   3.741  16.654 -0.8546 -0.3175  0.5986
 7598TIP3   OH244208   5.217   1.759   2.192  0.1929 -0.5579 -0.0703
 7598TIP3    H144209   5.125   1.780   2.211 -0.1789 -0.7509 -1.5274
 7598TIP3    H244210   5.261   1.843   2.188 -0.1495 -0.3941 -0.4486
 7599TIP3   OH244211   4.109   2.831  13.254  0.4981 -0.0483  0.2979
 7599TIP3    H144212   4.040   2.765  13.264  1.0104 -0.6350  0.0525
 7599TIP3    H244213   4.065   2.908  13.219 -0.3188  0.1305  1.6516
 7600TIP3   OH244214   0.854   3.528   7.024 -0.3822 -0.3977 -0.2612
 7600TIP3    H144215   0.948   3.523   7.006 -0.1070 -2.3349  1.4001
 7600TIP3    H244216   0.813   3.485   6.949 -0.0875  1.3826 -1.5170
 7601TIP3   OH244217   6.449   6.374  13.068  0.0561  0.3460 -0.1052
 7601TIP3    H144218   6.517   6.405  13.128  0.4881 -0.3055 -0.2432
 7601TIP3    H244219   6.371   6.363  13.122  0.7455 -1.3561  0.6064
 7602TIP3   OH244220   6.477   2.333   0.995 -0.5428 -0.4073 -0.4476
 7602TIP3    H144221   6.415   2.385   0.943  0.1774  0.7159 -0.2118
 7602TIP3    H244222   6.562   2.373   0.978  0.0617 -1.6252 -0.3797
 7603TIP3   OH244223   5.371   0.856  16.973  0.0305  0.4931  0.6912
 7603TIP3    H144224   5.381   0.817  17.059  0.5259 -2.3978 -0.5514
 7603TIP3    H244225   5.297   0.810  16.934  1.3656 -0.1477 -1.2977
 7604TIP3   OH244226   1.663   6.083   4.146 -1.1828  0.2658  0.0619
 7604TIP3    H144227   1.707   6.019   4.202 -1.9987 -0.1777  0.2215
 7604TIP3    H244228   1.626   6.147   4.207 -2.2183 -0.3098  0.0732
 7605TIP3   OH244229   4.053   5.719   2.948  0.0740  0.1520 -0.1792
 7605TIP3    H144230   4.009   5.782   2.891 -2.2623  0.6759  2.0040
 7605TIP3    H244231   3.981   5.669   2.987  1.4220  0.4336  2.9093
 7606TIP3   OH244232   6.512   3.570  12.126 -0.4301 -0.3959 -0.3568
 7606TIP3    H144233   6.555   3.656  12.134 -1.7505  0.2455  0.1315
 7606TIP3    H244234   6.518   3.532  12.214 -0.3079 -0.5708 -0.4414
 7607TIP3   OH244235   6.178   0.128   3.419 -0.1028  0.3487  0.1910
 7607TIP3    H144236   6.105   0.130   3.356  1.0992  1.9245 -1.2321
 7607TIP3    H244237   6.179   0.215   3.458  0.7760  0.2057  0.5081
 7608TIP3   OH244238   2.684   1.497   5.428  0.6789 -0.5956  0.6899
 7608TIP3    H144239   2.757   1.547   5.464 -0.2440  0.9831  0.4501
 7608TIP3    H244240   2.606   1.539   5.464 -0.2472  0.1928 -1.9904
 7609TIP3   OH244241   5.898   0.190   4.310 -0.0123  0.2686  0.0119
 7609TIP3    H144242   5.981   0.142   4.303  0.1770 -0.4371  4.2635
 7609TIP3    H244243   5.831   0.122   4.310 -0.3900  0.6293 -0.8223
 7610TIP3   OH244244   1.499   0.968   1.081  0.2452 -0.3964 -0.2771
 7610TIP3    H144245   1.554   0.949   1.005 -0.5342  0.7784 -1.1814
 7610TIP3    H244246   1.488   0.884   1.125  1.1290 -1.0058 -1.1896
 7611TIP3   OH244247   0.450   2.179   4.199 -0.0736  0.7065 -0.1168
 7611TIP3    H144248   0.427   2.272   4.197  2.2266  1.3479  0.3034
 7611TIP3    H244249   0.507   2.170   4.275  1.0175 -0.7314 -1.0486
 7612TIP3   OH244250   0.419   3.570  12.518  0.1868 -0.1602 -0.4810
 7612TIP3    H144251   0.449   3.549  12.430 -2.4448 -1.1783 -1.2232
 7612TIP3    H244252   0.389   3.661  12.512  1.0688  0.1497 -0.3060
 7613TIP3   OH244253   0.842   2.070  14.036 -0.2751  0.0877 -0.4725
 7613TIP3    H144254   0.929   2.072  14.077 -0.2963  1.1988 -0.4469
 7613TIP3    H244255   0.855   2.112  13.951 -0.7018 -0.1268 -0.6439
 7614TIP3   OH244256   0.117   0.425   0.380  0.2117  0.3349 -0.6158
 7614TIP3    H144257   0.139   0.469   0.462  0.1262  2.4705 -1.6652
 7614TIP3    H244258   0.064   0.489   0.332 -0.3022 -1.1051 -2.0675
 7615TIP3   OH244259   0.207   5.702   3.496  0.6409  0.0776 -0.0795
 7615TIP3    H144260   0.248   5.785   3.472  0.4448  0.1928 -0.0214
 7615TIP3    H244261   0.268   5.661   3.557  0.4057  0.5093  0.4569
 7616TIP3   OH244262   4.020   3.381  12.234 -0.5325 -0.5558 -0.0763
 7616TIP3    H144263   4.007   3.423  12.149  0.7655  1.1828  0.5149
 7616TIP3    H244264   4.053   3.451  12.290  2.8178 -2.5660  0.7190
 7617TIP3   OH244265   6.195   3.969   4.680  0.6483 -1.1004  0.0835
 7617TIP3    H144266   6.201   4.046   4.737 -0.2219 -0.8535 -0.1325
 7617TIP3    H244267   6.105   3.939   4.692  0.4332 -1.0043 -1.2029
 7618TIP3   OH244268   0.811   2.909   2.856 -0.1192  0.5768 -0.1684
 7618TIP3    H144269   0.805   2.839   2.790  0.8746 -1.0163  1.3166
 7618TIP3    H244270   0.883   2.880   2.913 -1.3482  1.5590  1.9589
 7619TIP3   OH244271   1.441   6.431   5.246 -0.0296  0.5128  0.0868
 7619TIP3    H144272   1.373   6.364   5.244  1.2981 -0.8867  0.2371
 7619TIP3    H244273   1.424   6.485   5.168  0.5927 -1.8100 -1.7597
 7620TIP3   OH244274   5.318   4.605   2.485  0.3339 -0.0659  0.6621
 7620TIP3    H144275   5.309   4.700   2.483  0.6513 -0.0370  0.4332
 7620TIP3    H244276   5.250   4.573   2.425  0.5992  0.0506  0.2945
 7621TIP3   OH244277   4.665   1.103   2.016 -0.1931 -0.0126  0.3040
 7621TIP3    H144278   4.600   1.071   2.079 -0.1539 -0.2162  0.2401
 7621TIP3    H244279   4.699   1.024   1.974  0.7853  0.0230  1.0090
 7622TIP3   OH244280   0.504   3.834  14.184 -0.0035  0.0436 -0.4450
 7622TIP3    H144281   0.599   3.830  14.193 -0.1168  1.3796  2.9524
 7622TIP3    H244282   0.471   3.821  14.273 -2.7464  3.7710 -0.6651
 7623TIP3   OH244283   6.734   3.478  15.890 -0.0514  0.1365  0.2601
 7623TIP3    H144284   6.682   3.401  15.868  0.4660  0.0573 -0.7305
 7623TIP3    H244285   6.824   3.446  15.895  0.1776  0.6885 -0.2505
 7624TIP3   OH244286   1.942   4.118   5.807 -0.0803 -0.8151 -0.1879
 7624TIP3    H144287   1.929   4.211   5.826 -1.3691 -1.0282  0.0947
 7624TIP3    H244288   1.894   4.103   5.725  0.3321 -1.1769 -0.3658
 7625TIP3   OH244289   6.070   3.659   1.495 -0.5348 -0.1917  0.1686
 7625TIP3    H144290   6.066   3.732   1.557 -1.0604  1.5024 -1.7555
 7625TIP3    H244291   6.081   3.581   1.550  2.2221  1.4613  2.2269
 7626TIP3   OH244292   0.769   1.530   1.372  0.0554  0.1173  0.5556
 7626TIP3    H144293   0.675   1.550   1.369 -0.0185 -0.3035 -2.3004
 7626TIP3    H244294   0.809   1.590   1.309  1.3474 -1.4194 -0.1460
 7627TIP3   OH244295   3.036   6.331   0.103  0.4042  0.4747  0.3416
 7627TIP3    H144296   3.053   6.410   0.051 -0.9162  1.0958  0.7977
 7627TIP3    H244297   2.983   6.276   0.046  3.4015 -1.3229 -0.9650
 7628TIP3   OH244298   1.163   1.766  14.268  0.6926  0.5108 -0.0858
 7628TIP3    H144299   1.233   1.713  14.306 -0.6400  0.6671  2.8644
 7628TIP3    H244300   1.125   1.711  14.199  2.4392 -0.3263 -0.4330
 7629TIP3   OH244301   0.409   4.541  14.094  0.7016  0.2065  0.5198
 7629TIP3    H144302   0.314   4.553  14.089  0.8640  1.2345 -1.0024
 7629TIP3    H244303   0.423   4.449  14.071  0.0959  0.1328  0.4251
 7630TIP3   OH244304   1.892   1.761   1.768  0.0347 -0.1265  0.2538
 7630TIP3    H144305   1.924   1.847   1.741  0.5231  0.0058  1.2039
 7630TIP3    H244306   1.802   1.757   1.736 -1.4443  2.3903  3.5496
 7631TIP3   OH244307   6.152   0.051  13.726  0.4883  0.0421 -0.7119
 7631TIP3    H144308   6.093   0.085  13.794  1.5827 -0.5332  0.5879
 7631TIP3    H244309   6.237   0.090  13.748  0.9332 -0.4375 -1.5493
 7632TIP3   OH244310   3.480   1.491   4.848  0.2404 -0.8276 -0.1706
 7632TIP3    H144311   3.471   1.492   4.753  1.3635 -1.3096 -0.3033
 7632TIP3    H244312   3.391   1.499   4.881 -0.1648 -0.7041 -1.2639
 7633TIP3   OH244313   3.088   6.414   4.068 -0.0745  0.0906 -0.0874
 7633TIP3    H144314   3.027   6.421   4.142  0.2200  0.4554  0.1235
 7633TIP3    H244315   3.147   6.489   4.078  1.2959 -1.0040  0.5240
 7634TIP3   OH244316   2.214   0.192  12.632  0.3660 -0.6256  0.0531
 7634TIP3    H144317   2.166   0.211  12.714  2.0667 -1.6780  1.3543
 7634TIP3    H244318   2.236   0.099  12.639  1.1949 -0.5371 -1.2700
 7635TIP3   OH244319   1.533   1.052   0.668  0.1522  0.3182  0.3048
 7635TIP3    H144320   1.485   0.983   0.714 -0.8439 -0.1305 -1.3233
 7635TIP3    H244321   1.624   1.022   0.667 -0.0726 -0.3994  0.6366
 7636TIP3   OH244322   3.416   3.987   5.864 -0.2778 -0.3770 -0.3553
 7636TIP3    H144323   3.349   3.920   5.855 -0.9557  0.2510 -0.0278
 7636TIP3    H244324   3.432   3.993   5.958 -1.7952  1.4222 -0.1551
 7637TIP3   OH244325   5.856   6.478  14.084 -0.3402  0.6384 -0.0219
 7637TIP3    H144326   5.854   6.464  14.179 -0.5727  2.0032  0.1916
 7637TIP3    H244327   5.930   6.537  14.070  0.4639 -0.5058 -0.8596
 7638TIP3   OH244328   2.319   4.082   0.015 -0.4126  0.9044  0.4655
 7638TIP3    H144329   2.275   4.103  -0.068  1.5861  2.8121 -0.2099
 7638TIP3    H244330   2.342   3.990   0.007 -1.4266  0.7048 -0.5020
 7639TIP3   OH244331   6.681   4.182  16.723 -0.4598 -0.2420  0.3689
 7639TIP3    H144332   6.618   4.154  16.657  0.4000  2.7979 -1.9740
 7639TIP3    H244333   6.746   4.112  16.725  0.2524  0.1134 -3.2417
 7640TIP3   OH244334   4.632   4.521   1.184  0.1797 -0.5975  0.7387
 7640TIP3    H144335   4.622   4.515   1.089  0.2073  2.7890  0.4067
 7640TIP3    H244336   4.726   4.522   1.199  0.1820 -1.7719  0.9123
 7641TIP3   OH244337   6.242   5.164  14.390  0.4729  0.7261 -0.0880
 7641TIP3    H144338   6.261   5.157  14.484 -3.1448 -0.6892  0.6772
 7641TIP3    H244339   6.210   5.078  14.365  2.4475  0.6667 -3.0503
 7642TIP3   OH244340   0.160   6.206  11.548 -0.1846  0.0847 -0.6010
 7642TIP3    H144341   0.173   6.265  11.474 -1.8118 -0.1313 -1.1042
 7642TIP3    H244342   0.071   6.172  11.536  0.9516 -3.2134 -0.9019
 7643TIP3   OH244343   1.563   6.329   3.681 -0.8200  0.2573 -0.5783
 7643TIP3    H144344   1.487   6.287   3.640 -0.3709 -0.6395 -0.5145
 7643TIP3    H244345   1.547   6.323   3.775 -1.7470  2.1249 -0.5612
 7644TIP3   OH244346   1.636   3.493  11.638  0.4638 -0.3119  0.2091
 7644TIP3    H144347   1.730   3.498  11.658  0.5287  1.1275 -0.4053
 7644TIP3    H244348   1.624   3.550  11.563 -1.2927  1.3167  1.6465
 7645TIP3   OH244349   2.410   6.086   3.525 -0.0599 -0.4312 -0.1142
 7645TIP3    H144350   2.322   6.100   3.561  0.4349  0.6090  0.7498
 7645TIP3    H244351   2.395   6.060   3.434 -1.2634 -0.4749  0.0796
 7646TIP3   OH244352   3.343   0.918   2.390  0.2792 -0.1979 -0.1250
 7646TIP3    H144353   3.317   0.848   2.330  0.5216 -2.0235  1.7720
 7646TIP3    H244354   3.433   0.897   2.414  0.9893  1.7918 -0.8085
 7647TIP3   OH244355   5.022   5.649  13.721 -0.2152  0.3300  0.0932
 7647TIP3    H144356   5.058   5.562  13.705  2.9788  1.5713 -0.1522
 7647TIP3    H244357   5.051   5.671  13.810  0.1721  1.6419 -0.3396
 7648TIP3   OH244358   1.417   2.630  13.811 -0.2157  0.1775  0.4062
 7648TIP3    H144359   1.464   2.549  13.835 -1.1002  0.1541  2.2626
 7648TIP3    H244360   1.486   2.690  13.785  0.4435 -1.2625 -1.4163
 7649TIP3   OH244361   3.310   0.182   1.977  0.5849 -0.1515 -0.2174
 7649TIP3    H144362   3.342   0.092   1.969  4.0457  0.9885 -1.0688
 7649TIP3    H244363   3.274   0.203   1.891 -0.9698 -0.8986  0.2164
 7650TIP3   OH244364   0.525   0.357  16.595  0.3094 -0.2364  0.4300
 7650TIP3    H144365   0.430   0.373  16.593  0.6597  2.1447 -1.1120
 7650TIP3    H244366   0.553   0.387  16.681 -0.2499 -0.3667  0.6604
 7651TIP3   OH244367   1.439   2.411  11.521  0.6495  0.1566 -0.0129
 7651TIP3    H144368   1.438   2.316  11.535 -0.0712  0.3468  1.4077
 7651TIP3    H244369   1.436   2.421  11.426 -1.1883 -1.2400 -0.1494
 7652TIP3   OH244370   6.660   5.290  15.154 -0.1875  0.7470  0.8182
 7652TIP3    H144371   6.696   5.202  15.165 -0.2425  0.4569 -0.9980
 7652TIP3    H244372   6.567   5.275  15.138 -0.1893  1.1253  0.4763
 7653TIP3   OH244373   4.749   3.143  17.237  0.0012 -0.3240 -0.5564
 7653TIP3    H144374   4.769   3.186  17.321  1.5937 -0.5815 -0.7570
 7653TIP3    H244375   4.690   3.072  17.259  0.0255 -0.0923  0.2870
 7654TIP3   OH244376   1.519   6.576   3.221 -0.1197 -0.0720  0.0847
 7654TIP3    H144377   1.600   6.527   3.227  0.2366  0.6470  2.0382
 7654TIP3    H244378   1.535   6.641   3.152  1.6084  1.1124  1.5153
 7655TIP3   OH244379   4.123   1.148   3.115 -0.0501  0.3228  0.4283
 7655TIP3    H144380   4.124   1.115   3.205  0.1775 -0.6511  0.0769
 7655TIP3    H244381   4.212   1.178   3.100  0.0676 -0.0762  0.3257
 7656TIP3   OH244382   5.435   1.461  13.092  0.4467  0.1369  0.3083
 7656TIP3    H144383   5.450   1.554  13.074  3.9703 -0.1988  0.6189
 7656TIP3    H244384   5.486   1.444  13.172 -1.2169 -1.8175  1.0380
 7657TIP3   OH244385   5.177   2.375   2.608  0.5751  0.2125 -0.0746
 7657TIP3    H144386   5.170   2.303   2.546 -0.3118  0.2269 -0.0071
 7657TIP3    H244387   5.134   2.448   2.565 -0.7137  0.0233  0.8304
 7658TIP3   OH244388   2.763   2.943   0.457 -0.3954  0.1696 -0.1364
 7658TIP3    H144389   2.746   2.879   0.526 -0.0974  0.0138 -0.2089
 7658TIP3    H244390   2.777   2.890   0.378  1.5188  0.2259  0.1191
 7659TIP3   OH244391   1.337   1.550  14.344 -0.5224  0.1092 -0.3168
 7659TIP3    H144392   1.414   1.575  14.293 -1.1387  1.0829 -0.7894
 7659TIP3    H244393   1.364   1.564  14.435 -0.5672  1.7907 -0.5297
 7660TIP3   OH244394   2.746   5.263   4.411 -0.3775  0.0411 -0.0202
 7660TIP3    H144395   2.839   5.246   4.401 -0.1287  0.8914  0.7410
 7660TIP3    H244396   2.735   5.282   4.504 -1.2534  0.3149 -0.1704
 7661TIP3   OH244397   2.206   1.552  11.492 -0.3096  0.2608  0.4963
 7661TIP3    H144398   2.147   1.566  11.418  0.1721  0.3403  0.1260
 7661TIP3    H244399   2.290   1.531  11.453 -0.8854 -3.6896  0.9521
 7662TIP3   OH244400   3.536   5.993   2.309  0.2483  0.0702 -0.5041
 7662TIP3    H144401   3.468   6.047   2.268 -1.8917 -1.0052  1.3924
 7662TIP3    H244402   3.594   6.057   2.351 -1.0143  0.9847 -0.0831
 7663TIP3   OH244403   0.745   0.045   5.428  0.4235  0.1072 -0.1056
 7663TIP3    H144404   0.737  -0.047   5.455  1.6997  0.4196  1.4958
 7663TIP3    H244405   0.839   0.060   5.421  0.2398  0.4382 -3.7139
 7664TIP3   OH244406   3.428   6.438  17.334  0.0336  0.5338  0.2315
 7664TIP3    H144407   3.445   6.481  17.418  0.1801  0.7734  0.0812
 7664TIP3    H244408   3.498   6.469  17.276 -1.5150  2.4196 -0.7223
 7665TIP3   OH244409   0.062   4.965   5.606  0.4049  0.5202  0.2035
 7665TIP3    H144410  -0.027   4.932   5.614 -0.1259  2.2733  2.1847
 7665TIP3    H244411   0.118   4.889   5.623 -0.7246 -0.0964  1.2463
 7666TIP3   OH244412   2.933   4.695   3.457 -0.3618 -0.4282 -0.3933
 7666TIP3    H144413   3.023   4.669   3.434 -0.8172 -1.6200 -0.9052
 7666TIP3    H244414   2.878   4.629   3.415 -1.5939  1.3215 -1.6353
 7667TIP3   OH244415   4.752   6.180  12.176  0.0443  0.2176 -0.5426
 7667TIP3    H144416   4.679   6.211  12.229  0.7744  1.5340 -0.2722
 7667TIP3    H244417   4.827   6.183  12.234  0.6751  0.7267 -1.3653
 7668TIP3   OH244418   0.064   5.028  11.321 -0.1200  0.7287  0.6907
 7668TIP3    H144419   0.118   4.988  11.253 -2.2153 -1.6383  0.2340
 7668TIP3    H244420   0.039   5.113  11.286  0.6955  0.5092 -0.4704
 7669TIP3   OH244421   0.232   3.659  12.849 -0.4957 -0.1987  0.2589
 7669TIP3    H144422   0.313   3.612  12.830  0.1851  1.4097 -1.0462
 7669TIP3    H244423   0.171   3.630  12.781  0.7301  2.6073 -2.2380
 7670TIP3   OH244424   5.786   1.469  13.694  0.4089 -0.3376  0.7359
 7670TIP3    H144425   5.740   1.444  13.774  1.9248 -3.4180  0.7832
 7670TIP3    H244426   5.826   1.388  13.663  1.7547  1.2142 -1.9411
 7671TIP3   OH244427   2.112   2.599  13.729 -0.2050 -0.6170 -0.2995
 7671TIP3    H144428   2.054   2.633  13.797 -0.5160 -1.0005 -0.3710
 7671TIP3    H244429   2.197   2.640  13.747 -0.7877  0.9565 -0.9534
 7672TIP3   OH244430   6.279   6.212   3.916  0.6044  0.3764  0.1785
 7672TIP3    H144431   6.184   6.222   3.917  0.6705  1.4552  2.8085
 7672TIP3    H244432   6.293   6.119   3.937  0.1745  0.0737 -0.7887
 7673TIP3   OH244433   6.622   6.290   1.060 -0.0418  0.1848 -0.0861
 7673TIP3    H144434   6.691   6.224   1.058  0.0936  0.3512 -1.0823
 7673TIP3    H244435   6.617   6.316   1.152  0.7549 -0.3214  0.1088
 7674TIP3   OH244436   4.485   1.320   1.755  0.2553 -0.6971  1.1486
 7674TIP3    H144437   4.512   1.284   1.670 -1.0139  0.4649  0.1852
 7674TIP3    H244438   4.504   1.414   1.748 -0.0355 -0.5627  2.0691
 7675TIP3   OH244439   0.637   4.133   3.143 -0.4712 -0.2929 -0.7028
 7675TIP3    H144440   0.677   4.046   3.137  0.4245  0.0988 -0.6087
 7675TIP3    H244441   0.632   4.151   3.237  3.3742  1.4999 -0.6622
 7676TIP3   OH244442   0.646   5.840   0.607 -0.8752  0.1039 -0.2350
 7676TIP3    H144443   0.681   5.753   0.625 -1.0959  0.3611  1.6948
 7676TIP3    H244444   0.555   5.836   0.638 -1.4103  0.5401 -1.6912
 7677TIP3   OH244445   5.853   3.683  14.999  0.2423  0.6500  0.1558
 7677TIP3    H144446   5.793   3.613  14.972  0.7987  0.5005 -0.7562
 7677TIP3    H244447   5.850   3.746  14.926 -0.5120  1.7640  1.1117
 7678TIP3   OH244448   6.470   1.445   2.429  0.2785 -0.5651 -0.3926
 7678TIP3    H144449   6.491   1.377   2.493 -0.7788 -0.7847 -0.2636
 7678TIP3    H244450   6.550   1.456   2.378  1.3135 -0.0442  1.2590
 7679TIP3   OH244451   5.098   1.682   5.200 -0.1725  0.3437 -0.4878
 7679TIP3    H144452   5.040   1.715   5.269  1.0093 -0.9869  1.2274
 7679TIP3    H244453   5.038   1.646   5.134 -1.3407  0.1559  0.6240
 7680TIP3   OH244454   0.057   3.910   3.005 -0.2233  0.1427 -0.3419
 7680TIP3    H144455   0.110   3.885   3.081 -0.7448 -2.1602 -0.6554
 7680TIP3    H244456   0.081   3.847   2.937 -3.1656 -0.8771 -0.5660
 7681TIP3   OH244457   4.133   2.210   3.425 -0.1822 -0.1505 -0.8125
 7681TIP3    H144458   4.224   2.198   3.399 -0.3797  0.0363 -1.5993
 7681TIP3    H244459   4.098   2.121   3.434  1.0410 -0.4496  3.1385
 7682TIP3   OH244460   1.957   2.444  17.283  0.4509 -0.0159 -0.0800
 7682TIP3    H144461   1.865   2.425  17.301  0.8312  0.0876  2.3722
 7682TIP3    H244462   1.959   2.538  17.264  0.1509  0.2157  0.9671
 7683TIP3   OH244463   6.188   5.397   1.500  0.4775 -0.8490  0.2739
 7683TIP3    H144464   6.214   5.488   1.505 -0.3204 -0.7007  3.2656
 7683TIP3    H244465   6.260   5.348   1.541 -1.0584 -1.0235  2.9592
 7684TIP3   OH244466   6.415   5.819  16.517 -0.0705  0.2267  0.3619
 7684TIP3    H144467   6.428   5.789  16.607  2.4684  1.1464  0.4057
 7684TIP3    H244468   6.335   5.872  16.520  0.9205  1.7614  2.5588
 7685TIP3   OH244469   3.447   0.611   3.527  0.3731 -0.2119  0.0943
 7685TIP3    H144470   3.421   0.676   3.593 -0.2242 -1.0939  0.7426
 7685TIP3    H244471   3.367   0.561   3.509  0.8212 -0.7597 -0.4066
 7686TIP3   OH244472   2.142   2.990  14.652 -0.2672  0.3285 -0.2817
 7686TIP3    H144473   2.237   2.992  14.639 -0.3925  1.3621 -1.2260
 7686TIP3    H244474   2.125   3.063  14.711 -0.7096  1.8809 -2.2141
 7687TIP3   OH244475   6.440   4.537  13.160  0.0837  0.7049  0.0459
 7687TIP3    H144476   6.501   4.606  13.186 -0.0576  0.8778 -0.0783
 7687TIP3    H244477   6.400   4.508  13.242 -0.0029  0.9105  0.0760
 7688TIP3   OH244478   4.595   0.349  13.778 -0.3774  0.4301  0.3624
 7688TIP3    H144479   4.654   0.278  13.755 -0.2728  0.3065  0.9959
 7688TIP3    H244480   4.551   0.320  13.858 -1.1758  0.5902 -0.0055
 7689TIP3   OH244481   1.501   2.333  12.203 -0.5768 -0.2675  0.3167
 7689TIP3    H144482   1.441   2.289  12.143  0.1119 -0.2976 -0.3785
 7689TIP3    H244483   1.455   2.412  12.231 -0.3227  0.5642 -1.4909
 7690TIP3   OH244484   2.160   0.258  17.445  0.3470 -0.2003  0.0335
 7690TIP3    H144485   2.218   0.322  17.404  0.2827 -0.4366 -0.4316
 7690TIP3    H244486   2.095   0.238  17.378 -0.1029 -0.1589  0.4505
 7691TIP3   OH244487   0.415   5.096  15.971 -0.0742 -0.1502  0.2486
 7691TIP3    H144488   0.370   5.135  15.896  0.1157  0.2648  0.3459
 7691TIP3    H244489   0.376   5.138  16.048  0.8199  0.6138  0.3152
 7692TIP3   OH244490   5.618   0.756   1.604 -0.3579 -0.1177  0.0040
 7692TIP3    H144491   5.707   0.762   1.638 -0.6976  0.2560  0.8551
 7692TIP3    H244492   5.599   0.844   1.572 -0.4730 -0.1601 -0.0418
 7693TIP3   OH244493   4.861   1.855  12.328  0.4492  0.5401  0.0236
 7693TIP3    H144494   4.872   1.770  12.370  0.4401 -0.3135 -1.6406
 7693TIP3    H244495   4.802   1.903  12.386 -0.8460 -1.1765  0.1954
 7694TIP3   OH244496   5.815   3.873  15.565  0.0466 -0.1728 -0.1267
 7694TIP3    H144497   5.798   3.811  15.494  3.1782 -0.3117 -0.8703
 7694TIP3    H244498   5.802   3.959  15.525 -3.1792 -0.1711  0.6100
 7695TIP3   OH244499   4.069   4.018   3.293 -0.2065 -0.4063 -0.4923
 7695TIP3    H144500   3.998   4.076   3.266 -0.5773 -1.0112 -0.8470
 7695TIP3    H244501   4.139   4.034   3.229  0.6546  1.3748  0.7786
 7696TIP3   OH244502   3.198   0.712   0.638 -0.2828  0.1578  0.5269
 7696TIP3    H144503   3.211   0.721   0.732 -1.6195 -0.2970  0.7849
 7696TIP3    H244504   3.225   0.796   0.601  1.5233 -0.1163  1.1357
 7697TIP3   OH244505   1.729   6.636  15.177  0.4125  0.1939 -0.7465
 7697TIP3    H144506   1.782   6.649  15.098  1.5994  0.8682  0.1207
 7697TIP3    H244507   1.763   6.700  15.239  0.0666 -0.8709  0.5883
 7698TIP3   OH244508   0.661   2.777   3.254 -0.3447  0.1081  0.6417
 7698TIP3    H144509   0.659   2.873   3.257  1.0940  0.1958 -0.3523
 7698TIP3    H244510   0.604   2.750   3.326 -1.7603  1.6963  0.1771
 7699TIP3   OH244511   4.565   6.001   1.520  0.7016 -0.6249  0.0391
 7699TIP3    H144512   4.532   6.039   1.602 -1.4790  0.4172 -1.2512
 7699TIP3    H244513   4.579   6.076   1.463  1.4784 -1.4076 -0.8328
 7700TIP3   OH244514   1.068   3.482  13.202  0.1130  0.0400  0.0690
 7700TIP3    H144515   1.014   3.539  13.147  0.5387  0.3867  0.0003
 7700TIP3    H244516   1.107   3.419  13.140 -0.5723 -0.5048  0.1821
 7701TIP3   OH244517   1.249   1.938   4.439  0.3968  0.4320  0.6054
 7701TIP3    H144518   1.318   1.882   4.476 -0.7178 -0.6494  1.1147
 7701TIP3    H244519   1.252   2.018   4.491 -0.6164 -0.7423  2.5637
 7702TIP3   OH244520   3.751   2.740  11.824  0.2971  0.2070 -0.0378
 7702TIP3    H144521   3.823   2.802  11.819  1.6068 -1.1973  0.6213
 7702TIP3    H244522   3.756   2.703  11.913 -1.2480  0.0791  0.0345
 7703TIP3   OH244523   6.315   0.298   5.027 -0.0311 -0.0479 -0.2707
 7703TIP3    H144524   6.354   0.261   4.947  2.4729  1.9649 -0.1109
 7703TIP3    H244525   6.249   0.360   4.994  1.7822  1.6461 -0.9595
 7704TIP3   OH244526   5.846   6.553  11.304  0.3288  0.1660  0.1913
 7704TIP3    H144527   5.859   6.510  11.219 -0.1671  0.8357 -0.2242
 7704TIP3    H244528   5.795   6.490  11.354 -1.0826  0.5678 -0.6866
 7705TIP3   OH244529   0.987   6.633   2.197  0.4852 -0.4569 -0.3575
 7705TIP3    H144530   0.937   6.563   2.238  0.5622 -1.1597 -1.4133
 7705TIP3    H244531   1.060   6.649   2.257 -0.5471  0.0374  0.8070
 7706TIP3   OH244532   4.794   4.936  11.957 -0.2057  0.2515 -0.1106
 7706TIP3    H144533   4.760   5.017  11.994  0.0132 -0.6640  2.2547
 7706TIP3    H244534   4.738   4.868  11.992  0.2133 -0.7350 -1.2826
 7707TIP3   OH244535   3.687   5.682   2.709 -0.0679 -0.1032 -0.7822
 7707TIP3    H144536   3.766   5.712   2.666  0.7490  0.5342  1.0773
 7707TIP3    H244537   3.616   5.730   2.666  0.9951  2.9391  0.6196
 7708TIP3   OH244538   6.431   6.155   2.228  0.4757  0.0456  0.1556
 7708TIP3    H144539   6.420   6.108   2.145 -0.8952  2.0474 -0.8994
 7708TIP3    H244540   6.345   6.194   2.245  1.7616  3.1434  0.2647
 7709TIP3   OH244541   5.232   6.379  12.739 -0.3405 -0.4222  0.2955
 7709TIP3    H144542   5.327   6.376  12.726 -0.3135 -0.3372  0.4655
 7709TIP3    H244543   5.217   6.325  12.817 -0.5196 -1.0826 -0.1908
 7710TIP3   OH244544   5.141   3.878  15.307  0.1077 -0.0868  0.0235
 7710TIP3    H144545   5.073   3.920  15.360 -1.1022 -1.3207 -0.4788
 7710TIP3    H244546   5.108   3.882  15.218  0.2539 -1.4860 -0.1219
 7711TIP3   OH244547   4.447   1.279  16.850  0.0248  0.3313  0.7056
 7711TIP3    H144548   4.479   1.239  16.769 -0.5113  2.7916 -0.8329
 7711TIP3    H244549   4.490   1.230  16.920  3.0437  0.1390 -1.1257
 7712TIP3   OH244550   2.687   2.458  17.321  0.2146 -0.2783 -0.4426
 7712TIP3    H144551   2.658   2.390  17.260 -1.1125  0.5579 -0.8028
 7712TIP3    H244552   2.671   2.421  17.408  1.1071 -1.0589 -0.5893
 7713TIP3   OH244553   4.684   4.718  16.159 -0.0064  0.7132 -0.0208
 7713TIP3    H144554   4.673   4.724  16.254  1.5359 -0.1355  0.2449
 7713TIP3    H244555   4.626   4.785  16.124 -1.6600  0.1161  1.4362
 7714TIP3   OH244556   6.529   2.285  16.394 -0.5226  0.2281  0.3537
 7714TIP3    H144557   6.622   2.268  16.410 -0.8183  0.4795  2.6494
 7714TIP3    H244558   6.526   2.316  16.304  1.9060  2.1490  0.8226
 7715TIP3   OH244559   3.781   2.176   3.459 -0.5574 -0.0351  0.4348
 7715TIP3    H144560   3.812   2.250   3.511 -0.1396 -0.1196  0.3099
 7715TIP3    H244561   3.857   2.118   3.452 -0.0408  0.8234 -1.8445
 7716TIP3   OH244562   0.305   4.646  13.852  0.7560  0.1172 -0.0524
 7716TIP3    H144563   0.364   4.619  13.922  0.3779  0.2680  0.3295
 7716TIP3    H244564   0.354   4.713  13.804  0.1476  1.8231  1.5356
 7717TIP3   OH244565   2.004   3.526   1.944  0.5742  0.3660  0.8510
 7717TIP3    H144566   1.982   3.440   1.910 -1.2904  1.0138  0.3003
 7717TIP3    H244567   1.922   3.558   1.983  0.7529  2.5135 -0.3895
 7718TIP3   OH244568   5.531   6.284   5.435 -0.1722  0.4179 -0.1323
 7718TIP3    H144569   5.472   6.234   5.379 -0.1648  0.1743  0.0701
 7718TIP3    H244570   5.559   6.358   5.382  1.4026 -0.8597 -1.1594
 7719TIP3   OH244571   4.869   2.863   2.237 -0.2481  0.1407  0.2497
 7719TIP3    H144572   4.787   2.824   2.268 -0.3600 -0.6457 -1.0028
 7719TIP3    H244573   4.868   2.851   2.142  1.2661  0.2273  0.1975
 7720TIP3   OH244574   1.753   4.247  15.797  0.7198 -0.2300  0.3824
 7720TIP3    H144575   1.690   4.199  15.851  0.2905 -0.5367 -0.3676
 7720TIP3    H244576   1.737   4.339  15.819  2.1174 -0.4103  2.4459
 7721TIP3   OH244577   2.416   5.070   2.411 -0.2486  0.2436 -0.5545
 7721TIP3    H144578   2.458   4.985   2.421 -0.3175  0.1748 -0.8365
 7721TIP3    H244579   2.361   5.060   2.333 -2.2041 -0.2567  0.8212
 7722TIP3   OH244580   4.362   3.566   5.751  1.2289  0.2148 -0.3051
 7722TIP3    H144581   4.328   3.647   5.713  0.9882  1.0058  1.4827
 7722TIP3    H244582   4.326   3.564   5.839  0.2726 -2.4699 -0.6641
 7723TIP3   OH244583   6.280   5.821   6.154 -0.3496 -0.1403  0.0625
 7723TIP3    H144584   6.355   5.849   6.207  0.7902 -1.0965 -0.9950
 7723TIP3    H244585   6.293   5.866   6.070 -0.0947 -1.4984 -0.6462
 7724TIP3   OH244586   0.385   3.979  12.071 -0.1345 -0.0135 -0.9818
 7724TIP3    H144587   0.401   4.056  12.126  2.3028 -1.6690  0.8350
 7724TIP3    H244588   0.409   4.007  11.983 -1.4556  1.9064 -0.7946
 7725TIP3   OH244589   5.238   5.612  12.457 -0.1127 -0.5157 -0.7339
 7725TIP3    H144590   5.174   5.610  12.386 -0.5274  3.2468 -0.6776
 7725TIP3    H244591   5.322   5.630  12.414  0.1440 -1.0885 -0.4773
 7726TIP3   OH244592   3.494   3.846   5.102  0.2506 -0.1897  0.4963
 7726TIP3    H144593   3.526   3.801   5.024 -1.4606 -2.1192  0.8328
 7726TIP3    H244594   3.418   3.795   5.130 -0.7751  1.9724  1.9148
 7727TIP3   OH244595   5.457   0.872  13.673 -0.1892  0.1855 -0.4069
 7727TIP3    H144596   5.402   0.950  13.661  0.6319  0.5648 -1.9112
 7727TIP3    H244597   5.418   0.806  13.616 -0.7953 -0.4904  0.7575
 7728TIP3   OH244598   4.034   4.056  14.507 -0.1757 -0.3562  0.3576
 7728TIP3    H144599   3.990   4.111  14.572  0.1528  0.6700 -0.2510
 7728TIP3    H244600   4.062   3.979  14.555 -1.0903 -0.2279  1.1357
 7729TIP3   OH244601   5.346   1.497  17.362 -0.4186 -0.4336  0.1171
 7729TIP3    H144602   5.379   1.587  17.367  0.9034 -0.9472  1.4371
 7729TIP3    H244603   5.288   1.489  17.438 -1.0305 -0.5200 -0.3553
 7730TIP3   OH244604   0.069   1.397   5.028 -0.1768  0.6713  0.1812
 7730TIP3    H144605   0.019   1.321   5.058 -0.6130  1.0947  0.5479
 7730TIP3    H244606   0.161   1.373   5.043 -0.0047 -1.2031 -2.9721
 7731TIP3   OH244607   6.612   6.358   4.876 -0.0417 -0.0325  1.0503
 7731TIP3    H144608   6.683   6.336   4.935  2.2159 -0.1100 -1.5083
 7731TIP3    H244609   6.580   6.274   4.843  0.6894  0.0734  0.0270
 7732TIP3   OH244610   1.002   4.904  13.408  0.2890 -0.0412  0.1104
 7732TIP3    H144611   0.979   4.946  13.491 -1.5723  1.6687 -1.1708
 7732TIP3    H244612   0.963   4.817  13.414 -1.6595  0.7911  0.2723
 7733TIP3   OH244613   2.925   0.939  16.189 -0.3531  0.2946  0.1901
 7733TIP3    H144614   2.846   0.992  16.177  0.1339  0.8002 -0.9807
 7733TIP3    H244615   2.992   0.985  16.139 -0.3409 -2.3848 -2.5781
 7734TIP3   OH244616   2.740   0.275  10.687  0.2187  0.0209  0.6871
 7734TIP3    H144617   2.802   0.318  10.627 -1.4242  0.2178 -0.9490
 7734TIP3    H244618   2.786   0.273  10.771  2.4039  0.2253 -0.4368
 7735TIP3   OH244619   1.063   5.394  17.057  0.0808  0.4774  0.0418
 7735TIP3    H144620   1.037   5.483  17.033  0.5443  0.3905 -0.8209
 7735TIP3    H244621   1.067   5.396  17.153  2.6616  2.1576 -0.0071
 7736TIP3   OH244622   1.751   0.961  12.443 -0.5887  0.4153 -0.2496
 7736TIP3    H144623   1.844   0.981  12.431 -0.7670  2.0979  0.7825
 7736TIP3    H244624   1.706   1.043  12.422 -1.9485 -0.6037 -1.5783
 7737TIP3   OH244625   4.878   6.554   3.663 -0.2569  0.0112 -0.3711
 7737TIP3    H144626   4.922   6.492   3.604 -0.9001 -0.1765 -0.6710
 7737TIP3    H244627   4.942   6.570   3.733 -0.2521 -1.4035 -0.0035
 7738TIP3   OH244628   0.690   5.591  11.898 -0.0411  0.3100  0.5160
 7738TIP3    H144629   0.602   5.580  11.861 -0.2558 -0.4156  1.2143
 7738TIP3    H244630   0.687   5.544  11.982  1.3986 -0.8323 -0.0229
 7739TIP3   OH244631   4.253   4.744  17.057  0.2192 -0.3796  0.0007
 7739TIP3    H144632   4.223   4.712  16.972  1.0489  0.4629 -0.6360
 7739TIP3    H244633   4.173   4.767  17.104 -0.2641 -1.0914 -0.4491
 7740TIP3   OH244634   1.224   3.820   2.400 -0.6355  0.1127  0.2143
 7740TIP3    H144635   1.319   3.808   2.393 -0.5207  0.5606  0.9068
 7740TIP3    H244636   1.212   3.915   2.397 -0.9036  0.1521  1.9060
 7741TIP3   OH244637   0.091   2.147  16.088 -0.3563  0.6132 -0.1037
 7741TIP3    H144638   0.115   2.068  16.136  0.3295  0.7329 -0.2357
 7741TIP3    H244639   0.013   2.122  16.038 -0.2953  0.0981  0.0547
 7742TIP3   OH244640   3.585   5.806   6.159 -0.1806  0.0886 -0.3566
 7742TIP3    H144641   3.536   5.725   6.174  0.3540 -0.2829 -0.5854
 7742TIP3    H244642   3.666   5.795   6.207 -0.5111  0.9039  0.4102
 7743TIP3   OH244643   3.244   2.470   3.917 -0.3719 -0.6238 -0.0132
 7743TIP3    H144644   3.178   2.421   3.966 -0.0867 -0.2054  0.8103
 7743TIP3    H244645   3.320   2.411   3.914 -0.3071 -0.5541  0.2603
 7744TIP3   OH244646   5.936   2.400   0.084  0.0923 -0.2720  0.4043
 7744TIP3    H144647   6.010   2.405   0.145 -0.8855  1.4960  1.5619
 7744TIP3    H244648   5.975   2.373   0.001  1.8120 -0.7153  1.3067
 7745TIP3   OH244649   3.687   1.923   1.219  0.3865 -0.1119  0.4251
 7745TIP3    H144650   3.692   1.868   1.297  1.6702 -1.2854 -0.4067
 7745TIP3    H244651   3.682   1.860   1.147 -1.1676  0.9389 -0.4303
 7746TIP3   OH244652   5.210   2.407  11.275 -0.1787 -0.3201 -0.0452
 7746TIP3    H144653   5.155   2.461  11.332 -0.1816 -1.2358  0.8311
 7746TIP3    H244654   5.153   2.385  11.202  0.0729  1.5582 -0.8809
 7747TIP3   OH244655   5.327   0.153   1.877 -0.3194 -0.1527  0.0450
 7747TIP3    H144656   5.307   0.230   1.823  2.4335 -0.0775 -0.9887
 7747TIP3    H244657   5.285   0.172   1.961 -0.8017  1.8632 -0.5801
 7748TIP3   OH244658   1.323   1.057  11.174  0.1195 -0.0914 -0.2801
 7748TIP3    H144659   1.379   1.030  11.101 -0.3625 -0.9522 -0.3554
 7748TIP3    H244660   1.339   0.991  11.242  1.3623  1.2993  0.8287
 7749TIP3   OH244661   2.095   3.131   4.605 -0.1690  0.2044  0.1522
 7749TIP3    H144662   2.015   3.149   4.556 -0.4823  0.6149  0.8076
 7749TIP3    H244663   2.120   3.215   4.644  1.4776  0.4450 -1.3320
 7750TIP3   OH244664   3.167   6.728   6.053  0.5158  0.2230  0.1851
 7750TIP3    H144665   3.172   6.767   5.966  0.5348 -0.3885 -0.0926
 7750TIP3    H244666   3.201   6.796   6.112  0.3121  0.7150 -0.2541
 7751TIP3   OH244667   5.431   1.424   5.643  0.1629 -0.3227 -0.4319
 7751TIP3    H144668   5.461   1.496   5.586  3.5758 -1.5133 -0.3381
 7751TIP3    H244669   5.372   1.467   5.705  0.7838  2.1010 -1.3763
 7752TIP3   OH244670   5.167   2.384   4.559 -0.4455  0.1904 -0.3056
 7752TIP3    H144671   5.168   2.350   4.469 -1.8956 -1.3750  0.2124
 7752TIP3    H244672   5.223   2.323   4.608 -0.1373  0.6891 -0.0371
 7753TIP3   OH244673   0.716   4.662   2.627  0.5502 -0.2148  0.3584
 7753TIP3    H144674   0.703   4.756   2.616 -1.3962 -0.2104  2.1172
 7753TIP3    H244675   0.701   4.646   2.720 -1.2127 -2.5264 -0.2347
 7754TIP3   OH244676   5.374   4.166  16.723 -0.5622 -0.4211  0.9331
 7754TIP3    H144677   5.322   4.113  16.662  1.6879 -0.0134 -1.5159
 7754TIP3    H244678   5.429   4.220  16.667  0.0975  1.6233  3.3786
 7755TIP3   OH244679   1.030   2.235  11.744 -0.0379  0.0826  0.6432
 7755TIP3    H144680   1.044   2.158  11.689  0.4336 -0.1131  1.0323
 7755TIP3    H244681   1.088   2.302  11.707  0.0091  0.0630  0.6819
 7756TIP3   OH244682   6.364   2.888  15.740 -0.0977 -0.2469  0.2818
 7756TIP3    H144683   6.279   2.881  15.784 -0.1235  0.1732  0.3023
 7756TIP3    H244684   6.366   2.814  15.680 -0.5460 -0.1688  0.1667
 7757TIP3   OH244685   0.865   4.803   1.890  0.0955  0.5390  0.3506
 7757TIP3    H144686   0.958   4.783   1.901  0.4298  1.2077 -1.0221
 7757TIP3    H244687   0.821   4.718   1.896  0.7885  0.2198  1.0271
 7758TIP3   OH244688   6.097   1.675   0.273  0.1674 -0.5150  0.0257
 7758TIP3    H144689   6.107   1.724   0.192  0.7305 -1.1593 -0.3042
 7758TIP3    H244690   6.071   1.587   0.245  2.3176 -1.3373  0.3859
 7759TIP3   OH244691   3.308   3.191   5.102  0.3251  0.4860 -0.0049
 7759TIP3    H144692   3.320   3.216   5.010 -1.4414  1.2823 -0.0470
 7759TIP3    H244693   3.220   3.153   5.105 -0.1062  1.5391  1.5616
 7760TIP3   OH244694   1.279   5.419   4.830 -0.1003 -0.3973  0.2305
 7760TIP3    H144695   1.348   5.485   4.825  0.8369 -1.4311 -1.3459
 7760TIP3    H244696   1.319   5.346   4.878 -1.3467  0.3624  2.5618
 7761TIP3   OH244697   4.332   1.861  16.857  0.3001 -0.7256 -0.0502
 7761TIP3    H144698   4.427   1.856  16.870  0.1128 -0.6696  1.4962
 7761TIP3    H244699   4.318   1.822  16.770  1.5971 -1.9595  0.2509
 7762TIP3   OH244700   0.682   2.042  15.386 -0.0938  0.0889 -0.2015
 7762TIP3    H144701   0.657   1.979  15.453 -0.3224  1.3824  0.9814
 7762TIP3    H244702   0.679   2.127  15.431  0.5518  0.9065 -1.6383
 7763TIP3   OH244703   4.391   5.344  14.904  0.0200  1.0092 -0.3479
 7763TIP3    H144704   4.338   5.287  14.848 -0.1341  1.4502 -0.6551
 7763TIP3    H244705   4.473   5.296  14.916 -1.1089 -0.5325  1.6520
 7764TIP3   OH244706   1.846   3.066   3.753 -0.6531 -0.5361 -0.8590
 7764TIP3    H144707   1.867   3.108   3.669  1.5586 -3.0199 -1.7006
 7764TIP3    H244708   1.929   3.066   3.801 -1.4495 -0.7952  0.5596
 7765TIP3   OH244709   5.231   3.184  13.599 -0.3263  0.7598  0.8258
 7765TIP3    H144710   5.181   3.140  13.531  1.1911 -1.1611  0.8625
 7765TIP3    H244711   5.322   3.180  13.568  0.1852  1.4203  2.1553
 7766TIP3   OH244712   6.441   3.725   5.681  0.6433 -0.2746  0.5566
 7766TIP3    H144713   6.362   3.690   5.723  0.9164  1.1127  2.3507
 7766TIP3    H244714   6.496   3.648   5.666  0.3544 -0.9199  2.4617
 7767TIP3   OH244715   0.579   6.424   2.667  0.2151  0.1588  0.0496
 7767TIP3    H144716   0.627   6.447   2.587 -0.3823  0.5031 -0.2149
 7767TIP3    H244717   0.623   6.473   2.736 -0.1355  0.9684 -0.2850
 7768TIP3   OH244718   6.391   2.892  14.457  0.9272  0.0901 -0.3546
 7768TIP3    H144719   6.319   2.830  14.467  0.6961  0.4833  0.5122
 7768TIP3    H244720   6.449   2.852  14.393 -0.9131  0.5637 -2.4295
 7769TIP3   OH244721   5.415   4.095   0.699  0.0822 -0.1328 -0.4071
 7769TIP3    H144722   5.448   4.075   0.611 -0.4740 -1.4241 -0.3426
 7769TIP3    H244723   5.322   4.111   0.688  0.2609  1.1109 -0.2389
 7770TIP3   OH244724   1.114   0.680   2.605  0.2358  0.0244  0.6106
 7770TIP3    H144725   1.115   0.627   2.525 -1.0582  0.9328 -0.0414
 7770TIP3    H244726   1.151   0.764   2.579  0.2820  0.1590  1.0982
 7771TIP3   OH244727   0.020   6.415   1.897 -0.0283  0.8049  0.0168
 7771TIP3    H144728  -0.059   6.362   1.906  0.1251  0.1361 -2.1710
 7771TIP3    H244729  -0.011   6.500   1.866 -0.0243  1.1932  1.0156
 7772TIP3   OH244730   1.744   4.142  11.891  0.1077 -0.8377  0.2169
 7772TIP3    H144731   1.680   4.214  11.890 -1.2853 -2.0346  0.3007
 7772TIP3    H244732   1.812   4.171  11.830  0.1815  1.0474  1.1051
 7773TIP3   OH244733   2.498   4.634   6.056  0.3280 -0.5446  0.1494
 7773TIP3    H144734   2.436   4.640   5.983  1.2497 -0.7603 -0.6765
 7773TIP3    H244735   2.535   4.546   6.049 -0.0533 -0.8122  1.2950
 7774TIP3   OH244736   4.847   2.227  14.957  0.3717 -0.3850  0.1554
 7774TIP3    H144737   4.899   2.148  14.942 -2.3388 -1.8232 -3.1610
 7774TIP3    H244738   4.758   2.194  14.969 -0.9386  2.1106 -1.8058
 7775TIP3   OH244739   2.540   1.728  12.119  0.6011  0.3233  0.1729
 7775TIP3    H144740   2.611   1.703  12.059 -1.1542 -2.2004 -0.9894
 7775TIP3    H244741   2.473   1.766  12.063 -0.5168 -0.8129  0.7177
 7776TIP3   OH244742   0.184   4.618  15.748 -0.1023 -0.7818 -0.0766
 7776TIP3    H144743   0.128   4.647  15.819 -0.0707  2.0015 -1.0866
 7776TIP3    H244744   0.272   4.646  15.773 -0.0808  0.1550 -1.1396
 7777TIP3   OH244745   2.834   1.653   5.198  0.2892  0.0241 -0.2075
 7777TIP3    H144746   2.811   1.620   5.285 -0.3207  0.8810 -0.0248
 7777TIP3    H244747   2.807   1.584   5.138 -1.5646  0.3989  0.1098
 7778TIP3   OH244748   3.819   1.986   0.163 -0.5380  0.1946  0.5023
 7778TIP3    H144749   3.740   1.944   0.196 -0.8221  0.1053 -0.2776
 7778TIP3    H244750   3.879   1.913   0.144  0.1238  0.2991  2.0123
 7779TIP3   OH244751   0.998   4.034  14.151 -0.4209 -0.3007  0.4379
 7779TIP3    H144752   1.050   3.969  14.102 -0.9312 -0.7773  0.5138
 7779TIP3    H244753   0.969   3.987  14.229 -1.7432 -0.3362 -0.0585
 7780TIP3   OH244754   5.633   1.640  16.514  1.0507 -0.2025 -0.3029
 7780TIP3    H144755   5.577   1.703  16.469  0.2594  0.8509  2.0006
 7780TIP3    H244756   5.719   1.682  16.517  0.8683  0.1600 -0.0078
 7781TIP3   OH244757   1.446   4.124  11.551  0.0139  0.0459  0.3767
 7781TIP3    H144758   1.515   4.074  11.508  0.0160 -1.1779  1.7199
 7781TIP3    H244759   1.432   4.201  11.495  0.8558 -0.8536 -1.1060
 7782TIP3   OH244760   1.811   4.935  12.161 -0.0542  0.2838 -0.0778
 7782TIP3    H144761   1.847   4.937  12.072 -2.1996  1.1984 -0.9703
 7782TIP3    H244762   1.889   4.939  12.217  1.3458 -0.0345 -1.8710
 7783TIP3   OH244763   4.105   0.452  11.125 -0.3268  0.3866  0.3169
 7783TIP3    H144764   4.069   0.371  11.091 -0.4108  0.9112 -0.8916
 7783TIP3    H244765   4.029   0.500  11.158 -0.5137  0.7150 -0.5724
 7784TIP3   OH244766   0.809   2.503  15.685 -0.2349  0.1200 -0.1351
 7784TIP3    H144767   0.858   2.442  15.629  0.0386 -0.1438  0.3793
 7784TIP3    H244768   0.830   2.474  15.774  0.7485  1.6039  0.1485
 7785TIP3   OH244769   1.297   1.085   5.614 -0.7932 -0.0485 -0.2953
 7785TIP3    H144770   1.226   1.131   5.659  0.4186  4.0126 -1.9985
 7785TIP3    H244771   1.266   1.073   5.524 -0.3930 -1.0202 -0.3183
 7786TIP3   OH244772   3.870   5.215  11.451  0.1534  0.1293  0.2498
 7786TIP3    H144773   3.889   5.308  11.459 -0.2411  0.1113  1.5574
 7786TIP3    H244774   3.839   5.205  11.361 -0.8005  1.4502  0.4027
 7787TIP3   OH244775   3.475   4.307   2.847 -0.6372 -0.2682 -0.2154
 7787TIP3    H144776   3.506   4.217   2.848 -3.0948 -1.2180  1.6217
 7787TIP3    H244777   3.498   4.341   2.934  3.3663  2.2170 -1.9615
 7788TIP3   OH244778   6.650   1.805   2.084 -0.0837  0.0216 -0.4478
 7788TIP3    H144779   6.743   1.824   2.072  0.2129 -1.7636 -1.3558
 7788TIP3    H244780   6.610   1.821   1.998 -0.5585  0.3957 -0.1669
 7789TIP3   OH244781   3.144   5.817   2.155 -0.1601 -0.2974  0.1233
 7789TIP3    H144782   3.175   5.897   2.111  1.4506 -1.5995 -1.2444
 7789TIP3    H244783   3.060   5.798   2.113 -0.4118  0.5067  0.2477
 7790TIP3   OH244784   3.846   3.643   5.856 -0.1717 -0.1054  0.0572
 7790TIP3    H144785   3.867   3.580   5.925 -1.3380 -1.4812 -0.7767
 7790TIP3    H244786   3.925   3.697   5.847 -0.0573  0.2677  2.5675
 7791TIP3   OH244787   0.614   3.350   1.506 -0.5504 -0.0201 -0.1720
 7791TIP3    H144788   0.686   3.287   1.513  1.6752  2.0314 -2.5116
 7791TIP3    H244789   0.535   3.297   1.515  1.1894 -3.0526 -1.2821
 7792TIP3   OH244790   1.924   1.350  11.697  0.2363 -0.4601 -0.0454
 7792TIP3    H144791   1.903   1.258  11.687  1.0311 -0.7849  1.0372
 7792TIP3    H244792   2.019   1.355  11.683  0.1624  0.2360 -0.3464
 7793TIP3   OH244793   5.564   4.953   0.873 -0.3597  0.3214  0.8137
 7793TIP3    H144794   5.588   5.017   0.807  0.5017 -1.0897 -0.2995
 7793TIP3    H244795   5.575   4.868   0.830 -0.2247 -0.6342  2.6146
 7794TIP3   OH244796   5.559   3.839   1.362  0.1722  0.2154 -0.0277
 7794TIP3    H144797   5.478   3.851   1.314 -0.8285 -2.2256  0.8854
 7794TIP3    H244798   5.540   3.873   1.450  0.4564  0.5043 -0.0777
 7795TIP3   OH244799   0.175   2.510  14.112  0.2932  0.3211 -0.1569
 7795TIP3    H144800   0.102   2.502  14.050  0.6149 -0.8543 -0.4077
 7795TIP3    H244801   0.248   2.542  14.060  1.4519 -3.4399 -1.2261
 7796TIP3   OH244802   0.739   2.193   2.758  0.1406 -0.5335 -0.4141
 7796TIP3    H144803   0.702   2.112   2.724 -0.6737 -0.4321  0.2120
 7796TIP3    H244804   0.757   2.175   2.850 -0.8257  0.2414 -0.0484
 7797TIP3   OH244805   5.397   0.682  12.757  0.0407 -0.3417 -0.4597
 7797TIP3    H144806   5.485   0.658  12.729  0.4508  1.4827 -0.8678
 7797TIP3    H244807   5.355   0.599  12.780  1.9716 -1.2113  0.0715
 7798TIP3   OH244808   1.834   2.968   6.319  0.1430 -0.0121 -0.4287
 7798TIP3    H144809   1.799   2.914   6.249 -1.3139 -0.3745  0.5416
 7798TIP3    H244810   1.765   3.032   6.337  1.1631  1.1338 -0.4285
 7799TIP3   OH244811   6.317   2.286  13.115  0.0458  0.1143 -0.2104
 7799TIP3    H144812   6.342   2.347  13.046 -0.3060  0.2668 -0.2016
 7799TIP3    H244813   6.358   2.321  13.194 -1.1954  1.0495  0.0419
 7800TIP3   OH244814   2.926   4.537   2.492 -0.1297  0.0440 -0.0016
 7800TIP3    H144815   2.976   4.457   2.504  0.2040 -0.0006 -1.4526
 7800TIP3    H244816   2.865   4.517   2.420 -1.6311  0.3894  1.1124
 7801TIP3   OH244817   1.909   2.924  14.489  0.1576  0.6801  0.7866
 7801TIP3    H144818   1.967   2.989  14.529 -0.3241  0.9869  0.9827
 7801TIP3    H244819   1.823   2.943  14.524  0.1256 -0.5377  1.4471
 7802TIP3   OH244820   4.564   3.168   6.056 -0.5938 -0.2035 -0.0266
 7802TIP3    H144821   4.525   3.253   6.079 -0.8680 -0.2817 -0.2008
 7802TIP3    H244822   4.625   3.150   6.128  0.3251  0.6790 -0.5498
 7803TIP3   OH244823   0.441   1.667   4.065  0.5119 -0.2313 -0.1637
 7803TIP3    H144824   0.487   1.590   4.101  0.9939  0.5377  0.9214
 7803TIP3    H244825   0.460   1.737   4.127 -3.7080 -0.2622  1.4914
 7804TIP3   OH244826   2.036   2.786  13.001 -0.1863 -0.0568  1.2440
 7804TIP3    H144827   2.039   2.765  13.094  1.6010 -0.1715  1.1965
 7804TIP3    H244828   2.110   2.739  12.963 -0.8379  0.0515 -0.2287
 7805TIP3   OH244829   3.883   1.602   1.972 -0.2271 -0.4745  0.5054
 7805TIP3    H144830   3.892   1.629   1.881  0.3910  2.1842  1.2503
 7805TIP3    H244831   3.804   1.647   2.003  0.3354 -0.2092  1.6179
 7806TIP3   OH244832   5.823   0.006   1.577  0.2359  0.0867  0.0415
 7806TIP3    H144833   5.766   0.076   1.544  0.8376  0.9631  0.8169
 7806TIP3    H244834   5.839  -0.049   1.500 -1.0245  0.2445 -0.3727
 7807TIP3   OH244835   0.219   4.894  13.598  0.4203  0.4037 -0.4604
 7807TIP3    H144836   0.177   4.964  13.548  0.3677 -0.8093 -2.1841
 7807TIP3    H244837   0.304   4.930  13.623  0.0725  1.3681 -0.6143
 7808TIP3   OH244838   1.034   4.249   3.030  0.1662  0.3696  0.5785
 7808TIP3    H144839   1.054   4.299   3.109  0.4839  0.4922  0.4206
 7808TIP3    H244840   0.942   4.269   3.013  0.1858  0.6056  0.7310
 7809TIP3   OH244841   5.339   5.553   0.510 -0.1123  0.9214 -0.3457
 7809TIP3    H144842   5.303   5.642   0.516 -0.2957  0.7917  0.5298
 7809TIP3    H244843   5.275   5.506   0.456 -0.9257  0.8756  0.6334
 7810TIP3   OH244844   4.594   1.806   0.756  0.1238 -0.2487 -0.5573
 7810TIP3    H144845   4.498   1.807   0.761  0.1331  0.3086 -0.4880
 7810TIP3    H244846   4.620   1.897   0.767  0.8222 -0.7109  2.7019
 7811TIP3   OH244847   1.939   0.012   0.411  0.1517  0.5610 -0.1191
 7811TIP3    H144848   1.895   0.011   0.327 -0.4253  0.0448  0.1852
 7811TIP3    H244849   1.876   0.052   0.471 -0.2367 -0.8766  0.4789
 7812TIP3   OH244850   0.668   5.093  13.973 -0.4973 -0.4601  0.1007
 7812TIP3    H144851   0.681   5.178  13.932 -0.3357 -1.6968 -2.6014
 7812TIP3    H244852   0.596   5.106  14.034 -2.4448  1.0091 -2.3539
 7813TIP3   OH244853   5.477   0.018   3.321 -0.0217  0.2753 -0.4251
 7813TIP3    H144854   5.452   0.107   3.294  0.1899  0.3533 -0.3649
 7813TIP3    H244855   5.407  -0.009   3.380  1.8768  1.9778  2.9065
 7814TIP3   OH244856   3.998   1.436   5.047  0.8018 -0.0302 -0.5778
 7814TIP3    H144857   4.025   1.445   4.955  0.8667  0.5314 -0.5083
 7814TIP3    H244858   3.903   1.448   5.045  0.9185  0.9783 -0.4530
 7815TIP3   OH244859   3.943   2.246   6.378  0.3441 -0.2562  0.2490
 7815TIP3    H144860   3.994   2.305   6.322 -0.1206  0.9794  1.0922
 7815TIP3    H244861   4.000   2.228   6.453 -0.4330  1.2216  1.2522
 7816TIP3   OH244862   0.004   4.162   5.887 -0.3034  0.0453 -0.3137
 7816TIP3    H144863   0.043   4.111   5.958 -3.2875 -0.2190  1.3276
 7816TIP3    H244864  -0.063   4.103   5.850 -1.6972  1.6437 -0.4527
 7817TIP3   OH244865   2.992   2.745   1.737 -0.2995 -0.7165 -0.4524
 7817TIP3    H144866   2.896   2.749   1.736 -0.3055 -0.9476 -0.7121
 7817TIP3    H244867   3.014   2.746   1.831 -0.6301 -2.2566 -0.3330
 7818TIP3   OH244868   2.658   3.355  16.268 -0.0462 -0.0763 -0.2973
 7818TIP3    H144869   2.661   3.279  16.209  0.1639 -1.0113  0.8632
 7818TIP3    H244870   2.586   3.335  16.328  0.9159 -0.0619  0.9058
 7819TIP3   OH244871   3.348   5.294   2.520 -0.0510  0.0731  0.0512
 7819TIP3    H144872   3.272   5.254   2.478 -0.2469  0.2991  0.1861
 7819TIP3    H244873   3.316   5.321   2.606  0.8472 -2.1233  1.1524
 7820TIP3   OH244874   4.559   6.192  15.609 -0.1538  0.0024 -0.2724
 7820TIP3    H144875   4.523   6.243  15.537 -0.1843  0.8102  0.3057
 7820TIP3    H244876   4.627   6.138  15.568  1.3367  2.0013 -0.5898
 7821TIP3   OH244877   3.285   6.338  14.481  0.2665 -0.2613  0.1505
 7821TIP3    H144878   3.342   6.359  14.555  0.6848  0.8240 -0.4560
 7821TIP3    H244879   3.196   6.342  14.517  0.4428  0.6890  0.4967
 7822TIP3   OH244880   3.839   4.896  16.175 -0.3671 -0.2259 -0.8622
 7822TIP3    H144881   3.920   4.859  16.140  0.3900  2.0126 -1.6058
 7822TIP3    H244882   3.770   4.850  16.127  0.3694 -2.5511  0.1511
 7823TIP3   OH244883   6.573   1.279   3.892 -0.8982 -0.3379  0.3950
 7823TIP3    H144884   6.609   1.198   3.927  1.6050  0.4690 -0.0869
 7823TIP3    H244885   6.534   1.254   3.808  1.6060 -0.8178 -0.7122
 7824TIP3   OH244886   3.592   2.201  13.331  0.3500  0.0568  0.5391
 7824TIP3    H144887   3.505   2.218  13.367  0.1494 -0.5490  0.3518
 7824TIP3    H244888   3.646   2.180  13.408  1.2037  3.6865  1.1000
 7825TIP3   OH244889   6.132   1.484   3.713 -0.0793  0.3623  0.1396
 7825TIP3    H144890   6.141   1.472   3.619  1.3548 -1.0316  0.4051
 7825TIP3    H244891   6.157   1.400   3.751  2.8107  1.8158  1.8732
 7826TIP3   OH244892   5.767   5.630  15.833  0.4247 -0.2198 -0.0820
 7826TIP3    H144893   5.674   5.615  15.819  0.1919  0.7295  0.3611
 7826TIP3    H244894   5.810   5.552  15.798 -0.5436 -0.7328 -0.1458
 7827TIP3   OH244895   0.416   3.977   0.180  0.1340 -0.6357 -0.1265
 7827TIP3    H144896   0.506   3.944   0.183  0.9636  1.3729 -1.3621
 7827TIP3    H244897   0.365   3.912   0.230  2.3607 -1.4203  1.2546
 7828TIP3   OH244898   1.071   5.117   6.832 -0.2655 -0.2089  0.0685
 7828TIP3    H144899   1.070   5.161   6.917  3.1284 -0.6191  0.4505
 7828TIP3    H244900   1.062   5.189   6.768 -0.1938  0.3970  0.7237
 7829TIP3   OH244901   6.185   2.258   5.112  0.3274  0.1275  0.1350
 7829TIP3    H144902   6.147   2.259   5.200 -1.1952  4.6390 -0.3363
 7829TIP3    H244903   6.271   2.298   5.122 -0.1528  1.3574 -0.4627
 7830TIP3   OH244904   6.300   5.721  15.697 -0.2092 -0.2590  0.1012
 7830TIP3    H144905   6.218   5.672  15.704 -1.1219  1.2390  0.1697
 7830TIP3    H244906   6.275   5.805  15.659  1.0664  0.7963  1.4872
 7831TIP3   OH244907   6.010   6.529  12.677  0.3764  0.0096 -0.3438
 7831TIP3    H144908   6.020   6.594  12.608 -0.7575 -1.5778 -2.1011
 7831TIP3    H244909   5.915   6.518  12.686  0.4993  0.0837  1.4180
 7832TIP3   OH244910   5.415   2.823  12.953 -0.2266  0.3544  0.1890
 7832TIP3    H144911   5.372   2.873  12.883  0.4251 -1.0645 -1.2868
 7832TIP3    H244912   5.508   2.844  12.944  0.1944 -1.8397 -1.1348
 7833TIP3   OH244913   5.685   3.294  17.506  0.4735 -1.1429 -0.2116
 7833TIP3    H144914   5.781   3.294  17.510  0.4639  0.1347  0.7719
 7833TIP3    H244915   5.658   3.231  17.573  0.6213 -0.8821  0.0940
 7834TIP3   OH244916   5.496   1.612   5.461  0.1548 -0.5758 -0.4063
 7834TIP3    H144917   5.520   1.704   5.475 -1.4580 -0.0154 -1.0965
 7834TIP3    H244918   5.550   1.584   5.386  1.0526 -0.3836  0.1482
 7835TIP3   OH244919   4.544   0.947   5.366 -0.0020  0.0281 -0.2955
 7835TIP3    H144920   4.456   0.942   5.330 -0.5874 -0.5178  1.1303
 7835TIP3    H244921   4.548   0.875   5.429  0.6594  1.4006  1.3103
 7836TIP3   OH244922   6.030   2.778  11.619  0.4019  0.7807  0.1053
 7836TIP3    H144923   5.938   2.803  11.632 -0.1317 -1.2122  0.4449
 7836TIP3    H244924   6.078   2.861  11.627 -1.3079  1.8206  0.2820
 7837TIP3   OH244925   0.692   3.102   0.807  0.1716  0.1030 -0.6755
 7837TIP3    H144926   0.622   3.143   0.857  0.7667 -0.9581  1.1653
 7837TIP3    H244927   0.685   3.009   0.829  2.0182 -0.0487 -0.5579
 7838TIP3   OH244928   3.888   6.501   1.064  0.2320 -0.1899 -1.0093
 7838TIP3    H144929   3.833   6.450   1.005 -0.3578 -0.5561 -0.1567
 7838TIP3    H244930   3.877   6.460   1.149 -0.9178  1.8342 -0.1207
 7839TIP3   OH244931   1.604   4.120  13.727  0.2195 -0.2664 -0.2826
 7839TIP3    H144932   1.528   4.081  13.685 -1.3068  1.0942  1.0989
 7839TIP3    H244933   1.612   4.074  13.811 -2.2776  2.8145  1.8863
 7840TIP3   OH244934   4.207   0.146   5.318  0.4770  0.1079 -0.3265
 7840TIP3    H144935   4.279   0.135   5.256 -0.9811 -1.4486 -1.8400
 7840TIP3    H244936   4.230   0.091   5.393  0.4571 -1.0789 -1.1818
 7841TIP3   OH244937   6.327   3.751  16.350  0.6112 -0.0200  0.1115
 7841TIP3    H144938   6.328   3.655  16.347  2.2155 -0.0179 -0.2967
 7841TIP3    H244939   6.400   3.778  16.293  1.6678  1.3624  1.9956
 7842TIP3   OH244940   2.673   2.971  12.021 -0.2199  0.1061  0.2186
 7842TIP3    H144941   2.579   2.958  12.032 -0.0733 -1.1109  0.2409
 7842TIP3    H244942   2.682   3.059  11.985 -1.3307  0.4176  0.6637
 7843TIP3   OH244943   1.351   1.804  15.230  0.5308  0.0087 -0.4037
 7843TIP3    H144944   1.357   1.876  15.293 -0.6657  1.1886 -1.5831
 7843TIP3    H244945   1.432   1.755  15.243  1.1305  1.2448  0.8187
 7844TIP3   OH244946   4.958   2.562  16.958 -0.0114  0.3448  0.0694
 7844TIP3    H144947   5.050   2.586  16.968  0.0108  0.5132 -0.5159
 7844TIP3    H244948   4.959   2.467  16.945  0.1493  0.4558 -0.7756
 7845TIP3   OH244949   4.456   2.282   1.934 -0.0617 -0.0133 -0.5853
 7845TIP3    H144950   4.440   2.374   1.913 -0.7526 -0.2721 -1.3005
 7845TIP3    H244951   4.489   2.282   2.023 -0.7632  0.8782 -0.3096
 7846TIP3   OH244952   5.467   2.665  13.206  0.3607  0.0805  0.0276
 7846TIP3    H144953   5.519   2.698  13.279  1.8271 -1.2515 -0.3600
 7846TIP3    H244954   5.506   2.705  13.129 -0.9518  1.1895 -0.1088
 7847TIP3   OH244955   6.013   3.743   3.040 -0.0255 -0.3279  0.2635
 7847TIP3    H144956   6.055   3.828   3.032  1.7177 -1.2232 -0.5675
 7847TIP3    H244957   6.019   3.704   2.953 -0.4711 -1.4598  0.7145
 7848TIP3   OH244958   2.673   2.922  13.487 -0.2941 -0.0110  0.3805
 7848TIP3    H144959   2.670   2.983  13.561 -1.9136 -1.5962  1.7039
 7848TIP3    H244960   2.663   2.836  13.527 -1.6833 -0.8893 -1.7230
 7849TIP3   OH244961   3.228   4.425  14.736 -0.0135  0.1792 -0.1222
 7849TIP3    H144962   3.322   4.415  14.750 -0.0949  0.1348  0.4127
 7849TIP3    H244963   3.214   4.400  14.645  0.3578 -0.7054  0.0590
 7850TIP3   OH244964   5.078   3.023  14.891  0.1904  0.2214  0.2776
 7850TIP3    H144965   5.127   3.034  14.810  2.7265  0.1421  1.6962
 7850TIP3    H244966   5.076   3.110  14.930 -1.6444  0.4095 -0.1539
 7851TIP3   OH244967   4.073   0.410  12.413  0.3459  0.0930  0.1488
 7851TIP3    H144968   4.104   0.494  12.380  0.5401  0.3110  0.8519
 7851TIP3    H244969   4.149   0.372  12.457  0.6944 -1.1401 -1.4228
 7852TIP3   OH244970   5.703   4.897   3.678 -0.2600 -0.2712  0.2948
 7852TIP3    H144971   5.725   4.804   3.672 -0.2791 -0.4889  2.5710
 7852TIP3    H244972   5.777   4.942   3.637  0.2729 -1.2500  0.1521
 7853TIP3   OH244973   4.056   0.042   6.755  0.0857  1.3458  0.2098
 7853TIP3    H144974   4.088  -0.048   6.760  0.5093  1.5043  0.4606
 7853TIP3    H244975   3.987   0.040   6.690  0.5509  0.9697 -0.2799
 7854TIP3   OH244976   5.752   2.589   3.341  0.9615  0.4827 -0.0106
 7854TIP3    H144977   5.744   2.658   3.275 -1.6775  1.0269  0.7476
 7854TIP3    H244978   5.819   2.620   3.401  1.8132  1.0265 -1.2125
 7855TIP3   OH244979   4.146   2.560  13.090 -0.2493 -0.3480 -0.4853
 7855TIP3    H144980   4.079   2.613  13.133 -0.4798 -1.6380  0.8293
 7855TIP3    H244981   4.226   2.576  13.140  0.1888  0.3325 -1.3674
 7856TIP3   OH244982   4.569   2.954   2.100 -0.0633 -0.8676  0.0352
 7856TIP3    H144983   4.478   2.983   2.102  1.4408  5.0859 -1.0492
 7856TIP3    H244984   4.598   2.957   2.191 -0.2735  0.0773  0.0776
 7857TIP3   OH244985   3.853   2.303   4.613 -0.3918 -0.1050 -0.0406
 7857TIP3    H144986   3.805   2.262   4.685 -0.0126 -0.1091  0.2169
 7857TIP3    H244987   3.862   2.395   4.640 -0.6313 -0.0079 -0.2886
 7858TIP3   OH244988   4.992   1.986   3.704  0.5489  0.2464  0.1363
 7858TIP3    H144989   5.034   1.953   3.625  1.7551  2.1434 -0.1019
 7858TIP3    H244990   5.013   1.921   3.771  0.2850 -0.9271 -0.8711
 7859TIP3   OH244991   3.723   2.194   4.823 -0.3106  0.1073 -0.2188
 7859TIP3    H144992   3.748   2.111   4.863 -0.5828  0.8803  1.6827
 7859TIP3    H244993   3.627   2.190   4.818 -0.2456 -0.3969 -1.8647
 7860TIP3   OH244994   5.958   6.523   3.741 -0.1977 -0.5734  0.8771
 7860TIP3    H144995   6.037   6.570   3.765  0.6183 -0.4456 -1.7751
 7860TIP3    H244996   5.899   6.536   3.815  2.4583 -1.2768  3.2673
 7861TIP3   OH244997   1.336   0.661  13.607  0.3224  0.1004  0.0979
 7861TIP3    H144998   1.260   0.679  13.661 -0.0252 -0.6605 -0.1237
 7861TIP3    H244999   1.410   0.699  13.655 -0.3711  2.3755 -0.4782
 7862TIP3   OH245000   5.376   2.989  14.930  0.2188  0.5807  0.0309
 7862TIP3    H145001   5.353   2.903  14.966  0.4229 -0.7887 -2.7484
 7862TIP3    H245002   5.292   3.036  14.924 -0.9785 -1.5805 -3.2919
 7863TIP3   OH245003   6.574   0.740  11.551 -0.3113 -0.6688 -0.2955
 7863TIP3    H145004   6.643   0.793  11.511  0.2629 -2.2997 -1.5184
 7863TIP3    H245005   6.585   0.653  11.514 -2.4391 -1.2074  0.2284
 7864TIP3   OH245006   0.622   2.363   0.685  0.0471 -0.4184 -0.0947
 7864TIP3    H145007   0.605   2.364   0.591  0.9948  4.5068 -0.4941
 7864TIP3    H245008   0.709   2.402   0.694 -0.0986 -0.5643  2.8712
 7865TIP3   OH245009   3.416   1.850   5.002 -0.4670  0.1354  0.2802
 7865TIP3    H145010   3.338   1.816   4.958  0.6263 -1.1153 -0.7896
 7865TIP3    H245011   3.475   1.775   5.008  1.0813  1.2769  0.0503
 7866TIP3   OH245012   0.634   6.646   3.753 -0.4423  0.3590  0.0192
 7866TIP3    H145013   0.592   6.712   3.808 -1.0470  2.8250 -3.1191
 7866TIP3    H245014   0.573   6.633   3.680  0.3288 -2.7003 -0.2234
 7867TIP3   OH245015   3.911   1.985   0.818  0.1010  0.1295 -0.0821
 7867TIP3    H145016   3.858   1.949   0.747 -0.9179  0.5602  0.4340
 7867TIP3    H245017   3.871   1.950   0.897  0.0342  1.1685  0.3631
 7868TIP3   OH245018   5.830   2.643  16.511 -0.6265  0.3026 -0.4777
 7868TIP3    H145019   5.902   2.581  16.497 -0.9017 -0.2032  0.3218
 7868TIP3    H245020   5.750   2.590  16.501 -0.9061 -0.3067  3.4032
 7869TIP3   OH245021   2.411   6.550  14.552 -0.7022  0.1535  0.7697
 7869TIP3    H145022   2.402   6.471  14.500 -1.6436  0.8614 -0.1848
 7869TIP3    H245023   2.478   6.601  14.508 -0.9359  0.4037  0.7008
 7870TIP3   OH245024   0.706   4.126   1.288  0.0006 -0.1757 -0.5893
 7870TIP3    H145025   0.798   4.097   1.292 -0.5922 -2.3869 -1.3193
 7870TIP3    H245026   0.679   4.105   1.198 -1.2689  0.2819 -0.3247
 7871TIP3   OH245027   2.979   1.783  16.139 -0.4069  0.3336 -0.0796
 7871TIP3    H145028   3.037   1.723  16.186 -2.7778  0.4685  3.3581
 7871TIP3    H245029   2.896   1.737  16.132 -1.3646  2.0010 -0.2670
 7872TIP3   OH245030   2.269   3.099   3.118 -0.1077  0.7986  0.4692
 7872TIP3    H145031   2.231   3.067   3.036 -0.7743  0.8902  0.7293
 7872TIP3    H245032   2.344   3.043   3.134 -0.5191  0.1783  0.2696
 7873TIP3   OH245033   5.748   4.765   7.038 -0.1979  0.0167 -0.5503
 7873TIP3    H145034   5.840   4.764   7.011  0.0625 -0.1936  0.2950
 7873TIP3    H245035   5.701   4.803   6.964  0.6383  0.6264 -0.7833
 7874TIP3   OH245036   6.433   0.909  11.324  0.2460  0.2319  0.4637
 7874TIP3    H145037   6.400   0.879  11.409 -0.5032  1.0352  0.4688
 7874TIP3    H245038   6.528   0.920  11.338  0.5025 -1.8301  0.5274
 7875TIP3   OH245039   0.917   3.652   2.476  0.6641  0.0193  0.5220
 7875TIP3    H145040   1.004   3.617   2.456  0.3400  0.0558 -1.1051
 7875TIP3    H245041   0.858   3.603   2.419 -0.1019  1.4974  0.0008
 7876TIP3   OH245042   3.368   6.494   1.649  0.7280 -0.0088 -0.3402
 7876TIP3    H145043   3.365   6.538   1.564  1.3791  0.7016 -0.0148
 7876TIP3    H245044   3.277   6.476   1.671  0.6153 -1.6017 -1.8748
 7877TIP3   OH245045   6.642   2.031   2.742  0.0652  0.2995 -1.1211
 7877TIP3    H145046   6.662   2.091   2.670 -0.6845  1.8254 -0.1146
 7877TIP3    H245047   6.551   2.050   2.764 -0.3047 -1.4870 -0.9766
 7878TIP3   OH245048   4.301   1.724  14.534 -1.1779  0.3562  0.4947
 7878TIP3    H145049   4.284   1.793  14.598 -0.3127  0.5152  0.5708
 7878TIP3    H245050   4.232   1.659  14.550 -0.0799 -0.3715  2.6931
 7879TIP3   OH245051   3.743   2.340  16.489 -0.0870  0.3027 -0.2345
 7879TIP3    H145052   3.685   2.278  16.533  0.5319  0.8512  1.4288
 7879TIP3    H245053   3.787   2.288  16.422 -0.5647 -0.7353  0.2307
 7880TIP3   OH245054   1.011   3.372  12.504  0.4109  0.2496 -0.0918
 7880TIP3    H145055   1.033   3.363  12.597 -0.3210 -1.0099 -0.0093
 7880TIP3    H245056   1.074   3.317  12.459  0.2436  0.1880 -0.2516
 7881TIP3   OH245057   2.677   3.023   0.820  0.0616 -0.5262 -0.3369
 7881TIP3    H145058   2.659   2.973   0.900  1.1053  1.0774  0.9481
 7881TIP3    H245059   2.597   3.013   0.767 -0.5215 -1.8806  0.7444
 7882TIP3   OH245060   4.922   2.467   4.621 -0.7216 -0.0015 -0.4443
 7882TIP3    H145061   4.975   2.468   4.542  0.7631  1.5946  0.4975
 7882TIP3    H245062   4.946   2.386   4.665 -1.9444 -1.1626 -1.8116
 7883TIP3   OH245063   3.404   5.872   2.967 -0.1138  0.3061  0.1211
 7883TIP3    H145064   3.498   5.858   2.979  0.3693  1.3795 -1.9653
 7883TIP3    H245065   3.392   5.966   2.981 -1.2980 -0.0929  2.3698
 7884TIP3   OH245066   3.785   1.210  13.854 -0.1071  0.1789 -0.3789
 7884TIP3    H145067   3.738   1.292  13.840 -0.8958 -0.5649 -2.5924
 7884TIP3    H245068   3.866   1.235  13.898 -1.2815  1.8548  0.9250
 7885TIP3   OH245069   0.017   5.336   0.543 -0.0435 -0.3821  0.0122
 7885TIP3    H145070  -0.020   5.425   0.544 -0.2048 -0.4488  0.0461
 7885TIP3    H245071  -0.037   5.289   0.480  0.3171 -0.3392 -0.3307
 7886TIP3   OH245072   5.738   2.616   6.346  0.1900 -0.2298 -0.5380
 7886TIP3    H145073   5.773   2.702   6.323  1.9771 -1.0463 -1.1130
 7886TIP3    H245074   5.657   2.634   6.392  0.6688  1.7713 -0.3921
 7887TIP3   OH245075   0.430   3.444   0.111  0.6312  0.1295 -0.0012
 7887TIP3    H145076   0.349   3.426   0.160  0.2918 -1.4251 -1.0521
 7887TIP3    H245077   0.404   3.507   0.044  0.3677 -0.0877 -0.1063
 7888TIP3   OH245078   2.701   4.647   1.629  0.0030 -0.2286 -0.2756
 7888TIP3    H145079   2.661   4.591   1.695 -1.7872 -0.0526 -1.1322
 7888TIP3    H245080   2.669   4.612   1.545  1.1125  0.3675 -0.9750
 7889TIP3   OH245081   1.157   4.752  16.266 -0.4000 -0.2608  0.3217
 7889TIP3    H145082   1.237   4.706  16.240 -0.9347 -0.8085 -0.4054
 7889TIP3    H245083   1.179   4.845  16.259 -0.0926 -0.4002 -0.7683
 7890TIP3   OH245084   3.553   4.691   2.764 -0.2279  0.2380  0.1505
 7890TIP3    H145085   3.475   4.706   2.817 -0.2602  0.6420 -0.0074
 7890TIP3    H245086   3.621   4.745   2.806  0.2019 -0.8050  0.8234
 7891TIP3   OH245087   1.669   1.932  11.774  0.8334 -0.3163 -0.1626
 7891TIP3    H145088   1.582   1.937  11.734  1.1180  0.5154 -0.7042
 7891TIP3    H245089   1.703   1.846  11.747 -0.2087 -1.0990  0.9025
 7892TIP3   OH245090   4.647   2.431  12.985  0.1715 -0.1577  0.1377
 7892TIP3    H145091   4.736   2.455  13.011  0.3602  0.9965 -1.4437
 7892TIP3    H245092   4.656   2.341  12.953  0.7823 -0.0304 -0.0676
 7893TIP3   OH245093   1.138   6.512  11.016 -0.0153 -0.3659  0.9273
 7893TIP3    H145094   1.052   6.470  11.015 -0.4699  0.3608  3.3784
 7893TIP3    H245095   1.121   6.600  11.048  1.6488 -0.2231  1.4789
 7894TIP3   OH245096   2.658   6.630   3.615  0.1069 -0.0026  0.0795
 7894TIP3    H145097   2.718   6.638   3.689  0.7732  0.9651 -0.5487
 7894TIP3    H245098   2.703   6.569   3.555  0.0708  0.0636 -0.0148
 7895TIP3   OH245099   6.619   5.149  13.944 -0.0145 -0.0760  0.0269
 7895TIP3    H145100   6.589   5.108  13.863 -0.3507 -0.7827  0.4927
 7895TIP3    H245101   6.548   5.133  14.006 -0.4190  1.7505  0.0735
 7896TIP3   OH245102   3.336   6.626  14.501  0.0100 -0.5969  0.5285
 7896TIP3    H145103   3.337   6.552  14.442 -1.0995 -0.3127  0.1205
 7896TIP3    H245104   3.333   6.703  14.444  1.6025 -0.1996  0.9384
 7897TIP3   OH245105   2.474   5.263  13.536 -0.5233  0.3803 -0.4001
 7897TIP3    H145106   2.426   5.184  13.514 -0.8968  1.0303 -2.0635
 7897TIP3    H245107   2.527   5.282  13.459  0.7090  0.9456  0.5389
 7898TIP3   OH245108   5.290   3.105  15.455  0.1539 -0.3538  0.9045
 7898TIP3    H145109   5.379   3.098  15.422  0.4293  0.2475  1.5051
 7898TIP3    H245110   5.237   3.059  15.389  1.0245 -1.7875  1.1452
 7899TIP3   OH245111   1.450   0.760   5.494  0.1424  0.0442  0.6017
 7899TIP3    H145112   1.360   0.767   5.464  0.7424  2.5369 -0.9016
 7899TIP3    H245113   1.445   0.772   5.589 -1.1434 -0.6866  0.6498
 7900TIP3   OH245114   0.220   4.787   1.914  0.2002  0.2142  0.1435
 7900TIP3    H145115   0.229   4.787   2.009 -1.8210  1.3785  0.3815
 7900TIP3    H245116   0.206   4.878   1.890  0.5115 -0.0728 -1.2586
 7901TIP3   OH245117   3.416   6.269  15.947  0.0365 -0.4224 -0.2490
 7901TIP3    H145118   3.405   6.181  15.911  0.9267 -1.0657  0.9862
 7901TIP3    H245119   3.507   6.272  15.975 -0.6837 -0.0859  2.2523
 7902TIP3   OH245120   2.354   0.031  13.448 -0.2711 -0.9769  0.7158
 7902TIP3    H145121   2.315  -0.033  13.389  0.2366 -1.0090  0.4052
 7902TIP3    H245122   2.290   0.101  13.454 -0.0095 -0.6110 -0.4965
 7903TIP3   OH245123   0.068   1.927   6.201 -0.1501 -0.1734  0.6057
 7903TIP3    H145124   0.129   1.982   6.250 -1.0959  1.4148  0.0497
 7903TIP3    H245125   0.071   1.842   6.246  0.6360  0.5891  2.0632
 7904TIP3   OH245126   1.436   0.258  11.659  0.1833  0.2434  0.1664
 7904TIP3    H145127   1.504   0.200  11.627  1.7928  0.5037  2.8437
 7904TIP3    H245128   1.477   0.345  11.661 -0.1470  0.3853  1.9361
 7905TIP3   OH245129   5.717   4.974  14.732 -0.1844  0.2419  0.3141
 7905TIP3    H145130   5.680   4.889  14.709 -1.0391  0.2789  1.4636
 7905TIP3    H245131   5.791   4.985  14.672 -0.0414 -1.3175  0.1598
 7906TIP3   OH245132   1.565   3.755   4.928 -0.2512  0.4542 -0.6033
 7906TIP3    H145133   1.547   3.662   4.940 -2.4989  1.0609  1.4531
 7906TIP3    H245134   1.501   3.784   4.863 -0.7311  0.8745  0.0441
 7907TIP3   OH245135   4.306   3.160   2.329  0.6371  0.8364  0.2536
 7907TIP3    H145136   4.225   3.191   2.368  0.2394 -0.6065  0.6582
 7907TIP3    H245137   4.280   3.124   2.244  0.6292 -0.5689  0.8121
 7908TIP3   OH245138   2.704   1.183   5.829 -0.1323  0.5545 -0.0708
 7908TIP3    H145139   2.759   1.254   5.796 -0.5710  0.0884 -1.9713
 7908TIP3    H245140   2.620   1.224   5.850  0.0133  0.7922  0.0493
 7909TIP3   OH245141   0.005   1.536   2.607 -0.1946  0.1518  0.0208
 7909TIP3    H145142  -0.004   1.442   2.593  1.3024  0.0915 -0.6913
 7909TIP3    H245143  -0.009   1.548   2.701 -0.7217 -0.7259  0.0590
 7910TIP3   OH245144   0.977   1.254  14.500  0.1049  0.1463 -0.0287
 7910TIP3    H145145   0.916   1.319  14.535 -0.3293 -0.4548  0.3712
 7910TIP3    H245146   1.019   1.297  14.426 -0.8516  0.5617 -0.3490
 7911TIP3   OH245147   2.397   6.666   4.143  0.0095 -0.5568  0.1920
 7911TIP3    H145148   2.423   6.736   4.083  1.3496 -0.5641  0.7209
 7911TIP3    H245149   2.304   6.682   4.160 -0.1771 -0.0533 -1.1907
 7912TIP3   OH245150   6.675   0.032  12.662  0.0941 -0.5726  0.2636
 7912TIP3    H145151   6.748   0.024  12.723  1.1194  1.3404 -0.6455
 7912TIP3    H245152   6.624   0.106  12.695 -0.5775 -0.9170  0.0153
 7913TIP3   OH245153   5.516   1.239  13.825 -0.9146 -0.1124 -0.3233
 7913TIP3    H145154   5.597   1.188  13.824 -0.1086  1.0709  0.8275
 7913TIP3    H245155   5.447   1.174  13.840 -0.2345 -1.1730 -1.6079
 7914TIP3   OH245156   4.688   5.887  14.355 -0.1629 -0.2543 -0.5499
 7914TIP3    H145157   4.674   5.860  14.445  2.2085  0.1247  0.0066
 7914TIP3    H245158   4.666   5.809  14.303  0.7048 -1.2736  0.5501
 7915TIP3   OH245159   5.443   4.908   4.876  0.9701  0.2957  0.0060
 7915TIP3    H145160   5.387   4.831   4.867  1.3768 -0.1103  0.8928
 7915TIP3    H245161   5.422   4.943   4.963 -0.1693  1.9656 -0.8824
 7916TIP3   OH245162   2.051   3.921   3.650 -0.7824 -0.2879  0.0787
 7916TIP3    H145163   2.098   3.846   3.615  1.8111  0.0420  2.4679
 7916TIP3    H245164   1.992   3.883   3.716 -1.8339 -0.4502 -0.9280
 7917TIP3   OH245165   1.322   2.941  10.880 -0.0197  0.1196 -0.4411
 7917TIP3    H145166   1.397   2.882  10.871 -0.4508 -0.4767 -0.1522
 7917TIP3    H245167   1.297   2.934  10.972  0.3306  1.2654 -0.2371
 7918TIP3   OH245168   5.070   0.919   3.939  0.0683  0.1952  0.1524
 7918TIP3    H145169   5.119   0.987   3.985 -2.0026  0.7192  1.6887
 7918TIP3    H245170   4.991   0.964   3.908  0.3173 -0.7081 -1.9566
 7919TIP3   OH245171   3.641   5.765  16.250  0.1836  0.2756  0.9116
 7919TIP3    H145172   3.645   5.836  16.314 -1.9653 -0.1522  1.5869
 7919TIP3    H245173   3.548   5.750  16.235  0.6022 -0.6647 -1.2062
 7920TIP3   OH245174   3.806   1.191  16.465  0.1709  0.3012  0.1679
 7920TIP3    H145175   3.833   1.139  16.389 -0.5432  0.5023 -0.2223
 7920TIP3    H245176   3.849   1.147  16.539  1.4206  0.4960 -0.4090
 7921TIP3   OH245177   1.177   1.721   3.270  0.5327  0.0478 -0.1212
 7921TIP3    H145178   1.123   1.663   3.217  0.5672 -1.4260  1.3801
 7921TIP3    H245179   1.159   1.809   3.235 -1.6080 -0.5596 -0.6907
 7922TIP3   OH245180   2.619   4.760   3.542  0.0945  0.2974  0.5653
 7922TIP3    H145181   2.595   4.850   3.559 -2.1621 -0.3525  1.1051
 7922TIP3    H245182   2.659   4.730   3.624  0.7276  0.7261  0.4263
 7923TIP3   OH245183   0.697   2.145   3.023 -0.2023  0.0934 -0.0933
 7923TIP3    H145184   0.649   2.209   3.074  0.7935  2.4844 -1.9783
 7923TIP3    H245185   0.635   2.073   3.009 -1.6957  1.0794  1.2064
 7924TIP3   OH245186   2.803   2.073   4.649 -0.3485 -0.3764 -0.2413
 7924TIP3    H145187   2.867   2.139   4.621  0.4477 -0.2017  1.8179
 7924TIP3    H245188   2.725   2.090   4.596 -0.2362  2.3578  0.3657
 7925TIP3   OH245189   4.417   1.568  11.798 -0.3938  0.2924  0.1036
 7925TIP3    H145190   4.358   1.640  11.775  0.7429  1.3612  0.4337
 7925TIP3    H245191   4.403   1.554  11.892 -1.1228 -0.4115 -0.1006
 7926TIP3   OH245192   0.524   0.746  11.747 -0.9663 -0.1742  0.3153
 7926TIP3    H145193   0.574   0.811  11.797  0.4007 -2.0560  1.5099
 7926TIP3    H245194   0.572   0.734  11.666 -0.3141 -0.8435  0.7923
 7927TIP3   OH245195   5.274   6.077  17.042 -0.0616 -0.2174 -0.0500
 7927TIP3    H145196   5.268   6.097  16.949 -1.6882  1.5188  0.3601
 7927TIP3    H245197   5.280   6.162  17.085  0.0074 -0.9504  1.4764
 7928TIP3   OH245198   5.638   1.340   0.620 -0.6877 -0.0218 -0.6057
 7928TIP3    H145199   5.640   1.246   0.638  0.1286  0.0255 -0.4318
 7928TIP3    H245200   5.708   1.354   0.556  0.2934  0.7211  0.5957
 7929TIP3   OH245201   5.070   4.999  11.935 -0.2431 -0.5604  0.0186
 7929TIP3    H145202   4.978   5.018  11.951 -0.4076 -0.3803 -1.0664
 7929TIP3    H245203   5.070   4.908  11.904 -0.1503 -0.3483 -0.6341
 7930TIP3   OH245204   1.452   2.691   4.578 -0.1619  0.6590 -0.0199
 7930TIP3    H145205   1.359   2.698   4.598 -0.2257  1.1899 -0.4769
 7930TIP3    H245206   1.462   2.734   4.493  1.0867  4.0301  1.6753
 7931TIP3   OH245207   5.705   3.832   4.515  0.5495 -0.2691  0.2115
 7931TIP3    H145208   5.771   3.846   4.448  1.6467 -0.5302  1.1994
 7931TIP3    H245209   5.735   3.755   4.563 -0.2612 -0.1530  0.9332
 7932TIP3   OH245210   3.095   0.597  11.199  0.2383  0.0159 -0.3382
 7932TIP3    H145211   3.112   0.518  11.250 -1.2308 -1.3207 -1.7977
 7932TIP3    H245212   3.074   0.664  11.265 -0.6975 -1.4065  0.8767
 7933TIP3   OH245213   3.857   0.671   4.263  0.5215 -0.1537  0.1124
 7933TIP3    H145214   3.940   0.719   4.263  0.1063  0.6219 -1.2868
 7933TIP3    H245215   3.839   0.655   4.171 -0.9119 -0.2676  0.3930
 7934TIP3   OH245216   5.168   0.297   1.259 -0.2034 -0.4093 -0.0401
 7934TIP3    H145217   5.087   0.319   1.214 -0.1547 -4.7743 -2.9260
 7934TIP3    H245218   5.231   0.281   1.189  2.2487 -0.2218  1.9744
 7935TIP3   OH245219   1.472   1.625   3.515  0.2300 -0.3705  0.2947
 7935TIP3    H145220   1.522   1.594   3.590 -2.6426 -3.0161  1.3530
 7935TIP3    H245221   1.394   1.667   3.554 -1.2830 -1.7219 -1.1216
 7936TIP3   OH245222   0.963   2.496  11.854  0.3508 -0.6878  0.3517
 7936TIP3    H145223   0.993   2.412  11.889 -0.7599 -1.2064  0.1164
 7936TIP3    H245224   0.867   2.493  11.862  0.1144 -0.3831 -1.6879
 7937TIP3   OH245225   6.491   0.980  13.795  0.5737 -0.1760  0.0220
 7937TIP3    H145226   6.452   0.929  13.866 -2.1513 -0.1595 -1.3580
 7937TIP3    H245227   6.512   1.064  13.835 -0.7783 -0.2090  0.8645
 7938TIP3   OH245228   6.322   2.189  15.942  1.1472  0.1778 -0.0439
 7938TIP3    H145229   6.228   2.180  15.923  1.5113 -2.0853 -1.1249
 7938TIP3    H245230   6.340   2.283  15.931 -0.8741  0.5823 -0.3118
 7939TIP3   OH245231   0.188   6.233   5.290  0.0108 -0.2182 -0.3228
 7939TIP3    H145232   0.221   6.278   5.213 -0.2193 -1.8134 -1.4088
 7939TIP3    H245233   0.122   6.172   5.256 -0.1239 -0.9368  1.1263
 7940TIP3   OH245234   6.290   2.941  12.683 -0.1936 -0.5685  0.3781
 7940TIP3    H145235   6.314   2.882  12.755 -0.0717  1.5407  2.1626
 7940TIP3    H245236   6.278   3.026  12.724 -0.6156  0.6466 -2.0573
 7941TIP3   OH245237   2.370   5.515   5.945  0.6546 -0.3260  0.3467
 7941TIP3    H145238   2.381   5.434   5.896 -0.3410  0.5928 -1.5178
 7941TIP3    H245239   2.440   5.513   6.011  0.9934 -2.4105 -0.0057
 7942TIP3   OH245240   0.490   5.211   2.432 -0.2182  0.1567 -0.2083
 7942TIP3    H145241   0.464   5.299   2.405 -0.1851  0.0932 -0.4488
 7942TIP3    H245242   0.438   5.153   2.376 -0.7562  0.0166  0.4233
 7943TIP3   OH245243   3.591   4.525   4.189 -0.1562 -0.2738  0.1893
 7943TIP3    H145244   3.657   4.567   4.244 -0.7459 -0.0236  0.7183
 7943TIP3    H245245   3.535   4.597   4.161  0.7181 -0.2353 -1.6030
 7944TIP3   OH245246   3.716   0.355  14.402 -0.1877 -0.2049 -0.0038
 7944TIP3    H145247   3.685   0.323  14.317 -0.6536  0.4981 -0.1116
 7944TIP3    H245248   3.667   0.304  14.466 -0.0048 -0.5765 -0.1550
 7945TIP3   OH245249   3.270   0.846  13.618  0.3291 -0.0611  0.0209
 7945TIP3    H145250   3.193   0.883  13.574 -0.3721 -0.3814  0.9461
 7945TIP3    H245251   3.313   0.794  13.550 -0.2163  0.2067 -0.5419
 7946TIP3   OH245252   1.361   3.362   2.545 -0.0584 -0.5350 -0.0441
 7946TIP3    H145253   1.406   3.389   2.465  0.0954  0.1735  0.2717
 7946TIP3    H245254   1.291   3.427   2.556 -1.4342 -1.8399 -0.7382
 7947TIP3   OH245255   5.586   5.241   2.715 -0.0059 -0.6298  0.3840
 7947TIP3    H145256   5.645   5.295   2.767  0.3276 -0.0274 -0.5976
 7947TIP3    H245257   5.501   5.248   2.760  0.8554 -2.5125  2.5416
 7948TIP3   OH245258   1.088   3.150   5.873 -0.2920  0.1036  0.5399
 7948TIP3    H145259   1.124   3.089   5.808 -1.3702 -0.4604  0.4487
 7948TIP3    H245260   1.008   3.108   5.903  0.8392 -0.3076  3.2628
 7949TIP3   OH245261   4.677   4.586  11.902  0.4641 -0.0622 -0.1503
 7949TIP3    H145262   4.718   4.590  11.816 -0.4875 -0.2751 -0.6325
 7949TIP3    H245263   4.638   4.498  11.906 -0.0380  0.1709  0.2314
 7950TIP3   OH245264   5.942   5.141   4.267 -0.3140 -0.4478 -0.1101
 7950TIP3    H145265   5.953   5.233   4.292  0.3582 -0.8066  1.0004
 7950TIP3    H245266   5.888   5.144   4.188 -1.7714  0.8255  0.8706
 7951TIP3   OH245267   1.049   5.887   0.681 -0.1651  0.2614  0.4434
 7951TIP3    H145268   1.018   5.799   0.703 -0.7475  0.6679  1.2868
 7951TIP3    H245269   1.129   5.898   0.732  0.2638 -0.0140 -0.1586
 7952TIP3   OH245270   2.995   6.040  12.330 -0.4166 -0.2371 -0.1039
 7952TIP3    H145271   2.958   6.090  12.403 -0.5529  0.6192 -0.7431
 7952TIP3    H245272   3.076   6.086  12.308  0.0125 -0.9367 -0.0026
 7953TIP3   OH245273   2.524   0.889   4.045  0.2523  0.2784  0.1938
 7953TIP3    H145274   2.566   0.805   4.067  0.1939  0.2748  0.2868
 7953TIP3    H245275   2.442   0.889   4.092 -0.6767 -0.4831 -1.3402
 7954TIP3   OH245276   0.963   2.999  16.517 -0.3426  0.5359  0.3029
 7954TIP3    H145277   1.044   2.975  16.564 -1.8620  0.1335  2.9158
 7954TIP3    H245278   0.959   3.094  16.524 -0.1742  0.5459  0.2830
 7955TIP3   OH245279   2.379   1.906  11.394  0.4073 -0.1786  0.0913
 7955TIP3    H145280   2.312   1.955  11.347  0.4361 -0.7786 -0.5855
 7955TIP3    H245281   2.434   1.868  11.325  1.3348  0.1556  0.6299
 7956TIP3   OH245282   2.086   0.884   4.782 -0.5326  0.3468  0.4643
 7956TIP3    H145283   2.155   0.907   4.844  0.1073  1.7272 -0.6913
 7956TIP3    H245284   2.015   0.946   4.801  0.2042  1.7268 -1.0078
 7957TIP3   OH245285   1.685   2.679   2.587  0.2723 -0.2015  0.8781
 7957TIP3    H145286   1.628   2.756   2.586  1.8660  1.0166  0.0379
 7957TIP3    H245287   1.707   2.664   2.495 -2.7087 -3.8415  0.5115
 7958TIP3   OH245288   5.127   3.269   3.103  0.5609 -0.1361  0.0015
 7958TIP3    H145289   5.193   3.216   3.057 -0.1815  0.1876 -1.5058
 7958TIP3    H245290   5.118   3.348   3.049  1.7523  1.6846  2.2560
 7959TIP3   OH245291   2.985   3.816   4.673  0.3429  0.1184 -1.1881
 7959TIP3    H145292   2.891   3.801   4.672  0.2619  0.3657  0.5929
 7959TIP3    H245293   3.022   3.732   4.703  0.6091  0.3509 -0.8629
 7960TIP3   OH245294   0.112   4.712   3.030  0.1302 -0.3305  0.0063
 7960TIP3    H145295   0.115   4.808   3.028 -0.6753 -0.2760  0.8350
 7960TIP3    H245296   0.088   4.690   3.120  0.0044 -1.3061 -0.2511
 7961TIP3   OH245297   0.250   4.202   4.727  0.4118  0.0792 -0.6556
 7961TIP3    H145298   0.260   4.165   4.640  0.6886  1.3464 -1.1818
 7961TIP3    H245299   0.335   4.241   4.747 -0.4296  2.2371 -1.0142
 7962TIP3   OH245300   0.918   0.431   3.465 -0.0716 -0.6283  0.0825
 7962TIP3    H145301   0.868   0.499   3.420  0.7226 -0.5434 -0.7164
 7962TIP3    H245302   0.862   0.403   3.537 -0.4730  0.7785  0.3506
 7963TIP3   OH245303   1.756   5.155  13.655  0.3323 -0.5779 -0.5584
 7963TIP3    H145304   1.824   5.089  13.656  1.1462  0.2350  0.7852
 7963TIP3    H245305   1.679   5.112  13.693  0.1167 -1.4458 -1.9241
 7964TIP3   OH245306   2.053   1.527  13.928  0.4209  0.4304 -0.2050
 7964TIP3    H145307   2.113   1.599  13.949 -0.7249  1.5198 -0.5439
 7964TIP3    H245308   2.081   1.498  13.841 -1.2586  2.8813 -1.6827
 7965TIP3   OH245309   0.319   2.134   5.366  0.1046  0.0598 -0.2192
 7965TIP3    H145310   0.300   2.131   5.460 -0.1206 -0.3585 -0.2732
 7965TIP3    H245311   0.311   2.043   5.337  0.0890  0.1976 -0.6608
 7966TIP3   OH245312   6.048   3.373  15.348 -0.5032 -0.1600 -0.1338
 7966TIP3    H145313   6.091   3.291  15.371 -1.3655 -0.5633  0.0632
 7966TIP3    H245314   5.990   3.392  15.421  0.7587  1.4233  0.5409
 7967TIP3   OH245315   4.361   2.880  11.708  0.4481 -0.5204 -0.0675
 7967TIP3    H145316   4.404   2.902  11.625  1.0731  0.0848  0.4019
 7967TIP3    H245317   4.268   2.872  11.685  0.3000  1.6537 -0.4957
 7968TIP3   OH245318   3.820   3.099   2.968  0.3716 -0.0346  0.3447
 7968TIP3    H145319   3.898   3.049   2.941  0.1060 -1.4694  2.1067
 7968TIP3    H245320   3.751   3.034   2.976 -0.6317  0.9951  0.3709
 7969TIP3   OH245321   5.557   5.725   3.568 -0.1865 -0.1610  0.7731
 7969TIP3    H145322   5.640   5.678   3.574  0.4802  0.8691  0.1257
 7969TIP3    H245323   5.534   5.721   3.475  0.1896  1.2387  0.5937
 7970TIP3   OH245324   0.963   0.945   1.306  0.4115  0.7022 -0.3035
 7970TIP3    H145325   0.958   1.037   1.333 -1.7734  0.4292  0.4345
 7970TIP3    H245326   0.884   0.932   1.254 -0.9251 -1.4569  2.0621
 7971TIP3   OH245327   1.144   3.307  17.405  0.0524 -0.0859  1.1565
 7971TIP3    H145328   1.126   3.213  17.399  2.2963 -0.5235  0.3073
 7971TIP3    H245329   1.183   3.318  17.492  1.0576 -0.2044  0.7301
 7972TIP3   OH245330   0.536   6.327  11.665 -0.0172  0.2957  0.7052
 7972TIP3    H145331   0.575   6.269  11.600 -0.1962  1.0728 -0.1176
 7972TIP3    H245332   0.579   6.304  11.747 -0.5985 -1.4845  0.5442
 7973TIP3   OH245333   3.201   6.161   0.236  0.0476 -0.1158 -0.2342
 7973TIP3    H145334   3.178   6.240   0.187  0.7297 -0.8953 -1.8998
 7973TIP3    H245335   3.249   6.193   0.312  2.3056  1.0364 -2.0223
 7974TIP3   OH245336   0.587   5.989  12.062 -0.1126 -0.5403 -0.0375
 7974TIP3    H145337   0.677   5.959  12.072  0.4784  1.2529  0.3449
 7974TIP3    H245338   0.534   5.917  12.097  1.2501 -0.7714  1.6471
 7975TIP3   OH245339   3.696   4.764  11.385 -0.2632 -0.5419 -0.5010
 7975TIP3    H145340   3.650   4.738  11.305 -0.8891  0.9473 -0.6639
 7975TIP3    H245341   3.672   4.856  11.398  0.0875 -0.6503  1.2276
 7976TIP3   OH245342   5.946   2.351  15.445  0.3336  0.5803 -0.3938
 7976TIP3    H145343   6.018   2.294  15.419 -0.0660  0.5047 -1.3756
 7976TIP3    H245344   5.923   2.398  15.365 -0.5168  0.8123 -0.0182
 7977TIP3   OH245345   3.927   0.203   5.462 -0.4587 -0.4746  0.4368
 7977TIP3    H145346   4.019   0.185   5.440 -0.2215  0.8805  0.2123
 7977TIP3    H245347   3.878   0.133   5.419  0.4232 -0.8672  0.0338
 7978TIP3   OH245348   5.045   2.532   1.402  0.2742  0.0444 -0.2929
 7978TIP3    H145349   5.039   2.439   1.383  1.1937 -0.1569  0.3485
 7978TIP3    H245350   5.015   2.540   1.492  0.5866  0.3067 -0.2083
 7979TIP3   OH245351   1.346   3.058  17.447  0.4480 -0.0433 -0.4825
 7979TIP3    H145352   1.313   3.081  17.534  1.0104  0.1940 -0.3323
 7979TIP3    H245353   1.296   2.979  17.423 -1.0339  0.9323 -0.7396
 7980TIP3   OH245354   5.936   2.393   4.605 -0.0790  0.0397  0.4380
 7980TIP3    H145355   5.975   2.320   4.557 -1.9004 -0.6722 -0.0381
 7980TIP3    H245356   5.994   2.407   4.680 -0.1453 -2.4953  1.0375
 7981TIP3   OH245357   5.173   1.831   0.493 -0.3754 -0.2156 -0.0651
 7981TIP3    H145358   5.255   1.784   0.483  0.0678  0.1341  1.6641
 7981TIP3    H245359   5.158   1.834   0.587 -2.3680 -0.2473 -0.3278
 7982TIP3   OH245360   1.225   1.157  14.065 -0.8498  0.3526  0.5469
 7982TIP3    H145361   1.265   1.239  14.037 -2.0744  0.0817 -2.4031
 7982TIP3    H245362   1.251   1.093  13.999 -1.5939 -1.1645  1.6414
 7983TIP3   OH245363   3.725   3.491   2.386 -0.6913  0.2749  0.3036
 7983TIP3    H145364   3.815   3.524   2.379 -0.4864  0.1418  1.8500
 7983TIP3    H245365   3.671   3.570   2.394 -0.8363  0.3902 -1.4800
 7984TIP3   OH245366   0.058   1.689  15.331 -0.1007  0.0114  0.2793
 7984TIP3    H145367   0.087   1.777  15.356  0.8292  0.2536 -1.4372
 7984TIP3    H245368  -0.037   1.692  15.336 -0.0443  0.8654  1.0297
 7985TIP3   OH245369   0.592   2.414  16.163  0.2780  0.1659  0.0373
 7985TIP3    H145370   0.603   2.499  16.120 -0.0113  1.0141  1.5759
 7985TIP3    H245371   0.500   2.412  16.190  0.6414  0.0183  1.3118
 7986TIP3   OH245372   4.933   5.293   5.246 -0.0858  0.3643 -0.5791
 7986TIP3    H145373   5.020   5.257   5.259 -0.5739 -1.2840 -1.5936
 7986TIP3    H245374   4.931   5.319   5.154 -0.1690  1.8894 -0.1750
 7987TIP3   OH245375   2.983   1.859   1.605 -0.3297 -0.0027 -0.0712
 7987TIP3    H145376   2.914   1.863   1.671  0.6483  1.4534  0.9079
 7987TIP3    H245377   2.990   1.949   1.572 -0.6589 -0.6454 -2.0561
 7988TIP3   OH245378   2.431   4.006  14.993  0.0828 -0.1488  0.1213
 7988TIP3    H145379   2.367   4.043  15.054 -0.8758  1.7531 -1.8903
 7988TIP3    H245380   2.516   4.034  15.026 -0.2814 -0.4820  1.3875
 7989TIP3   OH245381   5.829   1.630   3.399  0.7316  0.6260 -0.0989
 7989TIP3    H145382   5.902   1.677   3.358  1.0045  0.6684  0.4346
 7989TIP3    H245383   5.791   1.579   3.327  0.9366  1.0330 -0.5037
 7990TIP3   OH245384   2.597   5.927   3.623 -0.1071 -0.0716  0.2213
 7990TIP3    H145385   2.669   5.985   3.598  0.1835 -0.0556  1.0707
 7990TIP3    H245386   2.518   5.977   3.604  0.1448  1.0816  1.9845
 7991TIP3   OH245387   6.335   5.679  13.196  0.1093  0.1252 -0.4272
 7991TIP3    H145388   6.336   5.725  13.112 -1.4945  0.4411 -0.3176
 7991TIP3    H245389   6.244   5.686  13.225  0.2279 -1.5774  0.4563
 7992TIP3   OH245390   4.696   0.540  13.985  0.2363 -0.4394 -0.0077
 7992TIP3    H145391   4.643   0.617  13.967  2.7850  1.3472 -0.4630
 7992TIP3    H245392   4.682   0.483  13.910 -1.6324 -0.4306  0.2966
 7993TIP3   OH245393   2.084   1.117   3.337 -0.6891 -0.7855 -0.2409
 7993TIP3    H145394   2.030   1.174   3.392 -1.2378 -1.3056 -0.2246
 7993TIP3    H245395   2.052   1.134   3.248 -1.7322 -1.9504 -0.1273
 7994TIP3   OH245396   1.638   4.425  15.169  0.1315  0.3959 -0.1717
 7994TIP3    H145397   1.566   4.475  15.207  1.0983  1.8721 -0.2342
 7994TIP3    H245398   1.650   4.463  15.082  0.5387 -0.3154 -0.4337
 7995TIP3   OH245399   5.304   3.175  17.500 -0.6227 -0.5190  0.0035
 7995TIP3    H145400   5.339   3.102  17.551  0.3046 -0.4013 -0.4449
 7995TIP3    H245401   5.362   3.181  17.424 -0.1494  1.2448  0.4667
 7996TIP3   OH245402   3.921   2.914  15.460 -0.5389  0.3884 -0.1257
 7996TIP3    H145403   3.955   2.932  15.372 -0.7188  0.2975 -0.2123
 7996TIP3    H245404   3.923   2.819  15.468  0.7820  0.4412  0.4793
 7997TIP3   OH245405   5.356   2.756  11.330 -0.1579  0.2247 -0.4050
 7997TIP3    H145406   5.400   2.750  11.245  0.3191  1.6726 -0.2825
 7997TIP3    H245407   5.329   2.847  11.337 -2.1650 -0.3464  0.0554
 7998TIP3   OH245408   3.748   5.430  14.117  0.0130  0.1986 -0.1769
 7998TIP3    H145409   3.758   5.446  14.024  1.7912  1.2632  0.1496
 7998TIP3    H245410   3.835   5.446  14.154 -0.8878  0.8932  1.8189
 7999TIP3   OH245411   2.006   5.174   1.982 -0.3256  0.1536 -0.4611
 7999TIP3    H145412   2.083   5.117   1.989  0.0680  0.5536 -1.4081
 7999TIP3    H245413   1.973   5.161   1.893 -0.1283  1.5133 -0.7598
 8000TIP3   OH245414   6.585   0.582   6.998 -0.0854 -0.2527 -0.3894
 8000TIP3    H145415   6.520   0.516   7.022  0.8180 -0.9254  0.2795
 8000TIP3    H245416   6.587   0.580   6.902 -2.2474  0.9878 -0.5058
 8001TIP3   OH245417   3.620   4.351   3.546 -0.1528 -0.4996  0.0061
 8001TIP3    H145418   3.558   4.309   3.605  0.1629 -0.6264  0.2495
 8001TIP3    H245419   3.673   4.407   3.603 -0.3368 -0.0422 -0.2638
 8002TIP3   OH245420   4.810   2.470  11.880  0.6628 -0.0458 -0.1673
 8002TIP3    H145421   4.906   2.476  11.876  0.7672 -0.2293  1.4042
 8002TIP3    H245422   4.794   2.381  11.912  0.0340  0.4197  0.8655
 8003TIP3   OH245423   1.983   3.213  17.467 -0.1355  0.6305  0.3201
 8003TIP3    H145424   1.894   3.207  17.502 -0.6244  1.5166 -0.6992
 8003TIP3    H245425   2.039   3.212  17.544 -1.1857  2.6531  1.1929
 8004TIP3   OH245426   2.100   6.107   0.644 -0.0229  0.1173  0.6685
 8004TIP3    H145427   2.190   6.137   0.630 -0.4683  0.8499 -0.7391
 8004TIP3    H245428   2.073   6.150   0.725 -0.0344  2.1854 -0.3753
 8005TIP3   OH245429   3.461   3.374  11.560  0.0927  0.1562 -0.0201
 8005TIP3    H145430   3.464   3.386  11.465 -4.2402  1.1104 -0.2496
 8005TIP3    H245431   3.538   3.421  11.592 -1.1338  4.8092 -2.8132
 8006TIP3   OH245432   0.084   6.330   5.990  0.1845  0.1137  0.3722
 8006TIP3    H145433   0.135   6.285   5.923 -0.3304  1.3158 -0.8929
 8006TIP3    H245434   0.011   6.271   6.009 -1.4851  1.0008 -2.5538
 8007TIP3   OH245435   1.147   3.993   3.584 -1.0173  0.4339 -0.0459
 8007TIP3    H145436   1.109   4.050   3.518  3.5168  0.8919 -2.6020
 8007TIP3    H245437   1.138   3.905   3.548  2.0064  0.7322 -1.8588
 8008TIP3   OH245438   6.403   6.084  13.106  0.4152  0.1594  0.2438
 8008TIP3    H145439   6.479   6.037  13.072 -0.6698 -0.5488 -1.3059
 8008TIP3    H245440   6.420   6.176  13.084 -0.0469 -0.2253 -1.8960
 8009TIP3   OH245441   2.544   5.938  16.290  0.8182  0.1209  0.3284
 8009TIP3    H145442   2.585   5.988  16.219  1.7475  2.6830  2.4920
 8009TIP3    H245443   2.450   5.943  16.272  0.6557  4.4248  1.2992
 8010TIP3   OH245444   4.274   4.401   5.142  0.1266  0.0639  0.2209
 8010TIP3    H145445   4.220   4.477   5.159 -0.2466 -0.4017  1.2324
 8010TIP3    H245446   4.224   4.327   5.177 -0.9826 -1.1568 -3.4698
 8011TIP3   OH245447   3.843   5.557  11.006  0.9255 -0.1996  0.3244
 8011TIP3    H145448   3.932   5.530  11.028  0.5555 -0.1994  1.9150
 8011TIP3    H245449   3.855   5.637  10.953  1.8629 -0.3694  0.2610
 8012TIP3   OH245450   0.477   0.564   0.816  0.3103  0.4525  0.4233
 8012TIP3    H145451   0.479   0.474   0.784  0.4624  0.9140 -0.9254
 8012TIP3    H245452   0.384   0.583   0.830  0.2394  0.2666  0.1961
 8013TIP3   OH245453   4.004   5.135   1.927 -0.0529 -0.6624  0.0016
 8013TIP3    H145454   3.934   5.107   1.869 -0.3312  0.4037 -0.2059
 8013TIP3    H245455   4.037   5.054   1.967  0.1844 -1.4093 -1.6567
 8014TIP3   OH245456   0.261   0.824  13.931 -0.1986  0.0106 -0.0459
 8014TIP3    H145457   0.272   0.772  13.852 -1.8819  0.9244 -0.9448
 8014TIP3    H245458   0.221   0.764  13.994  0.0589 -0.4047 -0.2760
 8015TIP3   OH245459   3.765   2.276   4.350  0.6362 -0.0464  0.7026
 8015TIP3    H145460   3.804   2.289   4.436  1.0492  2.1744  0.2348
 8015TIP3    H245461   3.735   2.363   4.324 -0.4795 -0.8690 -0.9389
 8016TIP3   OH245462   3.258   5.998  13.534  0.3835 -0.0900  0.0531
 8016TIP3    H145463   3.350   6.002  13.559  0.3629  0.4268  0.0573
 8016TIP3    H245464   3.252   5.921  13.476  1.2411  1.0691 -1.6534
 8017TIP3   OH245465   4.721   4.077   3.499  0.0723 -0.1293 -0.2065
 8017TIP3    H145466   4.665   4.131   3.556  1.3191 -0.2388  1.1930
 8017TIP3    H245467   4.810   4.100   3.525  0.6681 -1.1197 -1.2801
 8018TIP3   OH245468   2.389   2.969  13.805 -0.6995 -0.2075 -0.0364
 8018TIP3    H145469   2.387   3.052  13.852 -0.1485 -0.8979  1.2633
 8018TIP3    H245470   2.478   2.963  13.770 -0.6218 -0.4131  0.1921
 8019TIP3   OH245471   1.062   0.974  12.643 -0.6909  0.2643 -0.6704
 8019TIP3    H145472   1.066   0.926  12.560  1.2271 -0.9922  0.0768
 8019TIP3    H245473   1.029   0.911  12.706 -0.9468  0.8335 -0.2219
 8020TIP3   OH245474   2.564   3.381  11.307 -0.5778 -0.0179 -0.0680
 8020TIP3    H145475   2.532   3.416  11.224 -0.8303  0.6628  0.3074
 8020TIP3    H245476   2.547   3.287  11.301  0.1574 -0.1016 -1.1091
 8021TIP3   OH245477   2.484   5.039   2.029 -0.1243 -0.3280  0.0348
 8021TIP3    H145478   2.533   4.977   1.974 -1.4346  0.1308 -1.7135
 8021TIP3    H245479   2.536   5.119   2.027 -0.8355  0.1315 -1.7521
 8022TIP3   OH245480   6.731   4.680   4.510 -0.0820  0.7371  0.4037
 8022TIP3    H145481   6.742   4.763   4.464 -0.0110  0.9679  0.8371
 8022TIP3    H245482   6.699   4.704   4.596 -0.8051  0.2677  0.2760
 8023TIP3   OH245483   0.018   6.032   3.151  0.3109  0.1765  0.2528
 8023TIP3    H145484   0.030   6.080   3.233  2.1898 -0.3310  0.3193
 8023TIP3    H245485   0.104   6.033   3.110 -0.0521 -1.4744 -0.6530
 8024TIP3   OH245486   3.676   5.046  15.897  0.1314  0.0897  0.0003
 8024TIP3    H145487   3.653   4.954  15.909  0.2461 -0.0613 -0.8626
 8024TIP3    H245488   3.628   5.093  15.966 -1.2133 -0.4250 -0.5613
 8025TIP3   OH245489   5.879   6.709  12.183 -0.9369  0.0999 -0.0084
 8025TIP3    H145490   5.970   6.736  12.196 -0.9505 -0.3121  1.0403
 8025TIP3    H245491   5.837   6.785  12.144 -0.6044  1.0576  1.3951
 8026TIP3   OH245492   0.441   4.107   1.967  0.1708  0.2747 -0.3854
 8026TIP3    H145493   0.421   4.125   2.059  0.2618 -0.4690 -0.2137
 8026TIP3    H245494   0.358   4.080   1.929  0.3899 -0.7560 -0.1788
 8027TIP3   OH245495   1.255   2.566   0.176 -0.1220  0.3213  0.3230
 8027TIP3    H145496   1.253   2.555   0.271 -0.4280  3.8941  0.8805
 8027TIP3    H245497   1.224   2.482   0.141 -0.3244 -0.9914  3.3606
 8028TIP3   OH245498   5.113   5.621  12.705 -0.3326  0.3492  0.2834
 8028TIP3    H145499   5.135   5.615  12.613 -0.2959 -1.3179  0.3733
 8028TIP3    H245500   5.197   5.622  12.751 -0.3595  0.3618  0.3335
 8029TIP3   OH245501   0.375   3.822  11.787 -0.1909  0.0808  0.2351
 8029TIP3    H145502   0.430   3.808  11.710 -1.1944  2.3007 -0.9551
 8029TIP3    H245503   0.414   3.896  11.832 -0.7873  0.0910  0.7598
 8030TIP3   OH245504   2.479   0.158  12.441 -0.1909 -0.4719 -0.3676
 8030TIP3    H145505   2.543   0.151  12.512  1.0213 -0.3148 -1.3998
 8030TIP3    H245506   2.415   0.089  12.460 -0.0499 -0.2591  1.0068
 8031TIP3   OH245507   4.687   5.815  12.443  0.6349 -0.0092 -0.0583
 8031TIP3    H145508   4.761   5.843  12.388  1.7998 -0.8997  1.0111
 8031TIP3    H245509   4.665   5.728  12.410 -0.7166  0.6880 -1.1074
 8032TIP3   OH245510   1.721   6.053  13.473  1.0571  0.1315  0.3144
 8032TIP3    H145511   1.656   5.993  13.510  1.2296 -0.4216 -0.2483
 8032TIP3    H245512   1.762   6.002  13.403  3.0671 -0.0423  1.5429
 8033TIP3   OH245513   2.564   0.094  12.189  0.3984  0.5546  0.5913
 8033TIP3    H145514   2.515   0.122  12.267 -0.5048 -1.1969  0.7153
 8033TIP3    H245515   2.512   0.022  12.153  1.6252  0.2871 -0.7321
 8034TIP3   OH245516   1.575   1.305   0.187 -0.1007 -0.3215  0.2740
 8034TIP3    H145517   1.502   1.365   0.171  0.1988 -0.4014 -1.5691
 8034TIP3    H245518   1.551   1.259   0.268 -1.9884 -0.2004 -0.1812
 8035TIP3   OH245519   0.700   3.448   4.134 -0.5325  0.7364 -0.3415
 8035TIP3    H145520   0.760   3.377   4.110 -1.0844 -0.2379  1.0364
 8035TIP3    H245521   0.648   3.464   4.056  0.7019  0.7747 -1.1843
 8036TIP3   OH245522   0.692   1.513   1.044  0.1582  0.0831  0.1023
 8036TIP3    H145523   0.788   1.511   1.051  0.2977  2.4359 -0.5605
 8036TIP3    H245524   0.665   1.428   1.079  2.4710 -0.6337  0.3573
 8037TIP3   OH245525   1.681   4.828  17.372  0.5180  0.3177  0.3649
 8037TIP3    H145526   1.720   4.762  17.315 -0.8511  0.6307 -1.0063
 8037TIP3    H245527   1.637   4.778  17.440  0.8451 -0.1244  0.2565
 8038TIP3   OH245528   0.500   3.938   5.476  0.3565 -0.1516  0.2640
 8038TIP3    H145529   0.479   3.926   5.383 -0.5596  1.6417  0.2031
 8038TIP3    H245530   0.439   3.880   5.522 -1.4267  1.3161 -0.1491
 8039TIP3   OH245531   3.530   6.053  15.803  0.3098  0.0741  0.2873
 8039TIP3    H145532   3.567   5.995  15.869 -0.4432 -1.1587 -0.3486
 8039TIP3    H245533   3.596   6.055  15.733  0.6112  0.5014  0.5749
 8040TIP3   OH245534   3.907   3.985  14.774 -0.0414  0.7961 -0.0118
 8040TIP3    H145535   3.826   3.956  14.732  1.1887 -1.1285 -1.1806
 8040TIP3    H245536   3.976   3.931  14.735  1.8398  2.3623  0.9315
 8041TIP3   OH245537   5.400   5.095  11.758  0.3742 -0.2914  0.4171
 8041TIP3    H145538   5.452   5.128  11.685 -0.6838  0.1253 -0.1798
 8041TIP3    H245539   5.312   5.129  11.742 -0.0387 -0.7781  1.5152
 8042TIP3   OH245540   1.558   5.631  16.879  0.0556 -0.1529  0.6112
 8042TIP3    H145541   1.526   5.563  16.938 -1.0264 -0.6703 -0.5331
 8042TIP3    H245542   1.510   5.617  16.797 -1.2292  2.8276  0.7407
 8043TIP3   OH245543   2.320   5.333  12.292 -0.1790 -0.0899  0.3538
 8043TIP3    H145544   2.290   5.250  12.328  1.1559  0.2270  2.4109
 8043TIP3    H245545   2.342   5.314  12.201 -0.3926 -1.8674  0.6428
 8044TIP3   OH245546   4.945   5.748  12.988 -0.0898 -0.3561 -0.9986
 8044TIP3    H145547   4.876   5.812  12.974 -0.4856 -0.2303  1.2001
 8044TIP3    H245548   4.957   5.706  12.903 -3.2441 -0.7730 -1.3526
 8045TIP3   OH245549   3.383   5.358  11.897 -0.4577 -0.1589 -0.0469
 8045TIP3    H145550   3.317   5.428  11.897  0.3230  0.6495  1.9698
 8045TIP3    H245551   3.358   5.302  11.824 -2.5009  0.9395 -0.2691
 8046TIP3   OH245552   3.599   5.455  16.187 -0.2143 -0.2099 -0.2836
 8046TIP3    H145553   3.652   5.510  16.245 -0.5814 -1.1008  0.9249
 8046TIP3    H245554   3.552   5.518  16.132  1.2587  0.6113 -0.6500
 8047TIP3   OH245555   0.989   0.387   5.915 -0.6166 -0.1989  0.1602
 8047TIP3    H145556   0.934   0.319   5.876 -0.6247 -0.3365  0.4072
 8047TIP3    H245557   1.072   0.343   5.932  0.3869  0.5720 -2.2947
 8048TIP3   OH245558   6.188   1.050  17.245  0.1632 -0.7744 -0.0825
 8048TIP3    H145559   6.153   1.113  17.309 -1.7350 -0.1184 -1.6592
 8048TIP3    H245560   6.235   1.104  17.182 -1.2040 -0.8833 -1.2695
 8049TIP3   OH245561   5.442   3.766  15.276  0.3421  0.2565  0.4873
 8049TIP3    H145562   5.413   3.683  15.314 -2.0548  0.6815 -0.2475
 8049TIP3    H245563   5.453   3.747  15.183 -1.8047  1.0709  0.0131
 8050TIP3   OH245564   2.784   3.153   1.094  0.6095 -0.6530  0.1425
 8050TIP3    H145565   2.792   3.100   1.016 -2.9981 -2.3531  0.7072
 8050TIP3    H245566   2.782   3.090   1.166 -0.0326  0.5334  1.2131
 8051TIP3   OH245567   0.880   3.797   1.087  0.6015  0.0748  0.1476
 8051TIP3    H145568   0.845   3.752   1.164  1.8152  0.0067  0.6740
 8051TIP3    H245569   0.850   3.745   1.013 -1.9287  0.9952  0.4259
 8052TIP3   OH245570   2.501   1.230  13.931  0.2254 -0.0858  0.3564
 8052TIP3    H145571   2.515   1.321  13.906 -0.3455 -0.1512 -0.2413
 8052TIP3    H245572   2.584   1.186  13.910  0.3914  0.2338  0.3442
 8053TIP3   OH245573   1.311   4.218   6.043  0.7777 -0.0533  0.4156
 8053TIP3    H145574   1.286   4.173   5.963  3.8942  0.2718 -0.8513
 8053TIP3    H245575   1.380   4.163   6.082 -0.0156  0.2702  2.4350
 8054TIP3   OH245576   5.651   3.980  15.284 -0.0956  0.4450  0.6970
 8054TIP3    H145577   5.648   4.071  15.313  0.3016  0.3965  0.8863
 8054TIP3    H245578   5.561   3.961  15.256  0.3080  1.6653 -1.6956
 8055TIP3   OH245579   0.556   5.766   4.796 -0.2664 -0.1618  0.2994
 8055TIP3    H145580   0.504   5.686   4.795  0.3114 -0.5920  2.1725
 8055TIP3    H245581   0.548   5.799   4.885 -0.0078  1.5645 -0.2798
 8056TIP3   OH245582   3.706   5.375  11.815 -0.2041  0.0751  0.8071
 8056TIP3    H145583   3.686   5.352  11.724 -2.2455 -0.6844  1.3842
 8056TIP3    H245584   3.674   5.465  11.825  1.5464  0.7834  0.3709
 8057TIP3   OH245585   0.601   2.962   2.376 -0.1056 -0.0990 -0.2320
 8057TIP3    H145586   0.544   2.913   2.434  1.1895 -0.3666  0.8601
 8057TIP3    H245587   0.679   2.981   2.429  0.1292  1.6947 -1.1444
 8058TIP3   OH245588   1.484   3.747   3.006 -0.3042  0.2971  0.0725
 8058TIP3    H145589   1.446   3.834   2.994 -0.2452  0.3715  0.4101
 8058TIP3    H245590   1.578   3.761   2.996 -0.4362 -0.2605 -3.0518
 8059TIP3   OH245591   3.660   3.333  14.079  0.3257  0.1536  0.5981
 8059TIP3    H145592   3.708   3.250  14.082 -0.9253 -0.5946  0.3744
 8059TIP3    H245593   3.660   3.363  14.170  2.6262  1.0243  0.3720
 8060TIP3   OH245594   1.786   2.984   1.471  0.3597  0.2877  0.2869
 8060TIP3    H145595   1.770   2.904   1.422  1.2922  0.2505  0.0246
 8060TIP3    H245596   1.806   2.954   1.560  1.2744  0.1808  0.0547
 8061TIP3   OH245597   6.328   5.540   2.807 -0.1942 -0.0992  0.3112
 8061TIP3    H145598   6.354   5.590   2.884  0.4955  2.1565 -1.2888
 8061TIP3    H245599   6.239   5.569   2.788 -0.9353 -1.7730  1.0914
 8062TIP3   OH245600   2.144   6.067   5.254 -0.3623  0.4833  0.9877
 8062TIP3    H145601   2.094   6.062   5.335 -1.5058 -1.0920  0.2575
 8062TIP3    H245602   2.172   5.976   5.238 -2.2042  0.2524 -1.5440
 8063TIP3   OH245603   1.638   1.573  14.000  0.0248 -0.4693  0.6744
 8063TIP3    H145604   1.725   1.555  13.963  0.1277  0.4756  0.4514
 8063TIP3    H245605   1.578   1.566  13.926  0.0754  0.1600  0.5686
 8064TIP3   OH245606   1.722   1.726  11.101  0.2426  0.1849  0.2179
 8064TIP3    H145607   1.637   1.696  11.069 -0.2300  0.8638  0.7810
 8064TIP3    H245608   1.762   1.771  11.026  0.9801 -1.8202 -0.6425
 8065TIP3   OH245609   5.747   3.959   2.889 -0.3342 -0.5482  0.6433
 8065TIP3    H145610   5.759   3.927   2.978 -0.3136  1.5797  1.4799
 8065TIP3    H245611   5.681   3.901   2.851 -0.5244 -1.3520  2.1225
 8066TIP3   OH245612   4.813   1.265   5.253 -0.2413 -0.7513  0.9276
 8066TIP3    H145613   4.773   1.274   5.166  0.6899  1.0441  0.6171
 8066TIP3    H245614   4.904   1.241   5.235  0.3835  1.1331  1.2468
 8067TIP3   OH245615   0.653   5.050   5.835 -0.0490  0.3738 -0.5926
 8067TIP3    H145616   0.666   4.975   5.893 -1.4083 -1.2630 -2.3089
 8067TIP3    H245617   0.567   5.084   5.859  0.6877  1.6327  0.3860
 8068TIP3   OH245618   3.949   2.681   0.204 -0.1059  0.2037 -0.0323
 8068TIP3    H145619   3.914   2.770   0.208 -0.9330  0.1869 -3.5270
 8068TIP3    H245620   4.022   2.687   0.142 -0.1385 -1.5374 -0.2872
 8069TIP3   OH245621   0.755   4.279   0.319 -0.0841 -0.1905  0.0181
 8069TIP3    H145622   0.684   4.341   0.307  1.7663  2.1672  0.4680
 8069TIP3    H245623   0.780   4.254   0.230 -0.3931  0.2638 -0.1998
 8070TIP3   OH245624   5.834   4.083  15.068 -0.1290 -0.1482  0.3599
 8070TIP3    H145625   5.862   4.107  15.156 -0.5801 -1.0204  0.7479
 8070TIP3    H245626   5.739   4.089  15.070 -0.1446 -0.2185 -0.0587
 8071TIP3   OH245627   5.758   5.349   5.656 -0.0715 -0.3957 -0.4466
 8071TIP3    H145628   5.838   5.323   5.703 -0.2819 -1.0547 -0.4470
 8071TIP3    H245629   5.746   5.442   5.678  0.9523 -0.1626 -0.8204
 8072TIP3   OH245630   4.586   3.551   0.940 -0.4594 -0.1403 -0.4537
 8072TIP3    H145631   4.564   3.459   0.924 -1.1425 -0.0265 -0.1797
 8072TIP3    H245632   4.551   3.598   0.863 -1.7372  0.1161  0.2590
 8073TIP3   OH245633   4.759   0.728   4.989 -0.2188  0.0960 -0.0592
 8073TIP3    H145634   4.769   0.645   4.942 -3.2822 -0.4836  0.1444
 8073TIP3    H245635   4.782   0.708   5.079 -0.6374 -0.4724 -0.0752
 8074TIP3   OH245636   4.145   6.219  15.542 -0.0395  0.0619  0.3226
 8074TIP3    H145637   4.173   6.252  15.457 -1.0908  1.5076  0.4997
 8074TIP3    H245638   4.196   6.269  15.606 -2.0713  1.8906  0.6101
 8075TIP3   OH245639   0.582   2.622   2.327 -0.1033 -0.1534  0.3571
 8075TIP3    H145640   0.486   2.622   2.324 -0.1066 -0.5220  0.4161
 8075TIP3    H245641   0.609   2.616   2.236 -0.1252  1.2086  0.2477
 8076TIP3   OH245642   4.739   2.561  15.283  0.3462  0.0509 -0.1708
 8076TIP3    H145643   4.735   2.622  15.209 -0.9713 -0.3058 -0.4197
 8076TIP3    H245644   4.775   2.613  15.355  1.3239  0.4994 -0.9552
 8077TIP3   OH245645   0.461   6.390   1.649  0.1312 -0.4561 -0.2451
 8077TIP3    H145646   0.402   6.461   1.625  1.5667  0.9139  0.0910
 8077TIP3    H245647   0.405   6.313   1.658 -1.4595  0.6193 -0.6855
 8078TIP3   OH245648   5.719   1.718   4.669 -0.1335  0.4571  0.5830
 8078TIP3    H145649   5.638   1.761   4.698 -0.4094 -0.3035  0.9721
 8078TIP3    H245650   5.735   1.754   4.582 -0.5695  1.0463  0.7343
 8079TIP3   OH245651   1.141   6.509  17.011 -0.3121 -0.0614  0.1279
 8079TIP3    H145652   1.186   6.428  16.989 -1.1517 -0.8179  1.1139
 8079TIP3    H245653   1.149   6.516  17.106 -0.4929  0.8705  0.0881
 8080TIP3   OH245654   6.459   0.012  14.139 -0.7694  0.4523 -0.5502
 8080TIP3    H145655   6.472   0.061  14.057 -3.1481  1.3417 -0.4818
 8080TIP3    H245656   6.455   0.079  14.207  2.2408 -0.3385  0.5588
 8081TIP3   OH245657   0.866   0.406  13.005 -0.4350 -0.8585 -0.0305
 8081TIP3    H145658   0.901   0.338  12.947  0.0391 -0.4629 -0.2164
 8081TIP3    H245659   0.940   0.431  13.059 -0.1590  0.6394 -1.0492
 8082TIP3   OH245660   1.239   6.631   2.382  0.2476  0.2775  0.3097
 8082TIP3    H145661   1.304   6.562   2.387 -0.7781 -0.7101  0.3489
 8082TIP3    H245662   1.186   6.621   2.461 -1.4796 -0.5341 -0.8753
 8083TIP3   OH245663   5.386   5.367   4.984 -0.2013 -0.3761 -0.2979
 8083TIP3    H145664   5.293   5.351   4.998 -0.4561  1.9937  1.1750
 8083TIP3    H245665   5.430   5.320   5.054 -0.4158 -0.2153 -0.0546
 8084TIP3   OH245666   3.705   2.311   5.092  0.3759 -0.2342  0.0180
 8084TIP3    H145667   3.748   2.264   5.164 -0.3535 -0.8848  0.0397
 8084TIP3    H245668   3.776   2.332   5.031  1.1755  1.1341  1.3333
 8085TIP3   OH245669   3.957   2.564   0.990  0.5205 -0.0602 -0.2136
 8085TIP3    H145670   3.947   2.503   1.063  0.3273 -0.2439 -0.3912
 8085TIP3    H245671   3.889   2.629   1.003  0.9248  0.2963  0.1477
 8086TIP3   OH245672   1.709   1.786  12.036 -0.5837  0.5157 -0.4504
 8086TIP3    H145673   1.659   1.770  12.116 -1.3561  2.0749 -0.5698
 8086TIP3    H245674   1.660   1.741  11.967 -0.2402 -0.3307 -0.1576
 8087TIP3   OH245675   1.515   2.457   2.484 -0.0836  0.2504 -0.9190
 8087TIP3    H145676   1.440   2.428   2.536 -0.6639  0.4916 -1.5988
 8087TIP3    H245677   1.572   2.502   2.547 -0.4657 -0.0084 -0.3764
 8088TIP3   OH245678   3.026   1.248  13.939 -0.1934  0.2356 -0.0022
 8088TIP3    H145679   3.016   1.344  13.940  0.3501  0.2968 -0.1692
 8088TIP3    H245680   2.936   1.215  13.943 -0.3875  0.7532  0.0405
 8089TIP3   OH245681   5.537   4.401  15.596  0.2499  0.5826 -0.2384
 8089TIP3    H145682   5.509   4.473  15.540 -0.8763 -0.5696 -1.2356
 8089TIP3    H245683   5.487   4.412  15.677  0.2830  1.0669 -0.2865
 8090TIP3   OH245684   5.143   3.810  11.744 -0.3766 -0.5133  0.2763
 8090TIP3    H145685   5.101   3.888  11.780 -0.9532  0.4029 -2.1954
 8090TIP3    H245686   5.139   3.746  11.816  0.5847  1.8200  2.5835
 8091TIP3   OH245687   6.695   3.286  15.467 -0.0947 -0.6733 -0.5046
 8091TIP3    H145688   6.622   3.347  15.461 -0.5029 -1.2753 -3.0398
 8091TIP3    H245689   6.656   3.204  15.497 -0.2596 -0.6739 -0.7168
 8092TIP3   OH245690   5.362   2.627  12.436  0.0519  0.6927  0.5956
 8092TIP3    H145691   5.409   2.548  12.466 -1.5006  0.1693  1.7731
 8092TIP3    H245692   5.283   2.594  12.395 -1.5668  1.6306  2.7820
 8093TIP3   OH245693   0.603   2.868   2.080 -0.6317  0.0200 -0.6233
 8093TIP3    H145694   0.534   2.904   2.135 -2.2050 -2.7420 -0.6082
 8093TIP3    H245695   0.597   2.918   1.998 -0.5182  1.8781  0.4391
 8094TIP3   OH245696   6.310   1.026   5.182  0.5436 -0.3316  0.2535
 8094TIP3    H145697   6.258   1.092   5.227 -1.0872 -0.1955 -1.6893
 8094TIP3    H245698   6.286   0.944   5.226  0.5230  0.0302  0.9335
 8095TIP3   OH245699   3.710   6.535  15.181 -0.6183  0.3193 -0.2775
 8095TIP3    H145700   3.756   6.614  15.151  1.1708 -1.0377 -1.2962
 8095TIP3    H245701   3.630   6.533  15.128  0.1381  0.5916 -1.4856
 8096TIP3   OH245702   1.695   6.358   4.150  0.2732  0.1689  0.1745
 8096TIP3    H145703   1.718   6.431   4.092  0.4990  0.0262  0.0855
 8096TIP3    H245704   1.737   6.282   4.111  1.9181  0.3568  1.4736
 8097TIP3   OH245705   1.161   0.964   0.666 -0.2291  0.0991  0.4141
 8097TIP3    H145706   1.216   0.952   0.743  0.1826  0.2559  0.1468
 8097TIP3    H245707   1.072   0.945   0.697  0.0908 -1.1984  0.5854
 8098TIP3   OH245708   4.882   1.219  16.997 -0.2796  0.1040 -0.3474
 8098TIP3    H145709   4.891   1.282  16.926  2.1194 -0.7573 -0.8924
 8098TIP3    H245710   4.893   1.271  17.077  0.0616  0.6243 -0.7280
 8099TIP3   OH245711   2.482   1.008  14.364 -0.4116 -0.3623 -0.2749
 8099TIP3    H145712   2.542   1.058  14.419  0.4247 -0.3366 -1.1755
 8099TIP3    H245713   2.418   1.071  14.333  1.3536  0.5229 -2.4251
 8100TIP3   OH245714   6.094   3.517  11.790  0.3798  0.6892 -0.5759
 8100TIP3    H145715   6.076   3.443  11.732  0.4345  2.0365 -2.3548
 8100TIP3    H245716   6.180   3.498  11.827 -0.5927 -1.2960  0.9297
 8101TIP3   OH245717   5.065   4.825  12.637 -0.4499 -0.6815  0.6265
 8101TIP3    H145718   5.100   4.818  12.548 -0.1825  1.2590  0.5470
 8101TIP3    H245719   5.141   4.810  12.694 -0.1920  0.1129  0.4954
 8102TIP3   OH245720   2.000   1.121   2.417 -0.3297 -0.1192  0.2915
 8102TIP3    H145721   1.914   1.154   2.441 -0.4126 -1.1930  1.6318
 8102TIP3    H245722   1.982   1.047   2.359 -0.2746  0.1556 -0.0777
 8103TIP3   OH245723   3.589   6.590  15.474  0.2759  0.0757  0.4095
 8103TIP3    H145724   3.563   6.679  15.449  3.3939  1.2302  0.8580
 8103TIP3    H245725   3.626   6.552  15.395 -0.9598 -0.8298  0.2459
 8104TIP3   OH245726   6.130   6.648   0.996 -0.5679 -0.7017  0.6965
 8104TIP3    H145727   6.139   6.680   1.086  1.5293  0.3285  0.1842
 8104TIP3    H245728   6.184   6.708   0.944 -1.4945 -1.4544 -1.2209
 8105TIP3   OH245729   6.411   2.005  14.934  0.2592 -0.3687  0.9066
 8105TIP3    H145730   6.373   1.935  14.988 -0.9668 -0.7964 -0.4232
 8105TIP3    H245731   6.492   1.967  14.900 -0.7515 -1.4676 -0.3797
 8106TIP3   OH245732   4.680   3.699   0.481  0.0271 -0.4783  0.3230
 8106TIP3    H145733   4.584   3.700   0.483  0.0126 -0.4756 -0.1476
 8106TIP3    H245734   4.702   3.615   0.439  0.1801  0.2980 -1.2192
 8107TIP3   OH245735   2.477   2.230   2.661 -0.2194 -0.5495  0.0670
 8107TIP3    H145736   2.397   2.178   2.671 -0.0652 -0.7406  0.3139
 8107TIP3    H245737   2.448   2.309   2.615 -0.3320 -1.1611 -0.9420
 8108TIP3   OH245738   3.926   0.311  15.777 -0.0968 -0.5322 -0.2560
 8108TIP3    H145739   3.904   0.250  15.847  0.1450 -1.3395 -0.8688
 8108TIP3    H245740   3.931   0.396  15.820 -0.4395 -0.9403  0.6118
 8109TIP3   OH245741   1.489   4.958   2.170  0.0958 -0.4244 -0.1553
 8109TIP3    H145742   1.580   4.946   2.140 -0.2917  0.3032 -1.7195
 8109TIP3    H245743   1.472   5.052   2.158  0.4465  0.3821  4.1128
 8110TIP3   OH245744   4.446   1.976   4.404  0.1214  0.1499 -0.1132
 8110TIP3    H145745   4.447   2.056   4.351 -0.2435 -0.6401 -1.3610
 8110TIP3    H245746   4.377   1.991   4.468  0.4505  1.0670  0.0359
 8111TIP3   OH245747   5.563   4.790  15.635  0.4218  0.0333 -0.1780
 8111TIP3    H145748   5.604   4.781  15.549  1.8115 -1.1387  0.5755
 8111TIP3    H245749   5.613   4.733  15.692  0.0917  1.4625  1.6341
 8112TIP3   OH245750   6.260   4.026  15.769 -0.3117  0.2278  0.3446
 8112TIP3    H145751   6.307   4.092  15.719 -0.2270  1.7669  2.3679
 8112TIP3    H245752   6.328   3.965  15.797 -0.2002 -0.0101 -0.4075
 8113TIP3   OH245753   6.379   2.899  11.854  0.7727  0.3121  0.2498
 8113TIP3    H145754   6.291   2.936  11.862  0.5793  0.4578 -1.9531
 8113TIP3    H245755   6.380   2.826  11.916 -1.4470 -0.6602 -0.7303
 8114TIP3   OH245756   2.095   3.551  12.065 -0.0739  0.0964  0.0536
 8114TIP3    H145757   2.127   3.610  11.997  0.8294 -1.2333 -0.7220
 8114TIP3    H245758   2.147   3.571  12.142  0.0655  0.4735 -0.1398
 8115TIP3   OH245759   4.627   1.467  11.274  0.4006 -0.1767  0.0292
 8115TIP3    H145760   4.586   1.493  11.356 -1.6764  0.2247 -1.0565
 8115TIP3    H245761   4.554   1.443  11.217  1.6891  0.2694 -1.9402
 8116TIP3   OH245762   0.909   0.474  14.793 -0.1299 -0.6782  0.4636
 8116TIP3    H145763   0.838   0.439  14.848 -1.2056  0.7008  0.0215
 8116TIP3    H245764   0.889   0.440  14.705 -1.7344  1.6272 -0.1695
 8117TIP3   OH245765   0.872   3.923  12.281 -0.3244 -0.1657 -0.1316
 8117TIP3    H145766   0.823   3.881  12.352  0.4623 -2.0483 -0.6557
 8117TIP3    H245767   0.911   4.001  12.322 -3.2899  1.1915  0.4140
 8118TIP3   OH245768   2.452   5.382  13.789 -0.5369 -0.4593  0.1181
 8118TIP3    H145769   2.475   5.313  13.727 -1.1529  0.9686 -1.7796
 8118TIP3    H245770   2.509   5.456  13.766 -0.1704 -0.1532  1.8420
 8119TIP3   OH245771   4.769   2.406   0.276  0.6559 -0.3706 -0.3224
 8119TIP3    H145772   4.761   2.494   0.240  0.9342 -0.8780 -1.6764
 8119TIP3    H245773   4.831   2.415   0.349  2.4197  0.2068 -1.8199
 8120TIP3   OH245774   4.577   4.488   2.412 -0.4453  0.4985 -0.5834
 8120TIP3    H145775   4.537   4.575   2.410 -2.2003 -0.2262  0.5444
 8120TIP3    H245776   4.538   4.442   2.337 -2.0196 -0.2840  0.6515
 8121TIP3   OH245777   2.735   5.714   0.206 -0.0625  0.0006 -0.6708
 8121TIP3    H145778   2.820   5.743   0.172 -0.2399 -1.7863 -2.9063
 8121TIP3    H245779   2.715   5.776   0.276  1.4505  2.6140 -2.3490
 8122TIP3   OH245780   3.454   0.568   0.303  0.5466 -0.3755  0.3423
 8122TIP3    H145781   3.514   0.635   0.335  0.0705 -0.2426  0.9744
 8122TIP3    H245782   3.416   0.605   0.224 -1.4914  1.1576  1.9205
 8123TIP3   OH245783   5.997   1.935   5.232  0.2824  0.4316 -0.4369
 8123TIP3    H145784   6.082   1.902   5.204 -0.4721  0.2707 -2.7055
 8123TIP3    H245785   6.017   1.992   5.306  2.1629 -0.8706  0.1279
 8124TIP3   OH245786   1.708   5.325   2.475 -0.0194  0.0661 -0.0998
 8124TIP3    H145787   1.639   5.294   2.416 -1.1584 -0.9948  1.6645
 8124TIP3    H245788   1.776   5.258   2.469 -0.0992 -0.0038 -0.2420
 8125TIP3   OH245789   4.128   1.796   4.109  0.5271  0.4116  0.3778
 8125TIP3    H145790   4.149   1.750   4.190 -1.7856 -0.5471  0.5115
 8125TIP3    H245791   4.046   1.842   4.128 -0.1806 -0.0086 -1.4528
 8126TIP3   OH245792   0.227   0.666  11.439  0.1835 -0.0897  0.5752
 8126TIP3    H145793   0.266   0.733  11.383 -0.2704  0.1693  0.5620
 8126TIP3    H245794   0.152   0.633  11.389 -0.9665  0.9970  1.5054
 8127TIP3   OH245795   4.632   5.623  11.412  0.3708 -0.1107 -0.4231
 8127TIP3    H145796   4.683   5.569  11.351  2.9769  1.2494  0.3892
 8127TIP3    H245797   4.586   5.685  11.355  1.7127  0.2975 -1.1204
 8128TIP3   OH245798   0.289   3.587   1.239  0.3033 -0.1427  1.1603
 8128TIP3    H145799   0.308   3.573   1.146 -1.9939  0.9968  0.4366
 8128TIP3    H245800   0.252   3.503   1.268  2.3509 -0.9837  1.4936
 8129TIP3   OH245801   0.880   1.070   2.878  0.1341 -0.5303 -0.8909
 8129TIP3    H145802   0.786   1.089   2.884  0.3486  0.8736 -1.4341
 8129TIP3    H245803   0.894   0.997   2.938 -1.1307 -0.0767  0.0069
 8130TIP3   OH245804   1.332   0.504  13.219  0.5398 -0.3157 -0.1669
 8130TIP3    H145805   1.384   0.491  13.299 -0.6395  0.2607  0.7208
 8130TIP3    H245806   1.365   0.586  13.183  1.8494 -1.1351 -0.9166
 8131TIP3   OH245807   2.115   3.439   0.773 -0.6171  0.1249  0.3203
 8131TIP3    H145808   2.061   3.514   0.797 -0.3433 -0.0450  1.5586
 8131TIP3    H245809   2.191   3.445   0.831 -0.4594 -0.9480  0.2445
 8132TIP3   OH245810   2.576   4.483   3.879 -0.3625  0.0311 -0.0116
 8132TIP3    H145811   2.665   4.449   3.888 -0.1006  0.9740  1.2019
 8132TIP3    H245812   2.578   4.567   3.924 -1.6781  0.4313 -0.6495
 8133TIP3   OH245813   4.689   4.645   0.203 -0.0711 -0.5865  0.0331
 8133TIP3    H145814   4.770   4.598   0.185  0.1245  0.2255 -1.3759
 8133TIP3    H245815   4.620   4.582   0.181  0.1891 -0.4716 -1.1715
 8134TIP3   OH245816   1.909   4.261  15.439 -0.0087  0.0594 -0.6789
 8134TIP3    H145817   1.940   4.278  15.528  2.5384  1.2621 -1.6985
 8134TIP3    H245818   1.941   4.173  15.419 -2.9668 -1.4180  0.4390
 8135TIP3   OH245819   4.631   4.567  13.692 -0.3041 -0.4213 -0.3146
 8135TIP3    H145820   4.705   4.583  13.635  1.1545 -0.4834  1.4645
 8135TIP3    H245821   4.597   4.654  13.713  0.9731 -0.1823  0.9420
 8136TIP3   OH245822   6.110   3.451  14.806  0.3632 -0.4022  0.0364
 8136TIP3    H145823   6.175   3.380  14.804  0.3333 -0.4979  1.3989
 8136TIP3    H245824   6.079   3.452  14.897 -0.4398  0.6399 -0.2348
 8137TIP3   OH245825   4.118   4.103   6.412  0.1935  0.3766  0.0177
 8137TIP3    H145826   4.112   4.126   6.319  0.1546  2.6045  0.5323
 8137TIP3    H245827   4.027   4.086   6.437  0.3503 -1.9353 -0.6773
 8138TIP3   OH245828   5.256   6.246   2.003 -0.0463  1.0439 -0.0077
 8138TIP3    H145829   5.210   6.329   1.990  0.1854  1.2633  0.5508
 8138TIP3    H245830   5.274   6.243   2.097  0.2795  0.5331 -0.0826
 8139TIP3   OH245831   3.178   5.536  12.476 -0.3140  0.5411 -0.0683
 8139TIP3    H145832   3.129   5.607  12.518  0.4719  1.0414  0.0391
 8139TIP3    H245833   3.126   5.513  12.399 -3.2202 -2.2277  2.4570
 8140TIP3   OH245834   0.642   5.761   2.029  0.0699  0.1137  0.2174
 8140TIP3    H145835   0.580   5.745   1.958  0.8017 -1.4968 -0.0990
 8140TIP3    H245836   0.634   5.855   2.047 -2.1108  0.0421 -0.1085
 8141TIP3   OH245837   5.755   4.211  14.438  0.1558  0.2520 -0.3072
 8141TIP3    H145838   5.750   4.158  14.517 -1.1946  0.2721 -0.3555
 8141TIP3    H245839   5.701   4.288  14.458 -0.3783  0.1498 -1.3183
 8142TIP3   OH245840   4.091   0.203  13.731 -0.0770 -0.3990  0.2569
 8142TIP3    H145841   4.009   0.173  13.691  0.9610 -1.3519 -1.2595
 8142TIP3    H245842   4.083   0.179  13.823 -0.9701 -1.6708 -0.1239
 8143TIP3   OH245843   6.537   6.663  17.197  0.0558 -0.1854  0.1454
 8143TIP3    H145844   6.562   6.678  17.288 -0.7681 -0.9160  0.5056
 8143TIP3    H245845   6.619   6.640  17.153  0.5255  0.5545  0.6031
 8144TIP3   OH245846   4.842   3.508   3.678 -0.3430  0.2028  0.1212
 8144TIP3    H145847   4.748   3.510   3.660 -0.3273  2.3794  0.0523
 8144TIP3    H245848   4.863   3.597   3.706  1.7820 -0.1425 -0.2437
 8145TIP3   OH245849   6.438   3.033   1.158 -0.2599  0.1453  0.1342
 8145TIP3    H145850   6.364   2.980   1.126  1.0720 -1.1302 -0.9458
 8145TIP3    H245851   6.419   3.045   1.251 -0.5146 -2.5349  0.5145
 8146TIP3   OH245852   4.929   3.557  12.543  0.1313  0.0407  0.6496
 8146TIP3    H145853   4.934   3.483  12.482  0.5127 -0.3244  1.1198
 8146TIP3    H245854   4.951   3.633  12.489 -1.7271  0.0293 -0.1920
 8147TIP3   OH245855   6.081   5.137   3.388 -0.2240 -0.5810  0.4668
 8147TIP3    H145856   6.110   5.047   3.373 -1.5325 -1.0988  0.9354
 8147TIP3    H245857   6.108   5.184   3.309 -0.8066 -1.6983 -0.4261
 8148TIP3   OH245858   0.041   3.404  14.652 -0.7302 -0.3195  0.2146
 8148TIP3    H145859   0.084   3.489  14.666 -0.4152 -0.5754  0.8427
 8148TIP3    H245860   0.085   3.344  14.713 -0.8428 -0.9708 -0.3321
 8149TIP3   OH245861   2.324   1.241   1.516 -0.3152  0.1376  0.2989
 8149TIP3    H145862   2.370   1.305   1.461  1.3917 -2.5804 -1.7294
 8149TIP3    H245863   2.391   1.211   1.577 -0.6227 -0.7609  0.2043
 8150TIP3   OH245864   1.357   0.051  16.339 -0.4573 -0.3281 -0.0086
 8150TIP3    H145865   1.301   0.126  16.320 -2.1049 -0.9361  2.0638
 8150TIP3    H245866   1.299  -0.013  16.381  1.0556 -2.4742 -0.9818
 8151TIP3   OH245867   4.122   6.622  14.918  0.0388  0.4615  0.0079
 8151TIP3    H145868   4.149   6.667  14.999 -1.0924  0.9058  0.1571
 8151TIP3    H245869   4.161   6.674  14.848  0.1150  0.7175  0.2357
 8152TIP3   OH245870   5.477   2.869   5.500 -0.1753 -0.7113 -0.2777
 8152TIP3    H145871   5.520   2.952   5.483 -1.9242  0.0777 -1.0674
 8152TIP3    H245872   5.502   2.813   5.426  0.1886 -0.5691 -0.2655
 8153TIP3   OH245873   0.584   0.897  14.455 -0.1778 -0.6072 -0.6261
 8153TIP3    H145874   0.663   0.937  14.492  0.0095 -0.6280 -0.9921
 8153TIP3    H245875   0.515   0.916  14.518 -0.1378  0.4960 -0.9070
 8154TIP3   OH245876   6.550   6.440   1.688 -0.2391  0.1389 -0.2266
 8154TIP3    H145877   6.598   6.363   1.719 -0.3013  0.0300 -0.4044
 8154TIP3    H245878   6.564   6.441   1.594 -0.3375  0.2795 -0.2398
 8155TIP3   OH245879   5.410   3.271   3.802  0.1218  0.2611 -0.2015
 8155TIP3    H145880   5.489   3.221   3.823  0.1868  1.1484  1.9933
 8155TIP3    H245881   5.442   3.360   3.785 -0.3024  0.3564 -0.5081
 8156TIP3   OH245882   3.420   5.543   2.406 -0.1415 -0.7588  0.4973
 8156TIP3    H145883   3.408   5.478   2.474  1.1572  0.5781  2.0894
 8156TIP3    H245884   3.358   5.613   2.427 -0.1465 -0.5943 -0.0390
 8157TIP3   OH245885   3.981   0.976  13.194 -0.0012 -0.0060 -0.2763
 8157TIP3    H145886   3.944   0.987  13.282  1.2430  1.7202  0.0903
 8157TIP3    H245887   4.070   1.010  13.202  0.2413 -0.1342 -2.1447
 8158TIP3   OH245888   5.476   6.112   3.906  0.0500 -0.1080 -1.2299
 8158TIP3    H145889   5.387   6.078   3.909 -0.1432  0.3543 -1.6009
 8158TIP3    H245890   5.465   6.207   3.900  0.5860  0.0489  0.0895
 8159TIP3   OH245891   4.219   3.398   4.838  0.3444 -0.6029 -0.3569
 8159TIP3    H145892   4.308   3.391   4.805  0.1482 -1.0676 -0.8117
 8159TIP3    H245893   4.164   3.404   4.759  0.0307  0.4508 -0.0690
 8160TIP3   OH245894   4.285   0.450  13.218  0.0202  0.0118 -0.4008
 8160TIP3    H145895   4.245   0.510  13.155  1.9447  1.3843 -0.3863
 8160TIP3    H245896   4.259   0.363  13.188 -1.1757  0.7500 -1.6047
 8161TIP3   OH245897   4.424   0.746  15.434 -0.1219  0.1824  0.2188
 8161TIP3    H145898   4.419   0.671  15.493 -1.3721  0.0733 -0.0041
 8161TIP3    H245899   4.384   0.818  15.483 -2.0555 -0.1369 -0.8034
 8162TIP3   OH245900   2.438   2.537   2.101  0.3906 -0.1698 -0.1811
 8162TIP3    H145901   2.458   2.504   2.014  1.4260 -2.4277  0.8100
 8162TIP3    H245902   2.354   2.496   2.124  0.1798  0.3169 -0.0685
 8163TIP3   OH245903   1.649   2.571  13.669  0.3458 -0.2466 -0.5998
 8163TIP3    H145904   1.620   2.491  13.714  2.8296 -1.0337 -0.2332
 8163TIP3    H245905   1.723   2.603  13.721 -0.6121  2.3880 -0.7051
 8164TIP3   OH245906   0.271   4.124  15.343 -0.0421  0.0082 -0.0351
 8164TIP3    H145907   0.281   4.030  15.330  1.1232 -0.1210  1.4585
 8164TIP3    H245908   0.318   4.142  15.425  1.2687  2.1435 -1.1601
 8165TIP3   OH245909   0.451   3.046  12.556 -0.6135  0.5421  0.2132
 8165TIP3    H145910   0.370   3.000  12.577 -0.0031  0.3920  2.4902
 8165TIP3    H245911   0.497   3.054  12.640  1.5376  1.0011 -0.9221
 8166TIP3   OH245912   3.422   4.125   3.106 -0.6161  0.2335 -0.2834
 8166TIP3    H145913   3.491   4.132   3.172 -0.8587 -0.3813  0.0419
 8166TIP3    H245914   3.468   4.129   3.022 -0.0495 -1.3078 -0.0711
 8167TIP3   OH245915   2.708   6.471  12.537  0.1359 -0.1047 -0.4477
 8167TIP3    H145916   2.720   6.488  12.444  1.5875 -0.8122 -0.4103
 8167TIP3    H245917   2.795   6.446  12.569  0.1306  1.9408  1.4943
 8168TIP3   OH245918   1.469   2.399  14.153 -0.1600  0.3204  0.3063
 8168TIP3    H145919   1.464   2.364  14.065  0.0877 -0.4402  0.5888
 8168TIP3    H245920   1.537   2.465  14.149 -1.0566  1.2355 -0.3801
 8169TIP3   OH245921   1.985   5.725   5.526  0.0370  0.0941 -0.1535
 8169TIP3    H145922   2.049   5.702   5.593 -0.4009 -0.7287 -0.0097
 8169TIP3    H245923   1.988   5.653   5.463 -1.7418 -0.6791  0.5920
 8170TIP3   OH245924   5.294   6.707   2.510 -0.0063  0.0853 -0.1039
 8170TIP3    H145925   5.293   6.627   2.563  0.4227  1.5299  2.2160
 8170TIP3    H245926   5.372   6.697   2.455 -0.2028 -1.2687 -0.1850
 8171TIP3   OH245927   5.517   5.590  13.601 -0.1214 -0.2037 -0.3981
 8171TIP3    H145928   5.582   5.659  13.618 -0.7410  0.1197  0.7534
 8171TIP3    H245929   5.536   5.523  13.666 -1.1796  0.0744  0.2127
 8172TIP3   OH245930   4.690   2.166   5.732  0.4137  0.2895 -0.2594
 8172TIP3    H145931   4.679   2.153   5.826 -4.9795 -1.7071 -0.7779
 8172TIP3    H245932   4.641   2.246   5.713  0.1946 -0.0994 -1.4512
 8173TIP3   OH245933   0.970   2.537   5.245  0.3424  0.6173  0.1734
 8173TIP3    H145934   1.022   2.615   5.226 -0.5792  1.2175  0.0539
 8173TIP3    H245935   0.881   2.561   5.219 -0.1115 -0.1727  0.9593
 8174TIP3   OH245936   2.241   0.705  12.892 -0.4037  0.6417  0.1817
 8174TIP3    H145937   2.206   0.673  12.976 -2.9391 -0.0770 -1.0290
 8174TIP3    H245938   2.325   0.660  12.882 -0.5722 -0.1079  1.8113
 8175TIP3   OH245939   2.680   6.024  10.598 -0.3831 -0.3155  0.3813
 8175TIP3    H145940   2.611   5.958  10.603 -0.0767 -0.6172  0.6873
 8175TIP3    H245941   2.669   6.076  10.677 -1.0886  0.4773 -0.2179
 8176TIP3   OH245942   6.065   0.027  13.221  0.7403  0.0679  0.3833
 8176TIP3    H145943   6.053  -0.008  13.310 -1.1788 -1.2499 -0.3303
 8176TIP3    H245944   6.144  -0.016  13.189  0.2875 -1.0819  0.7435
 8177TIP3   OH245945   5.448   3.348  13.426 -0.0615 -0.6535 -0.6198
 8177TIP3    H145946   5.378   3.329  13.364  0.4806  0.5819 -1.6485
 8177TIP3    H245947   5.529   3.344  13.374  0.4102  0.3944 -0.0029
 8178TIP3   OH245948   1.536   0.387   3.454  0.4086 -0.0732 -0.5584
 8178TIP3    H145949   1.582   0.364   3.374  0.4460  0.6196 -0.7435
 8178TIP3    H245950   1.545   0.310   3.510  1.5650 -0.0518 -0.6915
 8179TIP3   OH245951   2.801   1.493  13.701 -0.0933  0.0701  0.4052
 8179TIP3    H145952   2.867   1.505  13.769  0.1715  1.1990 -0.0438
 8179TIP3    H245953   2.751   1.575  13.701 -0.0554  0.1049 -0.7976
 8180TIP3   OH245954   0.541   6.077  17.044 -0.0950  0.2670  0.1255
 8180TIP3    H145955   0.480   6.070  17.117 -0.9033  0.6046 -0.5064
 8180TIP3    H245956   0.504   6.021  16.976  0.6790 -0.0828 -0.0158
 8181TIP3   OH245957   2.498   0.658   6.657 -0.0352  0.1352  0.2464
 8181TIP3    H145958   2.584   0.643   6.619  0.2170  0.6042  0.6149
 8181TIP3    H245959   2.512   0.727   6.722 -0.3978 -0.8409  1.3924
 8182TIP3   OH245960   0.596   4.723  13.830 -0.5170 -0.2315  0.1080
 8182TIP3    H145961   0.583   4.771  13.912 -0.8356 -0.6060  0.2769
 8182TIP3    H245962   0.680   4.755  13.798 -0.5903  0.2392  0.3595
 8183TIP3   OH245963   2.745   5.293   3.370 -0.2298 -0.0306  0.3034
 8183TIP3    H145964   2.664   5.340   3.351  0.9103  1.5532 -0.8881
 8183TIP3    H245965   2.767   5.248   3.288  1.5943  1.9702 -0.3884
 8184TIP3   OH245966   1.747   0.081  16.701 -0.5696  0.2430 -0.6551
 8184TIP3    H145967   1.721   0.116  16.616 -1.5263  1.3984  0.0770
 8184TIP3    H245968   1.692   0.003  16.712 -0.1579 -0.1362 -1.2591
 8185TIP3   OH245969   4.707   6.418  13.667 -0.1859  0.2930  0.3016
 8185TIP3    H145970   4.740   6.505  13.644 -1.0533  0.7129  0.6202
 8185TIP3    H245971   4.638   6.434  13.731 -0.1044 -0.6573  0.6466
 8186TIP3   OH245972   1.748   4.628   4.368  0.5765  0.0158 -0.4244
 8186TIP3    H145973   1.669   4.604   4.416  1.0719  0.1158  0.4615
 8186TIP3    H245974   1.760   4.557   4.305 -1.8798  1.4290 -2.6805
 8187TIP3   OH245975   2.239   2.752  15.640  0.3951 -0.1168 -0.0524
 8187TIP3    H145976   2.311   2.792  15.688 -0.9158  2.1386  0.1980
 8187TIP3    H245977   2.216   2.675  15.693  0.3665  1.1132  1.8400
 8188TIP3   OH245978   1.462   5.892  10.847  0.2332  0.0996 -0.4729
 8188TIP3    H145979   1.431   5.802  10.846 -0.5056  0.3271 -2.2067
 8188TIP3    H245980   1.382   5.945  10.841  0.6544  0.8785  0.5002
 8189TIP3   OH245981   3.138   4.564  13.784 -0.0429 -0.1461 -0.6593
 8189TIP3    H145982   3.210   4.500  13.780 -0.3037 -0.7329  1.9517
 8189TIP3    H245983   3.163   4.623  13.856 -1.3479  0.7185 -0.8889
 8190TIP3   OH245984   4.431   2.718  15.030  0.2398 -0.1104 -0.3185
 8190TIP3    H145985   4.505   2.664  15.002  0.0342 -0.6626  0.1766
 8190TIP3    H245986   4.460   2.808  15.016  0.7002 -0.3347 -0.8817
 8191TIP3   OH245987   0.055   2.292  11.857  0.0587 -0.4459  0.1955
 8191TIP3    H145988   0.008   2.364  11.814  1.8512  1.3173  1.0311
 8191TIP3    H245989   0.056   2.317  11.950 -0.8565 -2.5183  0.8235
 8192TIP3   OH245990   2.780   0.998   0.431  0.2842  0.1876  0.4620
 8192TIP3    H145991   2.858   1.001   0.487  1.6201  2.1788 -1.3631
 8192TIP3    H245992   2.787   0.913   0.386 -0.0203 -0.7740  2.1647
 8193TIP3   OH245993   0.950   5.020  16.121  0.3358  0.3630 -0.5364
 8193TIP3    H145994   1.011   5.025  16.195  0.4313 -1.5230 -0.4477
 8193TIP3    H245995   0.964   5.101  16.073  1.8649  0.6253  0.2948
 8194TIP3   OH245996   2.852   3.978   5.487 -0.1000  0.3848  0.2053
 8194TIP3    H145997   2.890   3.920   5.552 -2.7193  0.4759  1.9557
 8194TIP3    H245998   2.910   4.055   5.486  0.4067  0.0538  1.8536
 8195TIP3   OH245999   3.790   0.658   6.058  0.6353 -0.0222  0.2467
 8195TIP3    H146000   3.748   0.725   6.111 -1.1486 -0.7099 -0.2318
 8195TIP3    H246001   3.843   0.608   6.119 -0.6260 -0.2019  1.2222
 8196TIP3   OH246002   2.091   4.771   4.365 -0.0073 -0.0358  0.1615
 8196TIP3    H146003   2.100   4.681   4.336  0.1792 -0.0242  0.1770
 8196TIP3    H246004   2.019   4.770   4.428 -0.1710 -0.1269 -0.0267
 8197TIP3   OH246005   2.912   2.377  13.498  0.1641  0.3190  0.4049
 8197TIP3    H146006   2.954   2.379  13.412 -0.1680  0.3676  0.2413
 8197TIP3    H246007   2.873   2.289  13.503 -1.1541  0.8437 -0.1514
 8198TIP3   OH246008   5.685   1.838   3.963  0.1753  0.1252 -0.0166
 8198TIP3    H146009   5.701   1.835   3.869 -0.4942  1.1166 -0.1809
 8198TIP3    H246010   5.600   1.795   3.973  0.9398 -1.3607  0.3387
 8199TIP3   OH246011   5.256   6.258   0.318 -0.4295  0.5431  0.0081
 8199TIP3    H146012   5.241   6.263   0.223 -1.4541 -0.3925  0.1076
 8199TIP3    H246013   5.174   6.288   0.356 -0.5639 -0.5567  0.5963
 8200TIP3   OH246014   4.022   2.632  16.244 -0.0942  0.1726  0.8079
 8200TIP3    H146015   4.006   2.621  16.151 -1.4980 -1.0808  1.1518
 8200TIP3    H246016   4.006   2.725  16.260  1.0524  0.5966 -0.3235
 8201TIP3   OH246017   0.439   5.692   3.916 -0.1191 -0.0024 -0.4553
 8201TIP3    H146018   0.394   5.667   3.835 -1.0226 -0.0702  0.0501
 8201TIP3    H246019   0.374   5.743   3.964  1.5770  3.3917 -1.4139
 8202TIP3   OH246020   0.986   5.609   5.718 -0.2467  0.6736  0.5644
 8202TIP3    H146021   1.054   5.624   5.783  0.5587  0.1470 -0.1344
 8202TIP3    H246022   1.010   5.526   5.676 -1.2178  0.5667  0.1806
 8203TIP3   OH246023   5.418   2.016   1.278 -0.1530  0.4833 -0.2901
 8203TIP3    H146024   5.348   1.984   1.334  0.7058 -0.1848  0.4325
 8203TIP3    H246025   5.445   2.099   1.319  0.0466  0.3118 -0.0688
 8204TIP3   OH246026   6.490   4.806   2.985 -0.4576 -0.2863  0.1290
 8204TIP3    H146027   6.430   4.758   2.928  0.8731  0.8010 -2.3537
 8204TIP3    H246028   6.576   4.794   2.945  0.1928  2.5750  0.4028
 8205TIP3   OH246029   4.688   0.700   3.685  0.1841 -0.0501 -0.4254
 8205TIP3    H146030   4.656   0.771   3.630 -0.4695  1.0614  1.2973
 8205TIP3    H246031   4.783   0.709   3.684  0.1335  0.4624 -0.7316
 8206TIP3   OH246032   1.976   6.415  14.698  0.2060 -0.0989  0.1697
 8206TIP3    H146033   1.925   6.461  14.631  0.8132  0.2351 -0.0698
 8206TIP3    H246034   1.917   6.347  14.730 -0.0520 -0.3396 -0.7840
 8207TIP3   OH246035   1.981   4.560  13.033 -0.1759 -0.3222  0.0596
 8207TIP3    H146036   1.909   4.503  13.059 -2.0935  0.9444 -2.1249
 8207TIP3    H246037   1.996   4.616  13.109 -1.9290 -0.2298  0.3697
 8208TIP3   OH246038   4.243   3.756   1.306 -0.1219 -0.0837 -0.1251
 8208TIP3    H146039   4.166   3.718   1.349  1.0703 -2.6100 -0.0498
 8208TIP3    H246040   4.277   3.685   1.251  0.5305  1.8730 -2.4371
 8209TIP3   OH246041   4.684   2.110  17.352 -0.2377  0.1468 -0.4045
 8209TIP3    H146042   4.694   2.125  17.258 -0.9537  0.4614 -0.4367
 8209TIP3    H246043   4.733   2.180  17.394 -2.3977  1.8576 -0.5524
 8210TIP3   OH246044   3.999   6.302  13.714  0.3388  0.8582 -0.1577
 8210TIP3    H146045   4.025   6.357  13.789 -2.0926  0.2566  1.2599
 8210TIP3    H246046   4.064   6.232  13.712 -0.3224  0.0248  2.4738
 8211TIP3   OH246047   4.543   5.382   5.645 -0.2375  0.4875  0.3697
 8211TIP3    H146048   4.553   5.359   5.553  2.1071 -0.0209  0.6981
 8211TIP3    H246049   4.632   5.385   5.679 -1.0611  0.3905  2.7002
 8212TIP3   OH246050   1.099   3.952  17.046 -0.2649  0.4559  0.3169
 8212TIP3    H146051   1.106   3.861  17.076  0.9990  0.4650  0.0930
 8212TIP3    H246052   1.178   3.966  16.994 -0.7975  1.4765 -0.2294
 8213TIP3   OH246053   2.789   1.604   1.478 -0.1618  0.4487 -0.0003
 8213TIP3    H146054   2.757   1.664   1.410  0.7489  0.0709 -0.7864
 8213TIP3    H246055   2.876   1.637   1.500 -0.7826  1.0670  1.6192
 8214TIP3   OH246056   3.446   5.490  12.604  0.0483  0.2363  0.2631
 8214TIP3    H146057   3.512   5.436  12.561  0.1075  0.0249  0.6131
 8214TIP3    H246058   3.371   5.488  12.545  0.1802  0.0747  0.0977
 8215TIP3   OH246059   5.231   5.846   5.125  0.4995  0.2148 -0.2788
 8215TIP3    H146060   5.266   5.780   5.066 -0.5132 -1.2057  0.6444
 8215TIP3    H246061   5.226   5.926   5.072  1.2107 -0.5795 -1.5914
 8216TIP3   OH246062   6.613   4.172   5.153  0.1398  0.5138 -0.2253
 8216TIP3    H146063   6.639   4.242   5.213  0.5278  1.4041 -1.4109
 8216TIP3    H246064   6.692   4.118   5.145  1.7937  3.0626 -3.6031
 8217TIP3   OH246065   4.655   6.456   3.404 -0.0381 -0.0031  0.0286
 8217TIP3    H146066   4.667   6.538   3.356  1.0852  0.0849  0.4141
 8217TIP3    H246067   4.656   6.388   3.337  1.4541  0.1191 -0.1117
 8218TIP3   OH246068   5.530   0.688   0.475  0.0992 -0.0716  0.1055
 8218TIP3    H146069   5.524   0.658   0.566  1.7990 -1.8940 -0.3156
 8218TIP3    H246070   5.440   0.681   0.442 -0.2623 -0.9342  1.1862
 8219TIP3   OH246071   4.074   6.275  16.109 -0.3719 -0.1332  0.1908
 8219TIP3    H146072   4.151   6.284  16.165  0.6522  0.3338 -1.2336
 8219TIP3    H246073   4.105   6.222  16.035 -1.2279  0.6263 -0.7277
 8220TIP3   OH246074   4.536   1.809  12.128 -0.6076  0.1485  0.0062
 8220TIP3    H146075   4.604   1.742  12.136  2.6189  3.1820 -0.1613
 8220TIP3    H246076   4.530   1.848  12.215 -1.9787  0.1431 -0.0602
 8221TIP3   OH246077   1.249   4.449  14.100 -0.0836 -0.0346  0.6455
 8221TIP3    H146078   1.237   4.532  14.146  0.1003 -0.6573  1.8731
 8221TIP3    H246079   1.327   4.462  14.045 -0.8273  1.0112 -0.1986
 8222TIP3   OH246080   6.156   3.351   1.326 -0.2344  0.1992 -0.0154
 8222TIP3    H146081   6.075   3.366   1.375 -0.7892 -0.1732 -0.7916
 8222TIP3    H246082   6.140   3.270   1.278  1.1873 -0.7242  1.0047
 8223TIP3   OH246083   5.913   1.647  10.968 -0.3229  0.0635  0.5084
 8223TIP3    H146084   5.954   1.719  10.920  0.7759 -0.5897  0.4150
 8223TIP3    H246085   5.848   1.611  10.907 -0.1390  0.3170  0.1642
 8224TIP3   OH246086   3.867   2.111   5.178 -0.2266  0.1457  0.5476
 8224TIP3    H146087   3.839   2.072   5.096 -2.9828  0.7029  1.1476
 8224TIP3    H246088   3.862   2.039   5.242  4.2786 -1.0017  0.0071
 8225TIP3   OH246089   3.843   1.187  12.864  0.1757  0.2954 -0.1457
 8225TIP3    H146090   3.894   1.236  12.799  0.9296  1.7177  1.4309
 8225TIP3    H246091   3.841   1.244  12.941 -2.5757 -0.3733  0.3770
 8226TIP3   OH246092   6.104   3.157   1.100 -0.0681  0.1650  0.7425
 8226TIP3    H146093   6.113   3.250   1.078 -0.8524 -0.0181 -0.4853
 8226TIP3    H246094   6.011   3.138   1.085  0.6030 -1.5173 -2.1774
 8227TIP3   OH246095   5.262   4.833  15.754 -0.4481 -0.8216  0.0120
 8227TIP3    H146096   5.228   4.893  15.687  1.5639  0.4915  0.0862
 8227TIP3    H246097   5.316   4.771  15.705  0.6357 -0.1537  0.3335
 8228TIP3   OH246098   1.166   5.043  16.302  0.0913 -0.3899  0.4805
 8228TIP3    H146099   1.229   5.113  16.318 -2.2833  2.0864 -0.2286
 8228TIP3    H246100   1.109   5.044  16.379 -0.1715 -1.3558  0.3096
 8229TIP3   OH246101   2.337   3.608  16.299 -0.1581 -0.0276 -0.5266
 8229TIP3    H146102   2.333   3.539  16.232 -0.1607 -0.3434 -0.2019
 8229TIP3    H246103   2.273   3.582  16.365  1.0512 -0.6503  0.4629
 8230TIP3   OH246104   4.157   1.702   1.073 -0.2505  0.4474 -0.1539
 8230TIP3    H146105   4.075   1.750   1.063 -0.9019 -0.4174  0.8631
 8230TIP3    H246106   4.164   1.685   1.167  0.3241 -0.8133 -0.4016
 8231TIP3   OH246107   1.630   3.368   4.837 -0.2265 -0.0106  0.2011
 8231TIP3    H146108   1.629   3.275   4.818  0.0152  0.3648 -1.8056
 8231TIP3    H246109   1.669   3.409   4.760 -1.6801  1.8954  0.3958
 8232TIP3   OH246110   3.707   1.627  15.188 -0.1403  0.3004 -0.0673
 8232TIP3    H146111   3.698   1.553  15.127  1.1944 -0.1148  0.2115
 8232TIP3    H246112   3.721   1.586  15.273  0.6807  0.8717  0.0802
 8233TIP3   OH246113   5.935   5.161  13.942 -0.5284  0.2296  0.3001
 8233TIP3    H146114   5.915   5.067  13.936 -4.4103  0.9452 -0.8674
 8233TIP3    H246115   5.943   5.178  14.036  1.5963 -1.4125  0.4879
 8234TIP3   OH246116   1.254   3.951   2.651 -0.1894 -0.9053  0.2885
 8234TIP3    H146117   1.212   3.980   2.732 -0.4124  0.8207 -0.3938
 8234TIP3    H246118   1.188   3.898   2.607 -0.8949  0.0261  0.2044
 8235TIP3   OH246119   6.189   4.383  16.501 -0.3952 -0.2351 -0.0929
 8235TIP3    H146120   6.261   4.402  16.561 -1.5842 -0.9671  1.6421
 8235TIP3    H246121   6.232   4.358  16.419  1.2710  0.8076  0.4195
 8236TIP3   OH246122   3.661   2.859   1.378  0.4491  0.4772  0.2625
 8236TIP3    H146123   3.735   2.889   1.431  0.2989  1.7780 -0.2447
 8236TIP3    H246124   3.701   2.823   1.299  0.5393  1.1674 -0.0057
 8237TIP3   OH246125   3.387   6.225   3.419 -0.1681 -0.1035  0.2262
 8237TIP3    H146126   3.416   6.134   3.418  2.2921  0.5968  0.4851
 8237TIP3    H246127   3.380   6.246   3.512  0.5615  0.3388  0.1824
 8238TIP3   OH246128   2.518   2.622  11.674  0.4782 -0.0178 -0.0274
 8238TIP3    H146129   2.439   2.670  11.700 -0.1793  0.0867 -2.0446
 8238TIP3    H246130   2.486   2.537  11.646  1.0268  0.1197 -1.1199
 8239TIP3   OH246131   4.441   2.464  15.848 -0.1790 -0.3920  0.6403
 8239TIP3    H146132   4.405   2.396  15.791 -1.4192 -1.0155  2.0786
 8239TIP3    H246133   4.513   2.503  15.798 -1.3973 -0.6784 -1.4424
 8240TIP3   OH246134   6.221   1.408   1.160  0.3210 -0.3216 -0.3918
 8240TIP3    H146135   6.139   1.373   1.128  0.8094 -0.0014 -2.1122
 8240TIP3    H246136   6.247   1.349   1.231 -1.9769  0.2950  1.0829
 8241TIP3   OH246137   2.020   2.266  15.773 -0.9135  0.4859  0.6631
 8241TIP3    H146138   1.980   2.264  15.686  1.7383  0.1602 -0.6399
 8241TIP3    H246139   2.045   2.175  15.789 -3.0487  0.1792  2.6727
 8242TIP3   OH246140   2.799   3.420  10.546  0.0749  0.1674 -0.2424
 8242TIP3    H146141   2.789   3.454  10.635 -0.6366 -0.4904 -0.0586
 8242TIP3    H246142   2.841   3.335  10.558 -0.5832 -0.1944 -0.4835
 8243TIP3   OH246143   6.374   4.483  15.828 -0.7117 -0.5268  0.3839
 8243TIP3    H146144   6.365   4.560  15.884 -0.4225 -0.3260  0.1599
 8243TIP3    H246145   6.318   4.500  15.752 -0.0231 -0.1683 -0.0542
 8244TIP3   OH246146   5.438   1.319   4.272 -0.3717 -0.6870 -0.1957
 8244TIP3    H146147   5.515   1.267   4.250  0.3498  0.8165 -1.3528
 8244TIP3    H246148   5.385   1.260   4.326 -1.0776 -3.7686 -3.8317
 8245TIP3   OH246149   1.274   5.973  17.454 -0.9641  0.1812  0.3450
 8245TIP3    H146150   1.366   5.957  17.473 -0.6625  1.1452 -0.2271
 8245TIP3    H246151   1.237   6.001  17.538 -0.1789  2.0987  0.1066
 8246TIP3   OH246152   1.816   5.802  10.700 -0.0941  0.0796  0.1458
 8246TIP3    H146153   1.866   5.737  10.650  0.7285  0.9553 -0.1989
 8246TIP3    H246154   1.734   5.811  10.652  0.4446  0.4716 -0.7398
 8247TIP3   OH246155   1.169   2.347   5.121 -0.2790 -0.1720  0.0659
 8247TIP3    H146156   1.148   2.395   5.041  2.3251  2.6175  0.8983
 8247TIP3    H246157   1.116   2.390   5.189  0.0060 -0.3315  0.3896
 8248TIP3   OH246158   5.186   2.659   6.468 -0.2437  0.4437 -0.2627
 8248TIP3    H146159   5.136   2.602   6.526  1.0582  1.4243  1.9548
 8248TIP3    H246160   5.122   2.695   6.407 -1.5730 -1.0573  0.2078
 8249TIP3   OH246161   5.874   2.623  13.251 -0.3990  0.3677  0.0854
 8249TIP3    H146162   5.955   2.589  13.214  0.2285  1.5991  0.2544
 8249TIP3    H246163   5.854   2.564  13.324  0.1842 -0.1178 -0.1398
 8250TIP3   OH246164   3.068   0.148   4.507 -0.7037 -0.0214 -0.2140
 8250TIP3    H146165   3.065   0.052   4.513 -0.0806 -0.1047 -1.0284
 8250TIP3    H246166   2.996   0.178   4.562 -1.7042 -0.9935 -0.9484
 8251TIP3   OH246167   0.435   3.294  14.629 -0.4864 -0.1034  0.1902
 8251TIP3    H146168   0.352   3.291  14.676 -0.5125 -2.5626  0.1622
 8251TIP3    H246169   0.501   3.296  14.698 -0.5468  1.3722  0.2198
 8252TIP3   OH246170   5.357   4.117   4.331 -0.1985 -0.5987 -1.0634
 8252TIP3    H146171   5.274   4.123   4.378  0.0125 -0.8622 -0.6467
 8252TIP3    H246172   5.401   4.200   4.351  0.1724 -0.9767 -0.2290
 8253TIP3   OH246173   2.579   0.230  14.836  0.5285 -0.3792  0.1724
 8253TIP3    H146174   2.494   0.186  14.836  0.4039 -0.1532 -0.5346
 8253TIP3    H246175   2.608   0.226  14.927 -0.3152 -0.3152  0.4553
 8254TIP3   OH246176   1.373   2.365   5.480  0.6022 -0.3067  0.5413
 8254TIP3    H146177   1.288   2.408   5.489  0.9282  0.3088  0.7339
 8254TIP3    H246178   1.353   2.282   5.436 -0.0629 -0.0529  0.3447
 8255TIP3   OH246179   1.203   2.563   2.459 -0.4433 -0.2933 -0.1298
 8255TIP3    H146180   1.117   2.591   2.490  0.3015  1.0247  0.8359
 8255TIP3    H246181   1.249   2.645   2.438  0.4857 -0.9848 -0.9150
 8256TIP3   OH246182   0.317   1.317  15.453 -0.1482 -0.2482  0.0851
 8256TIP3    H146183   0.261   1.250  15.493 -0.0350 -0.4311 -0.0602
 8256TIP3    H246184   0.406   1.285  15.466 -0.1432 -0.7228 -1.0387
 8257TIP3   OH246185   5.662   2.930  16.808 -0.2050  0.1044 -0.0782
 8257TIP3    H146186   5.726   2.944  16.877 -1.0540 -0.6164  0.8739
 8257TIP3    H246187   5.645   3.017  16.773 -0.6800  0.6470  1.4563
 8258TIP3   OH246188   6.287   6.330  17.412 -0.1173 -0.2849  0.2621
 8258TIP3    H146189   6.202   6.287  17.406  0.7481 -1.8966 -1.5899
 8258TIP3    H246190   6.287   6.394  17.340  0.7091 -1.2973 -0.6771
 8259TIP3   OH246191   3.826   0.728  13.648 -0.3864 -0.4234 -0.2989
 8259TIP3    H146192   3.777   0.796  13.694 -0.8204 -0.7938 -0.2116
 8259TIP3    H246193   3.913   0.730  13.688 -1.0916 -1.5420  1.3782
 8260TIP3   OH246194   5.731   2.228   0.105 -0.9866  0.5297  0.3435
 8260TIP3    H146195   5.804   2.278   0.141 -1.0806  1.4255 -0.6549
 8260TIP3    H246196   5.772   2.157   0.057 -0.8175  0.3286  0.7760
 8261TIP3   OH246197   2.023   5.534   5.327  0.5132 -0.0811 -0.3596
 8261TIP3    H146198   2.096   5.529   5.266 -0.4171  2.8826 -1.8894
 8261TIP3    H246199   1.949   5.564   5.275 -0.8474  0.6828  1.8393
 8262TIP3   OH246200   0.514   0.304   0.707 -0.1329 -0.1935 -0.3988
 8262TIP3    H146201   0.433   0.257   0.723 -0.2088  0.1354  0.2149
 8262TIP3    H246202   0.560   0.251   0.642 -0.0395 -1.3157  0.5504
 8263TIP3   OH246203   1.162   0.244  16.259 -0.1281  0.0883 -0.2336
 8263TIP3    H146204   1.183   0.337  16.257  1.1487 -0.0791  1.8765
 8263TIP3    H246205   1.107   0.234  16.337  0.3607 -1.0083 -0.0123
 8264TIP3   OH246206   2.538   1.501  14.653  0.6694 -0.4262  0.1180
 8264TIP3    H146207   2.622   1.466  14.683  1.4498 -0.5794 -2.0526
 8264TIP3    H246208   2.525   1.462  14.566 -2.5204 -1.7469  1.0617
 8265TIP3   OH246209   4.454   4.041   1.705  0.0082  0.3342  0.1884
 8265TIP3    H146210   4.544   4.025   1.733  0.5872  3.6062  0.6041
 8265TIP3    H246211   4.404   4.052   1.786 -0.0852  1.4979 -0.0024
 8266TIP3   OH246212   3.969   0.032  15.146  0.1298  0.1684  0.5349
 8266TIP3    H146213   4.043  -0.028  15.142 -0.8175 -1.0366  0.4825
 8266TIP3    H246214   3.978   0.087  15.068  1.5809  0.8170  1.1275
 8267TIP3   OH246215   5.609   0.228   6.475  0.5185  0.0199  0.4115
 8267TIP3    H146216   5.693   0.220   6.430  0.9873 -1.1457  1.4287
 8267TIP3    H246217   5.551   0.166   6.430  0.3310  0.4987 -0.0081
 8268TIP3   OH246218   5.882   0.492  15.802  0.1371  0.1770 -0.0214
 8268TIP3    H146219   5.811   0.470  15.862  0.1979  1.7850  0.6996
 8268TIP3    H246220   5.962   0.479  15.853  0.2133  1.1059  0.1077
 8269TIP3   OH246221   0.277   3.621   4.797  0.2803  0.1404 -0.4699
 8269TIP3    H146222   0.325   3.599   4.717 -0.9023  0.1858 -1.2192
 8269TIP3    H246223   0.186   3.600   4.776  0.1164 -1.1917  1.3690
 8270TIP3   OH246224   3.296   0.878   4.205 -0.4797 -0.4446  0.8089
 8270TIP3    H146225   3.363   0.904   4.269  2.1913 -1.3233 -1.4452
 8270TIP3    H246226   3.296   0.782   4.208  0.3838 -0.5368 -1.1040
 8271TIP3   OH246227   0.689   2.551   1.020  0.0963  0.8029  0.3178
 8271TIP3    H146228   0.622   2.540   0.952  1.2651 -0.5414 -0.6995
 8271TIP3    H246229   0.709   2.461   1.047  0.5528  1.2646  1.5553
 8272TIP3   OH246230   1.478   4.766   6.039 -0.3608  0.2602  0.4708
 8272TIP3    H146231   1.428   4.847   6.032  0.3199  0.7869  1.4577
 8272TIP3    H246232   1.567   4.791   6.015 -0.1607 -0.2177  0.7112
 8273TIP3   OH246233   6.119   2.021   1.358  0.0033 -0.0141  0.7153
 8273TIP3    H146234   6.150   1.958   1.423  0.0484  0.1874  0.8913
 8273TIP3    H246235   6.125   2.106   1.402  1.2434  0.2868  0.0192
 8274TIP3   OH246236   3.355   1.768  14.461 -0.6021 -0.2277  0.3073
 8274TIP3    H146237   3.277   1.712  14.462  0.4040 -1.6943 -0.3874
 8274TIP3    H246238   3.405   1.740  14.538  1.1036 -2.1485 -1.3680
 8275TIP3   OH246239   3.170   3.759  14.320 -0.0349  0.3462 -0.5800
 8275TIP3    H146240   3.222   3.798  14.391 -1.7449  0.5067  0.6312
 8275TIP3    H246241   3.204   3.670  14.313  0.4167  0.4433  0.1873
 8276TIP3   OH246242   0.998   4.605  13.299 -0.1885 -0.9504 -0.1752
 8276TIP3    H146243   0.938   4.650  13.360 -1.0981 -0.5789 -1.3092
 8276TIP3    H246244   0.961   4.621  13.213  1.2274 -1.2545 -0.8674
 8277TIP3   OH246245   5.130   1.515  17.515  0.2578 -0.3186 -0.1876
 8277TIP3    H146246   5.076   1.573  17.461  1.1089  0.4576 -0.2209
 8277TIP3    H246247   5.067   1.456  17.556 -0.5007 -0.2255 -1.1804
 8278TIP3   OH246248   4.749   2.330   3.592 -0.6101  0.8582  0.6077
 8278TIP3    H146249   4.721   2.334   3.501 -0.3869 -1.8856  0.3324
 8278TIP3    H246250   4.843   2.312   3.587 -0.3350  1.9615  1.4225
 8279TIP3   OH246251   1.560   5.458   4.644  0.4548 -0.0339 -0.1186
 8279TIP3    H146252   1.544   5.481   4.735 -3.7107 -0.0903 -0.6070
 8279TIP3    H246253   1.572   5.542   4.599  0.5953  0.1340  0.2324
 8280TIP3   OH246254   4.525   0.910  13.562 -0.2443  0.2586  0.0902
 8280TIP3    H146255   4.447   0.862  13.535 -1.1603  1.6343  0.1479
 8280TIP3    H246256   4.491   0.988  13.606  1.1838  0.2138  1.3729
 8281TIP3   OH246257   6.100   5.371   2.473  0.3801 -0.5874  0.3398
 8281TIP3    H146258   6.167   5.304   2.486  0.3826 -0.5755  0.3862
 8281TIP3    H246259   6.027   5.344   2.529  0.1600 -0.8571 -0.0731
 8282TIP3   OH246260   4.362   4.329  13.345  0.1866  0.0012 -0.3669
 8282TIP3    H146261   4.266   4.332  13.336 -0.1102 -3.1035  0.7771
 8282TIP3    H246262   4.381   4.397  13.410 -1.0612  1.4549 -1.4440
 8283TIP3   OH246263   1.095   4.219   4.020  0.1475  0.3700 -0.0617
 8283TIP3    H146264   1.132   4.153   3.961 -0.3940  0.7257 -0.8155
 8283TIP3    H246265   1.000   4.210   4.008 -0.0610 -0.5327  1.8329
 8284TIP3   OH246266   5.039   6.056  15.249  0.1558  0.2247  0.1648
 8284TIP3    H146267   5.071   6.124  15.308 -1.3705  0.7088  0.4883
 8284TIP3    H246268   4.974   6.008  15.300 -0.6683  0.1950 -0.8746
 8285TIP3   OH246269   3.036   1.512   3.951 -1.0127 -0.0774 -0.0534
 8285TIP3    H146270   2.952   1.467   3.956 -0.9355 -0.0638  2.8194
 8285TIP3    H246271   3.047   1.554   4.036  2.8946 -1.9664  0.6324
 8286TIP3   OH246272   6.099   1.157  16.735  0.0487 -0.2825  0.2461
 8286TIP3    H146273   6.055   1.073  16.728  0.4214 -0.6830  2.1719
 8286TIP3    H246274   6.142   1.155  16.820  2.4797  0.7174 -0.8591
 8287TIP3   OH246275   1.529   4.882   1.216 -0.3845  0.2233 -0.4928
 8287TIP3    H146276   1.483   4.870   1.133 -0.2587  0.6637 -0.6261
 8287TIP3    H246277   1.578   4.801   1.228  1.3794  1.0154 -1.9480
 8288TIP3   OH246278   6.193   0.327   3.612 -0.6576 -0.2459  0.1475
 8288TIP3    H146279   6.286   0.305   3.617 -0.1852  1.3541 -0.9044
 8288TIP3    H246280   6.187   0.418   3.641 -1.8502 -0.2320 -0.0600
 8289TIP3   OH246281   5.561   5.157   3.581 -0.1552  0.4602 -0.1139
 8289TIP3    H146282   5.651   5.124   3.589  0.1088  0.7375 -1.5018
 8289TIP3    H246283   5.508   5.080   3.562 -0.2058  0.3015  0.6676
 8290TIP3   OH246284   5.299   2.345   5.929  0.2342  0.2824  0.2706
 8290TIP3    H146285   5.236   2.347   6.001 -1.2308 -2.2092 -0.8012
 8290TIP3    H246286   5.368   2.285   5.959  0.1211  0.0131  0.0028
 8291TIP3   OH246287   1.418   3.688  16.480  0.0525 -0.2602  0.2027
 8291TIP3    H146288   1.500   3.642  16.499 -0.1032  0.0090  1.6387
 8291TIP3    H246289   1.427   3.717  16.388  1.2999 -0.7557  0.1533
 8292TIP3   OH246290   3.174   1.922   3.407 -0.3284  0.0466  0.4355
 8292TIP3    H146291   3.188   1.892   3.317  0.2899  0.9330  0.2267
 8292TIP3    H246292   3.165   1.841   3.458 -1.0611 -0.4599 -0.4702
 8293TIP3   OH246293   0.555   5.073  13.475 -0.0184  0.3820 -0.0692
 8293TIP3    H146294   0.581   4.990  13.435 -0.9367  0.0346  0.0209
 8293TIP3    H246295   0.590   5.068  13.564 -0.3424 -0.0612  0.0416
 8294TIP3   OH246296   6.611   3.696   1.730 -0.5278  0.1648  0.2505
 8294TIP3    H146297   6.598   3.630   1.798 -0.0155  0.3510  0.5372
 8294TIP3    H246298   6.699   3.678   1.696 -0.5174  0.4931  0.1008
 8295TIP3   OH246299   6.596   5.660  10.787 -0.2460  0.3162 -0.0166
 8295TIP3    H146300   6.565   5.617  10.708 -0.2607 -0.6636  0.5079
 8295TIP3    H246301   6.518   5.698  10.827  0.1581  4.0529 -2.2813
 8296TIP3   OH246302   5.057   0.548  14.563  0.0304  0.3062  0.5503
 8296TIP3    H146303   4.974   0.525  14.607  0.8973  0.0639  2.1463
 8296TIP3    H246304   5.041   0.634  14.526 -0.6927  0.6530  1.5937
 8297TIP3   OH246305   6.665   5.951   4.202 -0.4412 -0.0526  0.0914
 8297TIP3    H146306   6.591   5.894   4.224 -0.4197  0.1954  0.8426
 8297TIP3    H246307   6.665   5.954   4.106 -1.3731 -0.1038  0.0750
 8298TIP3   OH246308   2.923   4.900  13.071 -0.3774  0.1141  0.0984
 8298TIP3    H146309   2.984   4.830  13.095 -0.5633  0.2327  0.9602
 8298TIP3    H246310   2.900   4.941  13.155 -0.3430  1.1447 -0.3884
 8299TIP3   OH246311   6.125   5.976   0.011 -0.5730  0.2564  0.4376
 8299TIP3    H146312   6.115   6.040   0.082  0.7501  0.6073  0.3398
 8299TIP3    H246313   6.071   6.011  -0.060 -1.4847  0.1788  1.0694
 8300TIP3   OH246314   3.994   1.379   1.659 -0.6072 -0.5699  0.3632
 8300TIP3    H146315   4.016   1.295   1.618 -1.5113 -1.1471  1.0396
 8300TIP3    H246316   3.918   1.360   1.714 -2.2971  1.1738 -1.2327
 8301TIP3   OH246317   6.504   0.376  14.869 -0.0004  0.3193 -0.0756
 8301TIP3    H146318   6.600   0.379  14.870  0.2275 -1.2702 -3.1457
 8301TIP3    H246319   6.478   0.461  14.834  0.3943  0.3069 -0.4132
 8302TIP3   OH246320   3.556   6.074  16.200 -0.1250  0.1577  0.0598
 8302TIP3    H146321   3.564   6.011  16.128 -0.1587  1.1589 -0.8269
 8302TIP3    H246322   3.608   6.149  16.173  0.3221  0.3410  1.3350
 8303TIP3   OH246323   1.627   0.121  13.664  0.2375  0.0102 -0.0790
 8303TIP3    H146324   1.553   0.061  13.652 -0.2194  0.4752  0.3708
 8303TIP3    H246325   1.669   0.091  13.744 -0.2939  0.5909  0.4265
 8304TIP3   OH246326   6.595   4.291   0.524 -0.3401  0.0351  0.1996
 8304TIP3    H146327   6.507   4.311   0.491 -0.2308 -1.2077 -0.9128
 8304TIP3    H246328   6.587   4.203   0.561  0.3862  0.0160  0.3252
 8305TIP3   OH246329   0.283   3.081   2.055 -0.6306  0.2567  0.0861
 8305TIP3    H146330   0.282   3.027   2.134 -1.0053 -0.2343 -0.2544
 8305TIP3    H246331   0.277   3.019   1.983  2.3414  0.4513 -0.4802
 8306TIP3   OH246332   5.452   5.821   1.603 -0.1880  0.0079  0.3725
 8306TIP3    H146333   5.425   5.731   1.622 -0.4699 -0.1167 -0.6009
 8306TIP3    H246334   5.385   5.854   1.544 -0.4141  1.0719  1.1987
 8307TIP3   OH246335   4.859   1.362   1.442  0.0818 -0.2868 -0.3662
 8307TIP3    H146336   4.889   1.407   1.363 -0.9075  0.3355 -0.3994
 8307TIP3    H246337   4.937   1.316   1.474  0.8938  0.7415 -0.8131
 8308TIP3   OH246338   1.362   5.109  14.203 -0.2956  0.0012  0.2260
 8308TIP3    H146339   1.349   5.133  14.112  0.2470 -3.8867 -1.0566
 8308TIP3    H246340   1.450   5.141  14.224  0.0701 -0.1142 -1.0332
 8309TIP3   OH246341   3.128   3.840  17.430 -0.3877 -0.0756  0.0845
 8309TIP3    H146342   3.152   3.796  17.512 -1.4490 -1.0679 -0.1109
 8309TIP3    H246343   3.033   3.848  17.435 -0.3596  0.7574 -0.6149
 8310TIP3   OH246344   6.121   2.207   3.518  0.3391  0.3921  0.1842
 8310TIP3    H146345   6.098   2.114   3.514  1.9958 -0.0214 -0.3025
 8310TIP3    H246346   6.062   2.248   3.454 -0.8011 -0.2081  0.8066
 8311TIP3   OH246347   1.224   1.746   3.531  0.3599  0.3729  0.3047
 8311TIP3    H146348   1.243   1.752   3.437 -1.6240 -1.2931 -0.2738
 8311TIP3    H246349   1.238   1.835   3.564  0.5381  1.1309 -1.6852
 8312TIP3   OH246350   0.039   0.027   2.073  0.5402 -0.4702  0.1199
 8312TIP3    H146351   0.002   0.112   2.095  0.0508 -0.7533  0.4322
 8312TIP3    H246352  -0.019  -0.036   2.116  0.8496 -0.9631 -0.1663
 8313TIP3   OH246353   4.661   3.648  12.680 -0.0071 -0.2459  0.0825
 8313TIP3    H146354   4.681   3.640  12.587 -1.7056 -0.2654 -0.3220
 8313TIP3    H246355   4.715   3.582  12.723  0.6233 -0.3876 -0.9183
 8314TIP3   OH246356   4.583   4.354   4.779  0.4456  0.1671 -0.0885
 8314TIP3    H146357   4.654   4.419   4.776  2.4076 -1.8392  0.5398
 8314TIP3    H246358   4.528   4.383   4.852  0.9088  1.4555 -0.2190
 8315TIP3   OH246359   3.544   3.771   4.833 -0.3633 -0.5852  0.4687
 8315TIP3    H146360   3.588   3.807   4.756 -1.4383 -0.0934  0.0599
 8315TIP3    H246361   3.470   3.830   4.848 -1.0778 -1.5642  0.9258
 8316TIP3   OH246362   5.140   2.091   2.430  0.5692  0.5510 -0.0675
 8316TIP3    H146363   5.061   2.073   2.482  0.9111 -1.8566 -0.2544
 8316TIP3    H246364   5.107   2.104   2.341  0.1755  2.5517  0.3219
 8317TIP3   OH246365   0.011   5.843  16.769 -0.4368 -0.0669  0.4539
 8317TIP3    H146366   0.021   5.904  16.842  0.3077 -0.4456  0.6700
 8317TIP3    H246367   0.008   5.899  16.691 -2.1109  0.4038  0.8175
 8318TIP3   OH246368   3.567   4.941  14.941 -0.4536  0.3747  0.0252
 8318TIP3    H146369   3.565   4.930  15.036  0.4199 -0.7191 -0.0678
 8318TIP3    H246370   3.625   5.017  14.928  0.6676 -0.4111  0.3146
 8319TIP3   OH246371   5.037   2.830   3.549 -0.4548  0.0992 -0.7832
 8319TIP3    H146372   5.091   2.836   3.470  0.5517 -1.1335 -0.2264
 8319TIP3    H246373   5.100   2.825   3.621 -1.3392 -0.2451 -0.0141
 8320TIP3   OH246374   3.099   1.093   2.960  0.0077 -0.6033  0.4041
 8320TIP3    H146375   3.046   1.152   2.908  3.1848  1.2299 -1.0809
 8320TIP3    H246376   3.104   1.012   2.908  0.8112  0.1851 -0.7834
 8321TIP3   OH246377   1.850   0.508  15.713  0.8289 -0.3957 -0.6293
 8321TIP3    H146378   1.911   0.547  15.651  0.0748  0.1275 -1.0566
 8321TIP3    H246379   1.896   0.431  15.747  0.4932 -1.9864 -3.4322
 8322TIP3   OH246380   0.731   5.214  16.833 -0.3930  0.1476 -0.6136
 8322TIP3    H146381   0.754   5.264  16.911  0.9327  0.6902 -1.3078
 8322TIP3    H246382   0.641   5.240  16.812 -1.0051 -0.5041  1.0707
 8323TIP3   OH246383   1.019   1.128  17.498  0.0979  0.4870  0.2229
 8323TIP3    H146384   0.956   1.131  17.570 -1.9870  2.0645 -1.5496
 8323TIP3    H246385   1.009   1.212  17.453  2.1658  0.0294 -1.2418
 8324TIP3   OH246386   4.414   2.851   4.359 -0.1759  0.2614  0.1615
 8324TIP3    H146387   4.423   2.888   4.447 -1.9734 -1.2297  1.0368
 8324TIP3    H246388   4.323   2.871   4.334 -0.3881 -1.2811 -0.4054
 8325TIP3   OH246389   0.445   6.282  17.508  0.2861  0.1021  0.6997
 8325TIP3    H146390   0.480   6.254  17.593  0.9969  0.9479  0.7008
 8325TIP3    H246391   0.493   6.229  17.444 -0.9311 -1.2318  0.8443
 8326TIP3   OH246392   3.671   6.118  13.083 -0.2051 -0.3149 -0.4505
 8326TIP3    H146393   3.644   6.069  13.161 -0.0267 -1.1270 -0.8910
 8326TIP3    H246394   3.761   6.145  13.102 -0.7547  1.0146  0.3516
 8327TIP3   OH246395   4.943   0.641  12.488  0.6153  0.1893 -0.2639
 8327TIP3    H146396   4.862   0.609  12.448  0.2956  0.4031  0.2126
 8327TIP3    H246397   4.982   0.563  12.528 -0.7046  0.5445  1.8413
 8328TIP3   OH246398   2.257   1.525  12.800  0.0620 -0.0025  0.1183
 8328TIP3    H146399   2.305   1.533  12.883  1.1451 -0.0522 -0.4869
 8328TIP3    H246400   2.210   1.442  12.807 -0.7236  0.5009  1.1098
 8329TIP3   OH246401   5.902   2.988  12.110 -0.5560 -0.0171  0.4145
 8329TIP3    H146402   5.863   3.037  12.182  0.2246  0.2881  0.6453
 8329TIP3    H246403   5.833   2.930  12.079 -0.6942 -0.6559  1.8631
 8330TIP3   OH246404   2.658   4.539   2.268 -0.0906 -0.0408 -0.7637
 8330TIP3    H146405   2.597   4.609   2.293 -1.6754 -1.7061  0.2297
 8330TIP3    H246406   2.630   4.463   2.318  2.9620 -0.8703 -0.1098
 8331TIP3   OH246407   2.316   2.781   4.203  0.2461 -0.0111 -0.7081
 8331TIP3    H146408   2.388   2.721   4.183  0.6123  0.3812 -0.5851
 8331TIP3    H246409   2.358   2.866   4.214 -0.0483 -0.0168  0.7441
 8332TIP3   OH246410   1.217   6.164   1.506 -0.0835 -0.1284 -0.1868
 8332TIP3    H146411   1.141   6.119   1.471 -0.8700  2.0583 -1.5289
 8332TIP3    H246412   1.269   6.187   1.429  1.1409 -0.2181  0.5825
 8333TIP3   OH246413   1.256   4.376   2.793 -0.2371  0.1419  0.2677
 8333TIP3    H146414   1.199   4.322   2.739 -0.8316  2.4762 -1.5909
 8333TIP3    H246415   1.224   4.466   2.781  3.3961  1.5277 -0.3971
 8334TIP3   OH246416   0.302   4.362  11.839  0.1919  0.1586  0.1709
 8334TIP3    H146417   0.293   4.310  11.759 -0.4277 -0.1808  0.4575
 8334TIP3    H246418   0.258   4.310  11.906 -0.2904  0.9856  0.4994
 8335TIP3   OH246419   3.712   4.651   5.413 -0.2075 -0.0675  0.5609
 8335TIP3    H146420   3.807   4.661   5.408 -0.0302 -1.9882 -1.0940
 8335TIP3    H246421   3.678   4.734   5.380  0.9373 -0.0156 -0.6031
 8336TIP3   OH246422   6.179   2.914  11.260  0.2876  0.3799  0.2280
 8336TIP3    H146423   6.089   2.903  11.291 -0.5473  0.2041 -2.1133
 8336TIP3    H246424   6.173   2.908  11.165  2.8211  0.1254  0.0181
 8337TIP3   OH246425   5.438   5.998  11.166  0.6818  0.1879  0.4427
 8337TIP3    H146426   5.349   6.035  11.169 -0.0027 -0.8026 -2.9180
 8337TIP3    H246427   5.495   6.075  11.160  0.1131  0.8340  2.4497
 8338TIP3   OH246428   2.930   6.649  15.819  0.3213 -0.3122 -0.2849
 8338TIP3    H146429   3.003   6.710  15.824 -0.4883  0.7623 -1.3192
 8338TIP3    H246430   2.946   6.599  15.739 -0.8927  1.0329 -1.4033
 8339TIP3   OH246431   0.499   1.527   6.261 -0.6115  0.1716 -0.2907
 8339TIP3    H146432   0.473   1.617   6.276  2.7712  1.0307  1.4898
 8339TIP3    H246433   0.494   1.485   6.347  2.7458  0.2379  0.0657
 8340TIP3   OH246434   4.047   5.008  14.537 -0.5353 -0.5786 -0.0561
 8340TIP3    H146435   4.006   5.094  14.551 -2.8029 -1.7933  1.6348
 8340TIP3    H246436   3.992   4.966  14.470  0.6298 -0.6932 -0.9632
 8341TIP3   OH246437   5.509   0.744  13.327  0.2989 -0.0784 -0.4709
 8341TIP3    H146438   5.605   0.750  13.323  0.3290 -0.3790 -0.1490
 8341TIP3    H246439   5.489   0.659  13.289  0.2705 -0.7911  1.0896
 8342TIP3   OH246440   5.672   6.233  15.693  0.2453 -0.5121 -0.3495
 8342TIP3    H146441   5.612   6.299  15.726  0.1983 -0.9567  0.4593
 8342TIP3    H246442   5.728   6.211  15.768  0.0436 -1.6304 -0.5117
 8343TIP3   OH246443   5.936   3.469   2.544  0.4508  0.9976 -0.8240
 8343TIP3    H146444   5.992   3.405   2.589 -0.1730 -1.2011 -2.9086
 8343TIP3    H246445   5.863   3.484   2.603  1.0451  0.4300  0.0706
 8344TIP3   OH246446   5.033   1.852   0.766  0.1665  0.4653  0.1182
 8344TIP3    H146447   5.046   1.906   0.843  1.1778  2.7072 -1.5092
 8344TIP3    H246448   5.083   1.772   0.785  1.2205  1.3733  1.4028
 8345TIP3   OH246449   1.235   5.838   1.436  0.2816 -0.0034  0.1295
 8345TIP3    H146450   1.183   5.863   1.513 -1.9210  0.1470 -1.3305
 8345TIP3    H246451   1.243   5.743   1.443 -2.5694 -0.4236 -0.9231
 8346TIP3   OH246452   4.248   5.927   5.861  0.1941  0.3006  0.4360
 8346TIP3    H146453   4.333   5.938   5.903  0.2316  0.0057  0.4387
 8346TIP3    H246454   4.206   6.013   5.868  0.1388  0.2177  1.2060
 8347TIP3   OH246455   0.739   6.055   3.778 -0.2553  0.2398  0.1376
 8347TIP3    H146456   0.692   6.113   3.840 -0.3227  0.7371 -0.3690
 8347TIP3    H246457   0.782   6.115   3.718  1.7319 -0.1889  1.0702
 8348TIP3   OH246458   3.863   3.326   0.153  0.0508  0.1059  0.0700
 8348TIP3    H146459   3.819   3.358   0.074  2.4648  1.5085 -0.8323
 8348TIP3    H246460   3.849   3.396   0.217 -0.2452 -0.1148  0.2459
 8349TIP3   OH246461   5.248   6.370  14.413  0.2232  0.1331 -0.4516
 8349TIP3    H146462   5.181   6.340  14.352 -1.1603 -1.9314  1.9160
 8349TIP3    H246463   5.206   6.367  14.499  3.3164 -1.3146  1.1822
 8350TIP3   OH246464   1.417   2.092  11.537 -0.1191 -0.0913  0.1869
 8350TIP3    H146465   1.369   2.070  11.457  2.1525 -0.3270 -1.2194
 8350TIP3    H246466   1.414   2.013  11.590  0.1406 -0.6883 -0.6616
 8351TIP3   OH246467   4.946   4.846   0.882 -0.1942 -0.3212 -0.3467
 8351TIP3    H146468   4.863   4.818   0.920 -0.8841 -0.3465 -1.8042
 8351TIP3    H246469   4.981   4.910   0.945 -0.9840 -0.7939  0.5970
 8352TIP3   OH246470   1.519   1.809   2.473  0.1302  0.8060 -0.4046
 8352TIP3    H146471   1.439   1.797   2.525  1.4044 -0.8705  1.2855
 8352TIP3    H246472   1.563   1.883   2.514 -0.3150  1.4621 -1.0779
 8353TIP3   OH246473   2.729   2.789   4.181 -0.1543 -0.3249 -0.9446
 8353TIP3    H146474   2.719   2.756   4.271  1.8799  0.4454 -0.3961
 8353TIP3    H246475   2.726   2.884   4.190  0.7003 -0.2277 -1.6045
 8354TIP3   OH246476   4.897   2.804   5.016 -0.4533 -0.6402 -0.4013
 8354TIP3    H146477   4.986   2.835   4.996 -0.0306 -0.5127  1.4567
 8354TIP3    H246478   4.839   2.862   4.967  0.4257  1.1938  0.6246
 8355TIP3   OH246479   5.554   0.365  11.303  0.3531 -0.3620  0.2761
 8355TIP3    H146480   5.495   0.366  11.228 -0.9845 -1.9097  1.2267
 8355TIP3    H246481   5.639   0.344  11.266 -0.1907 -0.6477 -0.8731
 8356TIP3   OH246482   3.852   5.524   6.102 -0.5378 -0.0231 -0.1702
 8356TIP3    H146483   3.841   5.590   6.170 -1.2908  0.8348 -1.0823
 8356TIP3    H246484   3.773   5.470   6.108 -0.6423  0.1002 -0.3903
 8357TIP3   OH246485   0.715   2.788   6.998 -0.0789  0.2414 -0.3618
 8357TIP3    H146486   0.731   2.825   6.911  0.8046  1.7374  0.3915
 8357TIP3    H246487   0.690   2.864   7.051 -1.6862 -0.8060  0.4592
 8358TIP3   OH246488   0.350   5.606   1.021  0.1823 -0.5640 -0.1192
 8358TIP3    H146489   0.391   5.688   0.995 -0.0928 -0.2955  0.3020
 8358TIP3    H246490   0.263   5.608   0.980  0.3543 -0.8670 -0.5139
 8359TIP3   OH246491   2.460   4.611  12.636 -0.5704  0.2209  0.0433
 8359TIP3    H146492   2.441   4.528  12.681  2.2859 -1.0625 -0.9127
 8359TIP3    H246493   2.492   4.585  12.550 -0.1006  2.3650 -0.4885
 8360TIP3   OH246494   4.247   4.531  11.775  0.2079 -0.5940  0.2868
 8360TIP3    H146495   4.202   4.615  11.787  1.8571  0.4748 -0.5681
 8360TIP3    H246496   4.284   4.511  11.861  1.1675  0.4350  0.1473
 8361TIP3   OH246497   5.111   5.769  13.488  0.6318  0.5465  0.2382
 8361TIP3    H146498   5.102   5.728  13.574  1.5098  0.8276  0.4769
 8361TIP3    H246499   5.192   5.820  13.494  1.6418 -0.7420 -1.2805
 8362TIP3   OH246500   1.260   6.564  13.114  0.4195  0.3162  0.6033
 8362TIP3    H146501   1.305   6.490  13.075 -2.0355 -2.5079  2.6922
 8362TIP3    H246502   1.273   6.553  13.209 -0.5025  2.2559  1.0107
 8363TIP3   OH246503   0.156   0.436   1.422 -0.7213  0.0365  0.5820
 8363TIP3    H146504   0.069   0.475   1.419 -0.3269  1.1953  2.3647
 8363TIP3    H246505   0.180   0.439   1.514  1.3466  0.0785  0.0882
 8364TIP3   OH246506   0.741   4.036  15.944 -0.8173 -0.0869  0.3365
 8364TIP3    H146507   0.730   4.111  15.886 -1.1641  0.5509  1.2083
 8364TIP3    H246508   0.826   4.000  15.921 -1.4128 -0.5161 -1.3173
 8365TIP3   OH246509   2.751   0.160   2.671  0.3574  0.5573  0.0692
 8365TIP3    H146510   2.721   0.150   2.581  2.7806 -1.5018 -0.6544
 8365TIP3    H246511   2.813   0.233   2.668  0.3379  0.5752  0.0975
 8366TIP3   OH246512   3.556   4.761  16.225 -0.5670  0.6352 -0.1231
 8366TIP3    H146513   3.490   4.777  16.157 -1.3437  0.0656  0.4634
 8366TIP3    H246514   3.563   4.844  16.272 -0.9938  0.6561 -0.0910
 8367TIP3   OH246515   0.257   4.604  14.756 -0.2542  0.5798  0.5109
 8367TIP3    H146516   0.297   4.666  14.695 -1.0296  0.5529 -0.0387
 8367TIP3    H246517   0.329   4.549  14.786  0.5197  1.9241  1.2344
 8368TIP3   OH246518   4.981   3.505  13.682 -0.0937 -0.2794  0.5717
 8368TIP3    H146519   5.046   3.522  13.613 -0.1076 -1.7280  0.1728
 8368TIP3    H246520   4.897   3.508  13.637 -0.1554 -0.5111  0.6730
 8369TIP3   OH246521   1.818   2.085  15.919 -0.1046 -0.2803  0.3871
 8369TIP3    H146522   1.786   2.027  15.850 -1.4290  1.1837 -0.2981
 8369TIP3    H246523   1.912   2.094  15.902  0.0003 -1.6556  0.1223
 8370TIP3   OH246524   3.440   3.648   6.339  0.7868  0.2817 -0.0786
 8370TIP3    H146525   3.432   3.566   6.291  0.6475  0.0727  0.2935
 8370TIP3    H246526   3.476   3.623   6.424  1.1636  0.6639 -0.1251
 8371TIP3   OH246527   1.432   3.300  11.798  0.2384 -0.5726 -0.5991
 8371TIP3    H146528   1.520   3.313  11.763  0.8472 -0.0626  1.0484
 8371TIP3    H246529   1.408   3.211  11.770  1.0570 -0.5279 -1.4852
 8372TIP3   OH246530   2.746   2.084   3.162  0.3424 -0.9776 -0.0159
 8372TIP3    H146531   2.744   2.117   3.251 -0.6648 -2.7749  0.6857
 8372TIP3    H246532   2.833   2.108   3.129  1.0926 -1.1049  1.7782
 8373TIP3   OH246533   1.051   1.076  11.687 -0.6284  0.2329 -0.2984
 8373TIP3    H146534   0.994   1.018  11.637  1.3808 -0.8830 -1.4136
 8373TIP3    H246535   1.090   1.134  11.622 -0.5447  1.0215  0.4424
 8374TIP3   OH246536   2.709   4.410   3.584  0.4005  0.4930 -0.3929
 8374TIP3    H146537   2.723   4.356   3.661 -1.5140 -0.0899 -0.3989
 8374TIP3    H246538   2.614   4.413   3.574  0.5494  1.8788 -1.8078
 8375TIP3   OH246539   2.126   5.954   1.284 -0.5604 -0.4571 -0.2418
 8375TIP3    H146540   2.189   5.883   1.283 -1.2867 -1.1108 -0.7634
 8375TIP3    H246541   2.072   5.940   1.206 -1.3097  0.1103  0.1596
 8376TIP3   OH246542   0.365   0.234  13.271 -0.1401  0.2852  0.5337
 8376TIP3    H146543   0.423   0.202  13.202 -0.2134  1.3918 -0.0713
 8376TIP3    H246544   0.408   0.313  13.303 -1.0998  0.8836  0.3679
 8377TIP3   OH246545   1.167   2.435  17.445 -0.4268 -0.4968  0.3109
 8377TIP3    H146546   1.226   2.365  17.473 -0.6853 -0.4116  1.0691
 8377TIP3    H246547   1.205   2.515  17.482 -0.5284 -0.3209  0.0429
 8378TIP3   OH246548   5.328   5.043  11.343  0.3644  0.2417  0.4232
 8378TIP3    H146549   5.423   5.047  11.341  0.3451  0.8632  0.4948
 8378TIP3    H246550   5.299   5.126  11.303 -0.1350  0.6384  1.5787
 8379TIP3   OH246551   4.861   1.585  15.352 -0.5550 -0.2942 -0.0249
 8379TIP3    H146552   4.868   1.623  15.265  0.6430  1.0521  0.6266
 8379TIP3    H246553   4.819   1.500  15.338 -0.5487 -0.0226 -1.8712
 8380TIP3   OH246554   3.120   2.759   5.833  0.1228  0.4574 -0.1692
 8380TIP3    H146555   3.207   2.785   5.800  0.3986 -0.5833 -0.3012
 8380TIP3    H246556   3.113   2.667   5.810 -0.7420  0.3590  0.4611
 8381TIP3   OH246557   4.432   6.539  15.467  0.1248 -0.4057 -0.4082
 8381TIP3    H146558   4.346   6.504  15.443 -0.9649  1.8934 -0.1646
 8381TIP3    H246559   4.421   6.567  15.558  1.6555 -1.4792  0.1479
 8382TIP3   OH246560   0.622   0.635  11.130  0.2785 -0.4395  0.1987
 8382TIP3    H146561   0.650   0.544  11.137  0.5128 -0.3535  0.3944
 8382TIP3    H246562   0.535   0.631  11.089  0.3850 -0.7353  0.0015
 8383TIP3   OH246563   6.066   2.852   0.185  0.1097  0.0652 -0.6282
 8383TIP3    H146564   6.033   2.850   0.095 -1.7852  0.3073 -0.0005
 8383TIP3    H246565   6.032   2.771   0.225  1.8746 -0.6014 -0.4141
 8384TIP3   OH246566   0.875   6.071   1.061 -0.0409  0.5000 -0.2293
 8384TIP3    H146567   0.842   6.015   0.991  1.8473 -1.3858  0.2956
 8384TIP3    H246568   0.809   6.065   1.130 -0.0474 -0.7899 -0.3352
 8385TIP3   OH246569   6.020   0.684   0.580 -0.1184  0.1066 -0.4920
 8385TIP3    H146570   6.064   0.742   0.642 -2.0691  0.5952  0.5085
 8385TIP3    H246571   6.080   0.679   0.505  1.5919  0.7364  0.7787
 8386TIP3   OH246572   6.297   2.718  16.067  0.0173  0.4105 -0.1427
 8386TIP3    H146573   6.215   2.759  16.096  1.0770  1.0576  2.2257
 8386TIP3    H246574   6.348   2.708  16.148  1.1666 -2.5987 -1.1361
 8387TIP3   OH246575   3.981   0.301   2.700 -0.7079  0.0551 -0.0468
 8387TIP3    H146576   4.042   0.351   2.754 -0.5287 -1.3654  1.1387
 8387TIP3    H246577   3.920   0.366   2.665 -0.0891  1.1665  0.8754
 8388TIP3   OH246578   0.707   6.705   4.429 -0.4435  0.2320  0.3064
 8388TIP3    H146579   0.612   6.693   4.432 -0.4084 -0.5274 -1.0825
 8388TIP3    H246580   0.725   6.765   4.502 -1.8188 -0.6251  1.4143
 8389TIP3   OH246581   2.631   0.620  11.825  0.0357  0.3903  0.1522
 8389TIP3    H146582   2.692   0.548  11.809  0.1835  0.9196 -2.0590
 8389TIP3    H246583   2.643   0.642  11.917 -0.7884 -3.0662  1.2418
 8390TIP3   OH246584   4.035   5.991  16.936  0.2020 -0.2705 -0.3349
 8390TIP3    H146585   4.009   5.989  16.844  1.1691 -1.5296 -0.6203
 8390TIP3    H246586   4.062   6.081  16.952  1.6341 -0.3955 -1.7940
 8391TIP3   OH246587   0.459   2.777  13.716  0.5615 -0.0865 -0.5247
 8391TIP3    H146588   0.506   2.808  13.639 -1.7135 -0.2321 -2.0753
 8391TIP3    H246589   0.395   2.846  13.735 -0.5197 -1.1089 -0.2988
 8392TIP3   OH246590   3.071   2.487   6.170 -0.8949  0.1317 -0.1104
 8392TIP3    H146591   3.091   2.437   6.248 -0.0942  1.3301  0.4784
 8392TIP3    H246592   3.100   2.431   6.097 -0.3491 -0.3971  0.5052
 8393TIP3   OH246593   0.524   0.112   1.163 -0.2332 -0.2082 -0.4023
 8393TIP3    H146594   0.443   0.069   1.191 -0.5727  0.9226  0.4799
 8393TIP3    H246595   0.573   0.044   1.118 -1.2649 -1.1769 -0.1299
 8394TIP3   OH246596   6.455   1.943  11.730 -0.1718 -0.4298 -0.1446
 8394TIP3    H146597   6.368   1.941  11.770 -0.1513 -3.5648 -0.0360
 8394TIP3    H246598   6.515   1.960  11.803 -0.6046  2.8737 -0.3722
 8395TIP3   OH246599   0.589   0.839   3.306  0.5437 -0.2978 -0.3714
 8395TIP3    H146600   0.615   0.930   3.295  1.1432 -0.4793 -0.5135
 8395TIP3    H246601   0.603   0.820   3.399  0.2991 -0.2098 -0.3165
 8396TIP3   OH246602   3.148   2.016  13.389  0.0111 -0.2908 -0.6868
 8396TIP3    H146603   3.101   2.025  13.306 -0.5261  1.0998 -0.2486
 8396TIP3    H246604   3.228   2.067  13.377 -1.5004  2.6536  0.6535
 8397TIP3   OH246605   2.750   1.427  12.047  0.2213 -0.4368 -0.0742
 8397TIP3    H146606   2.769   1.511  12.006  1.1666 -0.4427  0.3265
 8397TIP3    H246607   2.795   1.363  11.992 -2.6586 -1.0274 -1.9464
 8398TIP3   OH246608   2.589   6.529   0.143 -0.2802  0.0872  0.0567
 8398TIP3    H146609   2.593   6.441   0.180  1.4781 -0.3472 -1.0378
 8398TIP3    H246610   2.549   6.517   0.057 -0.2260  0.3833 -0.0102
 8399TIP3   OH246611   2.115   2.621   0.579  0.2545  0.3174  0.5814
 8399TIP3    H146612   2.022   2.622   0.553  0.5266 -0.5559 -0.5120
 8399TIP3    H246613   2.147   2.537   0.547  1.1813  0.1568  1.8840
 8400TIP3   OH246614   0.236   5.761   5.879  0.1908 -0.4014  0.1043
 8400TIP3    H146615   0.240   5.668   5.858  1.4472 -0.8414  2.0280
 8400TIP3    H246616   0.328   5.787   5.890 -0.1721  0.9079  0.2436
 8401TIP3   OH246617   3.211   3.104  11.865 -0.0942  0.1224 -0.0541
 8401TIP3    H146618   3.265   3.036  11.904  0.9568  1.4669  0.9097
 8401TIP3    H246619   3.273   3.172  11.839 -1.1196  0.7458 -0.9411
 8402TIP3   OH246620   4.166   4.330  14.873 -0.0094 -0.0426  0.2727
 8402TIP3    H146621   4.217   4.365  14.946 -1.1079  1.3191  0.4196
 8402TIP3    H246622   4.151   4.405  14.816 -0.1381 -0.8490 -0.8036
 8403TIP3   OH246623   2.859   1.012  11.112 -0.1170 -0.1283 -0.0744
 8403TIP3    H146624   2.913   1.085  11.080  0.6276 -0.1210  1.1118
 8403TIP3    H246625   2.830   0.967  11.033 -0.0785  1.0821 -0.8140
 8404TIP3   OH246626   6.122   2.967  13.088 -0.1568 -0.3715  0.6183
 8404TIP3    H146627   6.131   3.062  13.095  0.6962 -0.4975  1.4292
 8404TIP3    H246628   6.111   2.937  13.179 -2.1263 -0.9088  0.2615
 8405TIP3   OH246629   1.528   5.330  15.638 -0.1183 -0.3181 -0.0993
 8405TIP3    H146630   1.488   5.300  15.556 -1.2426 -0.2618  0.4116
 8405TIP3    H246631   1.615   5.360  15.612 -0.4700 -0.2578 -1.2843
 8406TIP3   OH246632   5.455   4.584   0.750  0.2647  0.7733 -0.1271
 8406TIP3    H146633   5.414   4.649   0.693  0.6562 -1.2200 -2.8728
 8406TIP3    H246634   5.405   4.504   0.736  1.5931 -0.2789  0.8571
 8407TIP3   OH246635   4.603   4.317  15.328  0.1976 -0.0002  0.1944
 8407TIP3    H146636   4.639   4.228  15.329 -0.9789 -0.4967  0.7658
 8407TIP3    H246637   4.677   4.373  15.304  0.4280 -1.3589 -2.7737
 8408TIP3   OH246638   2.450   2.115  16.862  0.2142  0.1461 -0.2063
 8408TIP3    H146639   2.382   2.180  16.846  2.0380  1.9976 -0.9301
 8408TIP3    H246640   2.485   2.137  16.948 -1.1739 -1.8840  0.9514
 8409TIP3   OH246641   5.393   0.481  16.365 -0.7847  0.2073 -0.9137
 8409TIP3    H146642   5.317   0.424  16.379 -0.0259 -0.3067  1.6436
 8409TIP3    H246643   5.366   0.566  16.399 -0.4917  0.2438 -0.7728
 8410TIP3   OH246644   0.540   6.063   1.071 -0.5081 -0.2192 -0.2682
 8410TIP3    H146645   0.461   6.031   1.116 -0.2964 -1.3508 -0.6632
 8410TIP3    H246646   0.599   6.089   1.141 -1.2069  0.5874  0.0356
 8411TIP3   OH246647   0.662   5.591  14.006  0.0904 -0.0789 -0.2066
 8411TIP3    H146648   0.662   5.658  13.938  0.4510  0.3173  0.1724
 8411TIP3    H246649   0.593   5.530  13.981 -0.5224  0.6614 -0.3359
 8412TIP3   OH246650   1.769   2.215  11.836 -0.4805 -0.1443 -0.1624
 8412TIP3    H146651   1.800   2.125  11.841 -1.8293 -0.6578 -0.5628
 8412TIP3    H246652   1.674   2.207  11.821 -1.2663  1.3042  3.0817
 8413TIP3   OH246653   5.368   0.238   4.430  0.0407  0.0368 -0.6122
 8413TIP3    H146654   5.311   0.315   4.432 -0.6552 -0.4825  0.3808
 8413TIP3    H246655   5.450   0.267   4.471 -0.8729 -0.2064  1.5468
 8414TIP3   OH246656   1.932   6.474   6.412  0.1136 -0.7107  0.2437
 8414TIP3    H146657   1.982   6.551   6.385  0.9531 -1.4171 -0.2512
 8414TIP3    H246658   1.987   6.400   6.388 -1.5013 -1.5623 -1.0825
 8415TIP3   OH246659   5.570   1.686  16.803  0.0353  0.2028 -0.0115
 8415TIP3    H146660   5.581   1.679  16.708 -0.1304  0.8268 -0.0786
 8415TIP3    H246661   5.492   1.741  16.814  0.5144  0.7961  0.4873
 8416TIP3   OH246662   2.857   5.019  12.440  0.1886 -0.2200  0.0746
 8416TIP3    H146663   2.834   5.086  12.375  2.0637 -0.4411 -0.8736
 8416TIP3    H246664   2.878   5.068  12.519 -1.2887  0.1040  0.2929
 8417TIP3   OH246665   4.418   3.703  15.632  0.2177 -0.1726  0.0412
 8417TIP3    H146666   4.411   3.777  15.573  1.5325 -0.7471 -0.8879
 8417TIP3    H246667   4.328   3.679  15.652 -0.2243  1.0976 -0.3734
 8418TIP3   OH246668   5.836   2.255  16.820 -0.3891  0.3045  0.3445
 8418TIP3    H146669   5.786   2.234  16.741  0.0991 -0.9123  0.3211
 8418TIP3    H246670   5.927   2.259  16.789 -0.2580  0.3926  0.7416
 8419TIP3   OH246671   5.773   6.327   2.898 -0.0476  0.5283  0.3231
 8419TIP3    H146672   5.759   6.308   2.990  2.4773  0.2340  0.7195
 8419TIP3    H246673   5.856   6.284   2.877 -0.4664  0.7608 -2.0369
 8420TIP3   OH246674   3.789   1.004   2.378  0.1687 -1.1475 -0.2431
 8420TIP3    H146675   3.835   1.087   2.394 -0.0869 -1.2000  0.8870
 8420TIP3    H246676   3.760   1.010   2.287  2.6212 -1.2315 -1.1033
 8421TIP3   OH246677   5.620   6.701  14.056 -0.1727  0.2135 -0.0820
 8421TIP3    H146678   5.656   6.789  14.051  0.4788 -0.1076 -3.3201
 8421TIP3    H246679   5.675   6.656  14.120  1.1883  1.4632 -0.3245
 8422TIP3   OH246680   3.245   3.491  12.958 -0.2618  0.1291 -0.0271
 8422TIP3    H146681   3.274   3.455  12.874 -0.6965 -1.3589  0.4403
 8422TIP3    H246682   3.166   3.442  12.979 -1.4978  2.0933  0.1475
 8423TIP3   OH246683   1.330   6.510  13.371 -0.7368 -0.4915  0.5716
 8423TIP3    H146684   1.309   6.574  13.439  1.5641 -0.8870  1.7680
 8423TIP3    H246685   1.325   6.425  13.416 -0.9806 -0.9298 -0.2504
 8424TIP3   OH246686   1.333   3.455   6.054 -0.2518  0.1060  0.1271
 8424TIP3    H146687   1.246   3.452   6.015  0.1267 -0.2236 -0.7207
 8424TIP3    H246688   1.352   3.363   6.076 -0.6104  0.3374  1.4370
 8425TIP3   OH246689   3.101   5.446   3.630  0.4436 -0.2410  0.0913
 8425TIP3    H146690   3.058   5.433   3.546 -0.4717 -0.0850  0.5195
 8425TIP3    H246691   3.194   5.438   3.611  0.3564  1.3565 -1.2132
 8426TIP3   OH246692   4.282   4.012  13.432  0.1532  0.2802 -0.4428
 8426TIP3    H146693   4.365   4.015  13.384  0.1662  0.8019 -0.3906
 8426TIP3    H246694   4.304   4.042  13.520 -0.0114  0.0202 -0.3120
 8427TIP3   OH246695   1.030   6.619  17.462  0.0482  0.1911 -0.3926
 8427TIP3    H146696   1.114   6.638  17.420 -0.4922  1.8568 -0.8112
 8427TIP3    H246697   1.014   6.695  17.518  0.2036 -1.4521  2.0228
 8428TIP3   OH246698   5.266   5.276   3.460 -0.6698  0.1306 -0.3236
 8428TIP3    H146699   5.216   5.328   3.397 -1.2927 -1.7556 -1.4602
 8428TIP3    H246700   5.357   5.302   3.447 -0.5346 -1.4970 -3.4058
 8429TIP3   OH246701   5.944   3.604  16.355  0.3910 -0.0024  0.0889
 8429TIP3    H146702   5.867   3.625  16.409  0.5486  1.0711 -0.0829
 8429TIP3    H246703   6.006   3.564  16.416 -0.4778 -1.3274  0.1331
 8430TIP3   OH246704   1.964   2.506   3.517 -0.2757 -0.1010 -0.0352
 8430TIP3    H146705   1.935   2.480   3.605 -2.2504  0.5216 -0.4361
 8430TIP3    H246706   2.059   2.513   3.524 -0.2630 -1.3663  1.6859
 8431TIP3   OH246707   5.634   5.464   6.531  0.2520 -0.1350  0.2290
 8431TIP3    H146708   5.550   5.510   6.523 -0.2201 -1.1985 -1.7968
 8431TIP3    H246709   5.699   5.529   6.506 -0.2513 -0.0369 -0.9111
 8432TIP3   OH246710   4.103   5.412   3.686  0.0817  0.0174 -0.2629
 8432TIP3    H146711   4.053   5.438   3.608  1.2636  1.0689 -0.7148
 8432TIP3    H246712   4.041   5.418   3.758 -0.4143  1.4893 -0.7745
 8433TIP3   OH246713   1.204   1.697  17.059 -0.0459  0.0807 -0.0386
 8433TIP3    H146714   1.168   1.756  17.125  0.8469 -1.0951  1.5700
 8433TIP3    H246715   1.132   1.637  17.038  0.4622 -1.4411  2.1897
 8434TIP3   OH246716   3.227   6.373   1.367 -0.1433  0.4371  0.1508
 8434TIP3    H146717   3.314   6.408   1.349 -0.0159  0.5379  0.9186
 8434TIP3    H246718   3.198   6.420   1.446 -0.9775  0.5527 -0.2135
 8435TIP3   OH246719   2.289   0.719  16.328  0.3118 -0.7855 -0.0824
 8435TIP3    H146720   2.206   0.725  16.376  0.4816 -0.8227  0.2229
 8435TIP3    H246721   2.270   0.658  16.256  0.5161 -2.1643  0.9764
 8436TIP3   OH246722   3.078   0.793   1.034  0.1540  0.1029  0.1907
 8436TIP3    H146723   3.076   0.705   1.072  0.2612  0.3158  0.6892
 8436TIP3    H246724   3.011   0.841   1.080 -1.1573 -0.1958 -1.3058
 8437TIP3   OH246725   1.031   4.333  15.654  0.2621 -0.1890 -0.1074
 8437TIP3    H146726   0.945   4.350  15.693  0.4916  0.9806 -0.0687
 8437TIP3    H246727   1.012   4.312  15.563 -0.1034 -0.3957  0.0156
 8438TIP3   OH246728   0.423   3.228  15.037  0.3966  0.2575  0.3789
 8438TIP3    H146729   0.508   3.257  15.071  1.0591 -0.7736 -0.3174
 8438TIP3    H246730   0.434   3.133  15.025 -1.1466 -0.0246  1.0875
 8439TIP3   OH246731   6.674   2.101   4.787  0.1150  0.1688  0.6248
 8439TIP3    H146732   6.597   2.081   4.733 -0.2654 -0.5569  1.4031
 8439TIP3    H246733   6.740   2.132   4.725 -0.1142 -1.1893 -0.3373
 8440TIP3   OH246734   1.672   2.262  12.466 -0.5942 -0.7588  0.4112
 8440TIP3    H146735   1.614   2.232  12.396  0.6163  0.9552 -1.4154
 8440TIP3    H246736   1.755   2.280  12.423 -0.4988  2.7764  1.7039
 8441TIP3   OH246737   6.712   2.303   3.948  0.2892  0.3027  0.3452
 8441TIP3    H146738   6.716   2.254   3.865 -0.3513  1.1980 -0.2343
 8441TIP3    H246739   6.759   2.248   4.011  1.7218  0.0861 -0.8491
 8442TIP3   OH246740   6.402   5.028  15.792 -0.3581  0.5384 -0.8984
 8442TIP3    H146741   6.434   5.103  15.842  0.2542 -0.3629  0.1063
 8442TIP3    H246742   6.481   4.979  15.770 -0.8461 -0.5041 -0.3912
 8443TIP3   OH246743   2.900   0.391   0.387 -0.1784  0.0552 -1.1332
 8443TIP3    H146744   2.812   0.421   0.411 -0.9330 -2.0792 -1.0065
 8443TIP3    H246745   2.957   0.466   0.406 -1.4402  0.3174  2.4434
 8444TIP3   OH246746   2.671   3.324  13.486 -0.0230  0.1699  0.8258
 8444TIP3    H146747   2.640   3.414  13.496  0.0838  0.2618  0.3774
 8444TIP3    H246748   2.610   3.271  13.537 -1.6575  0.2103 -0.9645
 8445TIP3   OH246749   3.720   5.036  14.025  0.3008 -0.2330 -0.1541
 8445TIP3    H146750   3.689   5.074  14.107  1.7699 -1.2888  0.9536
 8445TIP3    H246751   3.734   5.111  13.967 -0.4554  0.5608  0.6590
 8446TIP3   OH246752   4.529   1.789   2.647  0.3152 -0.0493  0.2412
 8446TIP3    H146753   4.532   1.877   2.611  0.1973 -1.0648 -2.4997
 8446TIP3    H246754   4.436   1.769   2.658  0.3519  0.3363  1.4776
 8447TIP3   OH246755   2.534   4.676   3.272 -0.0423 -0.1665  0.6657
 8447TIP3    H146756   2.561   4.708   3.359 -1.7112 -0.3378  1.2754
 8447TIP3    H246757   2.481   4.746   3.236 -1.5725 -1.1465  0.9260
 8448TIP3   OH246758   2.246   2.363  12.767  0.2168  0.5580  0.2479
 8448TIP3    H146759   2.212   2.414  12.841 -0.5369  1.5851 -0.7507
 8448TIP3    H246760   2.331   2.331  12.796  0.1353  1.3160  1.3912
 8449TIP3   OH246761   1.708   4.039   2.831  0.1299  1.3273  0.5010
 8449TIP3    H146762   1.791   4.085   2.848  0.4793  1.9171 -2.2623
 8449TIP3    H246763   1.657   4.101   2.779 -0.6225 -0.2891 -0.7772
 8450TIP3   OH246764   2.555   0.240   5.920  0.1122  0.2117 -0.1638
 8450TIP3    H146765   2.462   0.226   5.901 -0.3618 -0.3958  2.2541
 8450TIP3    H246766   2.566   0.335   5.917 -1.0200  0.4250  1.0910
 8451TIP3   OH246767   4.061   4.938  12.518 -0.1750  0.3052 -0.4007
 8451TIP3    H146768   4.084   5.021  12.559 -1.7588  1.0824 -0.9803
 8451TIP3    H246769   3.999   4.897  12.579 -0.0045 -0.0797 -0.4812
 8452TIP3   OH246770   0.922   5.674  11.210  0.5144 -0.7024 -0.0013
 8452TIP3    H146771   0.926   5.600  11.272  0.5688 -1.3198 -0.7239
 8452TIP3    H246772   1.005   5.670  11.163  1.4448  1.1337  1.3930
 8453TIP3   OH246773   2.893   3.188  15.223 -1.0408 -0.9035 -0.4665
 8453TIP3    H146774   2.868   3.267  15.175 -1.7618 -1.3718 -0.8744
 8453TIP3    H246775   2.931   3.221  15.305  2.7176  0.0713 -2.3586
 8454TIP3   OH246776   6.142   2.207   1.148  0.5790 -0.3407  0.9180
 8454TIP3    H146777   6.054   2.180   1.123  0.6453  0.5394 -0.3390
 8454TIP3    H246778   6.158   2.161   1.231 -1.4646  0.3644  1.7618
 8455TIP3   OH246779   5.041   0.560  15.436  0.7668  0.3873 -0.6316
 8455TIP3    H146780   5.107   0.526  15.376  1.2337  0.4992 -0.1913
 8455TIP3    H246781   4.962   0.570  15.383  0.7676 -0.8707 -0.8990
 8456TIP3   OH246782   5.671   0.234  14.068  0.7381  0.4696  0.2062
 8456TIP3    H146783   5.724   0.293  14.122 -0.7100  2.7547 -0.7452
 8456TIP3    H246784   5.610   0.291  14.022 -1.4746 -1.8670 -0.0099
 8457TIP3   OH246785   1.677   0.062  15.451 -0.7014 -0.2548 -0.9275
 8457TIP3    H146786   1.745   0.128  15.465 -0.4905 -0.0049 -2.8599
 8457TIP3    H246787   1.596   0.112  15.443 -0.8157 -0.3911 -0.6556
 8458TIP3   OH246788   4.422   3.763  13.501 -0.1238  0.3121 -0.0630
 8458TIP3    H146789   4.462   3.686  13.461 -0.9758 -0.9663  1.4116
 8458TIP3    H246790   4.416   3.741  13.594 -1.4260  1.6947  0.2192
 8459TIP3   OH246791   1.454   6.051  11.800  0.3104 -0.3142  0.3051
 8459TIP3    H146792   1.518   6.119  11.781  0.7359 -1.2931 -2.1560
 8459TIP3    H246793   1.494   5.970  11.765 -1.5461 -1.2254  0.1696
 8460TIP3   OH246794   4.292   4.904  13.777  0.2566  0.7039 -0.3883
 8460TIP3    H146795   4.361   4.961  13.743 -1.0519  1.8153 -1.3278
 8460TIP3    H246796   4.222   4.910  13.712 -0.2971 -1.2890 -0.0416
 8461TIP3   OH246797   3.866   4.307  14.113 -0.3763  0.6262  0.3927
 8461TIP3    H146798   3.777   4.345  14.114 -0.2385  0.9671  0.0796
 8461TIP3    H246799   3.915   4.364  14.053 -1.1350 -2.2541 -3.3150
 8462TIP3   OH246800   0.188   6.723   3.359  0.0123  0.6651  0.0692
 8462TIP3    H146801   0.159   6.811   3.384 -1.0674 -0.2914  2.4791
 8462TIP3    H246802   0.122   6.692   3.297  0.1408  1.3623 -0.4233
 8463TIP3   OH246803   3.906   2.777  16.909 -0.8309  0.0140 -0.3948
 8463TIP3    H146804   3.903   2.706  16.974  1.0538  0.9135  0.7565
 8463TIP3    H246805   3.914   2.857  16.961 -0.1102  0.8409 -1.7262
 8464TIP3   OH246806   3.250   4.024   0.551 -0.2683  0.2047 -0.7699
 8464TIP3    H146807   3.205   4.103   0.578 -0.0849  0.1208 -0.2092
 8464TIP3    H246808   3.205   3.953   0.597 -0.0663  0.0436 -0.8144
 8465TIP3   OH246809   4.300   0.645   0.245  0.5931  0.0503  0.1011
 8465TIP3    H146810   4.216   0.629   0.202  0.7559  1.1287 -0.6470
 8465TIP3    H246811   4.316   0.566   0.296 -0.3200 -0.6512 -0.6655
 8466TIP3   OH246812   6.593   5.158  12.867  0.8403 -0.0440 -0.2998
 8466TIP3    H146813   6.569   5.206  12.947  1.3200 -0.5839  0.1829
 8466TIP3    H246814   6.680   5.192  12.844  0.2387  0.9083 -1.2418
 8467TIP3   OH246815   0.832   2.881  16.768 -0.0717  0.3688  0.1345
 8467TIP3    H146816   0.824   2.976  16.762  0.8441  0.4301 -0.2996
 8467TIP3    H246817   0.760   2.848  16.714  0.3135  0.8407 -0.6956
 8468TIP3   OH246818   0.145   3.360   4.395  0.1900 -0.0447 -0.1082
 8468TIP3    H146819   0.120   3.304   4.321 -1.6918  0.8261 -0.1731
 8468TIP3    H246820   0.151   3.300   4.469 -1.5248 -0.4005 -0.2310
 8469TIP3   OH246821   0.159   2.615   0.215  0.3397  0.2651  0.0718
 8469TIP3    H146822   0.069   2.584   0.206  0.0903  1.1729 -0.8456
 8469TIP3    H246823   0.186   2.635   0.125  2.0239 -1.4439  0.1322
 8470TIP3   OH246824   2.980   6.079  14.897 -0.3278  0.1244  0.2177
 8470TIP3    H146825   3.027   6.086  14.980  2.8852  1.0304 -1.4957
 8470TIP3    H246826   2.896   6.121  14.913 -0.0138 -0.1446  3.0894
 8471TIP3   OH246827   5.768   1.668   0.181 -0.3440  0.0359 -0.6406
 8471TIP3    H146828   5.795   1.733   0.247  0.5215 -0.0607 -0.8929
 8471TIP3    H246829   5.695   1.622   0.222  1.2719 -1.2157  1.0039
 8472TIP3   OH246830   6.464   3.870   2.116  0.2326 -0.2266  0.0123
 8472TIP3    H146831   6.466   3.961   2.146 -0.2806 -0.1239 -0.2612
 8472TIP3    H246832   6.408   3.872   2.039  0.1249 -0.7988  0.0774
 8473TIP3   OH246833   2.084   3.188  15.434 -0.1429 -0.1808  0.0870
 8473TIP3    H146834   2.005   3.208  15.483  1.2829  2.2341  1.6176
 8473TIP3    H246835   2.053   3.161  15.348 -2.6710  3.2619 -0.2908
 8474TIP3   OH246836   4.617   4.194   6.582 -0.1054 -0.2479 -0.1798
 8474TIP3    H146837   4.627   4.104   6.610  0.6863 -0.4417 -1.0656
 8474TIP3    H246838   4.525   4.215   6.602  0.1266 -0.7073  1.5111
 8475TIP3   OH246839   1.885   1.283  13.677  0.1617  0.3110 -0.3174
 8475TIP3    H146840   1.937   1.360  13.703  0.6977 -0.5259  1.1609
 8475TIP3    H246841   1.811   1.282  13.737 -0.0865 -0.0810 -0.6228
 8476TIP3   OH246842   3.985   0.105  12.698 -0.0706 -0.3623  0.3839
 8476TIP3    H146843   3.944   0.173  12.643 -0.1727 -0.3948  0.4191
 8476TIP3    H246844   4.019   0.041  12.636  0.3245 -0.1097  0.3391
 8477TIP3   OH246845   4.917   5.753   1.000  0.2992  0.4275 -0.0633
 8477TIP3    H146846   4.970   5.698   0.943  0.0752 -0.1670  0.2968
 8477TIP3    H246847   4.827   5.739   0.971  0.1079 -0.4699  0.9179
 8478TIP3   OH246848   5.678   1.781   4.401  0.7430  0.1467  0.5209
 8478TIP3    H146849   5.619   1.849   4.367 -0.4422 -1.2684 -0.3859
 8478TIP3    H246850   5.744   1.771   4.333  1.7341  1.2903  1.2600
 8479TIP3   OH246851   0.889   4.153   1.037 -0.0192 -0.0819 -0.1648
 8479TIP3    H146852   0.853   4.215   0.974 -0.0866  0.1068  0.0614
 8479TIP3    H246853   0.823   4.083   1.042  1.0400 -1.3154 -2.1058
 8480TIP3   OH246854   3.301   3.447  12.234 -0.0596 -0.2067  0.5636
 8480TIP3    H146855   3.304   3.471  12.141  1.8102 -0.9741  0.3839
 8480TIP3    H246856   3.254   3.519  12.276  1.8251  1.7788 -0.5242
 8481TIP3   OH246857   6.650   3.763  12.878  0.0923 -0.2514  0.5306
 8481TIP3    H146858   6.696   3.805  12.804 -0.6481  0.2459  0.3471
 8481TIP3    H246859   6.597   3.694  12.837 -0.3068  0.0145  0.5971
 8482TIP3   OH246860   3.575   6.487   3.377 -0.2809  0.4949  0.1001
 8482TIP3    H146861   3.578   6.402   3.333 -0.6629  1.1241 -1.2186
 8482TIP3    H246862   3.553   6.467   3.467 -1.0949 -0.7593 -0.3529
 8483TIP3   OH246863   0.344   0.982   3.032 -0.3315  0.3074  0.0686
 8483TIP3    H146864   0.384   1.066   3.050  0.1213  0.1185 -0.0383
 8483TIP3    H246865   0.264   1.003   2.984  0.3237  0.6216 -0.9006
 8484TIP3   OH246866   4.902   2.744   5.297 -0.1067  0.2583 -0.4051
 8484TIP3    H146867   4.895   2.776   5.208  0.8414 -2.3629 -1.5350
 8484TIP3    H246868   4.843   2.669   5.300  0.1720  0.0661  1.0487
 8485TIP3   OH246869   0.072   5.594  11.286 -0.0308  0.4044  0.4247
 8485TIP3    H146870  -0.001   5.651  11.312 -0.5928 -1.0068  2.1140
 8485TIP3    H246871   0.150   5.642  11.313 -0.3324  1.5777 -0.6850
 8486TIP3   OH246872   4.097   5.699   1.841 -0.7107 -0.6710 -0.1352
 8486TIP3    H146873   4.057   5.766   1.897 -0.9771  0.8326 -2.0433
 8486TIP3    H246874   4.024   5.664   1.790 -0.4296 -1.8468  0.2365
 8487TIP3   OH246875   2.890   3.944   3.838  0.0806 -0.0967 -0.0307
 8487TIP3    H146876   2.838   3.874   3.878  1.6914 -1.9160 -0.9721
 8487TIP3    H246877   2.979   3.929   3.871  0.3662  1.9358  0.2415
 8488TIP3   OH246878   5.880   2.896   4.370  0.2371 -0.0276 -0.0278
 8488TIP3    H146879   5.940   2.838   4.416  0.3369 -1.6023 -2.0055
 8488TIP3    H246880   5.804   2.841   4.350 -0.9148  1.3117  0.4511
 8489TIP3   OH246881   4.640   0.576   4.663 -0.2916  0.3469  0.2889
 8489TIP3    H146882   4.565   0.518   4.666 -1.1339  1.2021 -1.9355
 8489TIP3    H246883   4.608   0.656   4.621  1.4772  1.3399  0.6989
 8490TIP3   OH246884   0.723   2.206  13.520 -0.4136  0.5490  0.1964
 8490TIP3    H146885   0.761   2.246  13.442 -1.0114  0.3344 -0.2144
 8490TIP3    H246886   0.671   2.133  13.486 -0.0834 -0.0060  0.8591
 8491TIP3   OH246887   4.567   2.106  12.838  0.1133 -0.3995 -0.0116
 8491TIP3    H146888   4.602   2.102  12.927 -0.5309 -2.6053  0.2071
 8491TIP3    H246889   4.616   2.040  12.790 -0.5473 -0.2503 -0.9113
 8492TIP3   OH246890   6.262   6.265   1.971  0.2486 -0.8248  0.3205
 8492TIP3    H146891   6.181   6.299   2.007  1.4546 -0.6168  3.0296
 8492TIP3    H246892   6.249   6.170   1.967 -0.9383 -0.6371 -1.5872
 8493TIP3   OH246893   6.727   4.644  14.844 -0.9325  0.5564  0.1221
 8493TIP3    H146894   6.708   4.558  14.808 -0.4040  0.0403  1.0362
 8493TIP3    H246895   6.821   4.656  14.831 -0.9070  0.7658  0.4578
 8494TIP3   OH246896   6.115   6.007  13.202 -0.5594 -0.0910 -0.7153
 8494TIP3    H146897   6.052   6.071  13.169 -1.7484 -1.0817 -0.4373
 8494TIP3    H246898   6.200   6.039  13.171 -1.0580  1.8544 -0.1894
 8495TIP3   OH246899   4.553   2.090  11.775  0.1151  0.5105 -0.1036
 8495TIP3    H146900   4.627   2.051  11.729  1.8823  0.8234  2.2652
 8495TIP3    H246901   4.566   2.184  11.767 -1.6918  0.6751 -2.0528
 8496TIP3   OH246902   5.763   2.752  11.214  0.0992  0.1486 -0.0478
 8496TIP3    H146903   5.702   2.748  11.141  0.1779  0.4585 -0.1344
 8496TIP3    H246904   5.849   2.735  11.175  0.1231  0.1600 -0.0005
 8497TIP3   OH246905   5.560   4.595   5.775 -0.0790  0.0127 -0.3017
 8497TIP3    H146906   5.605   4.659   5.830  3.4473 -1.0721 -1.6637
 8497TIP3    H246907   5.532   4.526   5.835  0.6934  0.4290  0.5596
 8498TIP3   OH246908   3.144   2.490   3.571 -0.3524 -0.5337 -0.3002
 8498TIP3    H146909   3.217   2.429   3.561 -1.2805 -1.4848 -1.5791
 8498TIP3    H246910   3.169   2.566   3.518  0.9281  0.4201  1.5116
 8499TIP3   OH246911   6.344   1.440  16.329 -0.2283  0.1430  0.4466
 8499TIP3    H146912   6.334   1.530  16.298  0.0921  0.3112  0.8123
 8499TIP3    H246913   6.306   1.441  16.417 -2.0637 -0.5718 -0.2965
 8500TIP3   OH246914   5.925   6.502   1.100  0.2292  0.3750 -0.2332
 8500TIP3    H146915   6.011   6.541   1.085  0.3030 -0.2222 -1.5445
 8500TIP3    H246916   5.876   6.521   1.020 -0.4940 -0.2279  0.0570
 8501TIP3   OH246917   0.910   0.942   0.782  0.3114  0.5475  0.2977
 8501TIP3    H146918   0.873   1.024   0.814  1.0994  1.3374 -0.7531
 8501TIP3    H246919   0.840   0.902   0.730 -0.7999 -0.4963  2.4420
 8502TIP3   OH246920   5.002   0.507   3.018 -0.2336  0.4205  0.2977
 8502TIP3    H146921   5.004   0.432   2.958  0.2502  2.1539 -2.0076
 8502TIP3    H246922   5.094   0.519   3.044 -0.2751  0.4005  0.4573
 8503TIP3   OH246923   4.260   1.292  15.683  0.6455 -0.0507 -0.9953
 8503TIP3    H146924   4.252   1.288  15.779 -1.0899  0.7363 -1.0565
 8503TIP3    H246925   4.353   1.304  15.667  0.9098  0.3439  0.6341
 8504TIP3   OH246926   5.478   5.397  13.824 -0.0569  0.1574  0.4228
 8504TIP3    H146927   5.448   5.362  13.907  0.9985 -2.8249 -0.3473
 8504TIP3    H246928   5.570   5.372  13.819  0.2608  1.4347 -1.1089
 8505TIP3   OH246929   5.218   0.498   4.469 -0.1692 -0.0847  0.4394
 8505TIP3    H146930   5.283   0.500   4.539  0.2043 -2.3029  0.2414
 8505TIP3    H246931   5.258   0.549   4.398  0.8064 -0.3144  0.7982
 8506TIP3   OH246932   5.299   1.054   1.870  0.0247 -0.3631 -0.3597
 8506TIP3    H146933   5.257   1.132   1.906 -1.3655 -1.2324 -0.0294
 8506TIP3    H246934   5.339   1.012   1.946  0.9746  0.1329 -0.5742
 8507TIP3   OH246935   4.091   6.646  15.771 -0.1319 -0.1854  0.2561
 8507TIP3    H146936   3.998   6.634  15.755 -0.1518  0.1576  0.1045
 8507TIP3    H246937   4.115   6.722  15.718  0.2283 -0.2553  0.3151
 8508TIP3   OH246938   1.700   3.896   1.452 -0.3414  0.3030 -0.0062
 8508TIP3    H146939   1.765   3.835   1.486 -1.2874 -0.5090  0.3723
 8508TIP3    H246940   1.706   3.972   1.510  2.1175  1.4061 -1.5570
 8509TIP3   OH246941   4.264   1.704   2.633 -0.1856  0.4612 -0.1109
 8509TIP3    H146942   4.204   1.634   2.660 -0.3748  0.7613  0.2595
 8509TIP3    H246943   4.245   1.718   2.540  0.3939 -0.5074 -0.3951
 8510TIP3   OH246944   5.246   6.181   6.528  0.3685 -0.3566  0.6201
 8510TIP3    H146945   5.280   6.094   6.550  0.7680 -0.2562  0.4010
 8510TIP3    H246946   5.323   6.232   6.505 -0.0585 -0.7210 -1.9792
 8511TIP3   OH246947   4.808   0.667  12.994 -0.6050 -0.2626  0.8517
 8511TIP3    H146948   4.754   0.639  13.068  0.2069 -1.0327  1.1654
 8511TIP3    H246949   4.880   0.715  13.034 -0.4692 -0.1762  0.5073
 8512TIP3   OH246950   6.515   6.257  16.601  0.1359 -0.0879 -0.0610
 8512TIP3    H146951   6.556   6.224  16.521  1.2248 -1.4017  0.9950
 8512TIP3    H246952   6.585   6.255  16.667 -1.1186 -0.5170  1.3203
 8513TIP3   OH246953   2.355   5.966   1.606 -0.0028 -0.1565  0.2902
 8513TIP3    H146954   2.421   6.034   1.597 -1.5731  1.1846 -2.2285
 8513TIP3    H246955   2.402   5.884   1.592  1.4524  0.5680  0.7165
 8514TIP3   OH246956   3.943   4.215   1.870 -0.3997 -0.0921  0.2816
 8514TIP3    H146957   4.001   4.157   1.821  1.4276  2.2476 -0.5149
 8514TIP3    H246958   3.863   4.218   1.819  0.3138 -0.1759 -0.8715
 8515TIP3   OH246959   2.661   2.165  11.634  0.4007 -0.0056 -0.0691
 8515TIP3    H146960   2.678   2.072  11.622  0.4893  0.1057 -0.8501
 8515TIP3    H246961   2.735   2.196  11.687  0.7816 -0.2279 -0.4681
 8516TIP3   OH246962   3.443   2.512  13.302  0.7049  0.1954 -0.1758
 8516TIP3    H146963   3.431   2.479  13.213 -0.0601  0.6163 -0.2399
 8516TIP3    H246964   3.436   2.435  13.357 -1.0052  0.1841 -0.3285
 8517TIP3   OH246965   0.902   6.534   6.129  0.3881  0.1161 -0.1966
 8517TIP3    H146966   0.897   6.470   6.201  0.1063  0.4618  0.0966
 8517TIP3    H246967   0.921   6.481   6.052  0.1422 -0.3289  0.0419
 8518TIP3   OH246968   5.369   5.988   5.420 -0.9492  0.3125 -0.0737
 8518TIP3    H146969   5.450   5.964   5.374 -0.7034 -0.3647  0.7014
 8518TIP3    H246970   5.299   5.948   5.368 -0.7546  0.5109 -0.4909
 8519TIP3   OH246971   0.841   3.276   1.870  0.0043  0.3372 -0.1285
 8519TIP3    H146972   0.889   3.239   1.796 -1.3534  0.1528 -0.9547
 8519TIP3    H246973   0.909   3.312   1.927  1.1190  0.0043 -1.1973
 8520TIP3   OH246974   6.623   0.512  11.994  0.1001 -0.2361 -0.3295
 8520TIP3    H146975   6.606   0.581  11.929  1.2414 -0.3123 -0.7360
 8520TIP3    H246976   6.547   0.455  11.988 -0.3558  0.3913 -0.7760
 8521TIP3   OH246977   5.922   5.336   1.519 -0.1766  0.4589 -0.0623
 8521TIP3    H146978   5.913   5.256   1.571  1.5698  0.7532  0.7581
 8521TIP3    H246979   6.016   5.352   1.516 -0.2253  0.6984 -3.0187
 8522TIP3   OH246980   6.690   3.318   4.801 -0.5315 -0.0142  0.5240
 8522TIP3    H146981   6.662   3.409   4.787 -0.2808 -0.1626 -1.1096
 8522TIP3    H246982   6.767   3.325   4.857  0.3792  0.9060 -0.7881
 8523TIP3   OH246983   0.991   2.740   0.095  0.1521  0.0758  0.2235
 8523TIP3    H146984   0.931   2.792   0.042  0.6246  0.6495  0.2425
 8523TIP3    H246985   1.051   2.700   0.033 -0.4877 -0.8430  0.1655
 8524TIP3   OH246986   2.966   0.025  16.448 -0.2578  0.6379 -0.5569
 8524TIP3    H146987   3.055   0.054  16.429 -0.2801  1.6592  0.7834
 8524TIP3    H246988   2.977  -0.053  16.503 -0.1975 -2.1729 -4.1553
 8525TIP3   OH246989   0.359   4.842   0.914  0.0203  0.4620 -0.2240
 8525TIP3    H146990   0.326   4.912   0.857 -0.3168 -0.7194 -1.5143
 8525TIP3    H246991   0.328   4.761   0.874 -0.5104 -0.4083  1.8463
 8526TIP3   OH246992   5.526   3.389   1.174 -0.2064 -0.4031  0.3794
 8526TIP3    H146993   5.457   3.445   1.138 -1.3980 -2.3575 -0.6347
 8526TIP3    H246994   5.562   3.344   1.097  1.6626 -0.0258  0.9937
 8527TIP3   OH246995   3.064   1.691  16.522 -0.1934 -0.5016  0.1547
 8527TIP3    H146996   3.157   1.669  16.530 -0.2806 -1.3043 -0.8981
 8527TIP3    H246997   3.035   1.646  16.443 -0.8079  2.0689 -1.1930
 8528TIP3   OH246998   4.049   3.758   4.284  0.0824 -0.2008 -0.1764
 8528TIP3    H146999   4.004   3.679   4.255 -0.2434 -0.5523  1.2337
 8528TIP3    H247000   4.034   3.821   4.214  0.1663 -1.3092 -1.2217
 8529TIP3   OH247001   4.831   0.332   4.578 -0.3337  0.1812 -0.1164
 8529TIP3    H147002   4.866   0.286   4.654  4.0116  0.1852 -1.7915
 8529TIP3    H247003   4.871   0.419   4.582  3.2907 -0.9332 -3.9933
 8530TIP3   OH247004   3.566   2.946   2.419  0.3204  0.5783 -0.0053
 8530TIP3    H147005   3.575   2.851   2.423  0.8250  0.6331  0.1909
 8530TIP3    H247006   3.637   2.975   2.361  0.0663  0.8229 -0.2014
 8531TIP3   OH247007   4.707   0.598   6.474 -0.4488  0.2632 -0.5607
 8531TIP3    H147008   4.681   0.513   6.509 -1.5076  0.6608 -0.3266
 8531TIP3    H247009   4.630   0.654   6.488  0.1139  1.1722 -0.9960
 8532TIP3   OH247010   2.220   3.806   5.013  0.5153  0.0224 -0.6000
 8532TIP3    H147011   2.163   3.860   4.958 -0.9698 -0.6143  0.2449
 8532TIP3    H247012   2.289   3.865   5.043 -0.6311  1.2607 -0.3310
 8533TIP3   OH247013   0.713   3.653  15.153 -0.2357  0.1430  0.1003
 8533TIP3    H147014   0.781   3.716  15.175 -1.5336  1.4820  0.4000
 8533TIP3    H247015   0.707   3.654  15.058  0.1485  0.0291  0.0755
 8534TIP3   OH247016   0.357   2.501  16.375  0.4290 -0.1756 -0.3743
 8534TIP3    H147017   0.284   2.445  16.349 -0.1937 -0.2432  1.3845
 8534TIP3    H247018   0.368   2.485  16.469  1.1282  1.6235 -0.1002
 8535TIP3   OH247019   3.063   2.699   2.361  0.1510 -0.4398 -0.3476
 8535TIP3    H147020   2.999   2.764   2.331 -0.1322 -0.0010  1.1710
 8535TIP3    H247021   3.146   2.727   2.320 -0.0520  0.6364 -0.0576
 8536TIP3   OH247022   1.019   3.080   2.021  0.3833  0.0129 -0.0981
 8536TIP3    H147023   1.111   3.086   2.045  0.1903 -1.6381  1.2129
 8536TIP3    H247024   1.016   3.018   1.949  0.3172  0.3903 -0.4280
 8537TIP3   OH247025   2.211   6.251   2.426 -0.3340  0.4025  0.1468
 8537TIP3    H147026   2.218   6.316   2.356 -0.3262  0.7383  0.4562
 8537TIP3    H247027   2.255   6.173   2.391  0.7722  0.9637  0.2476
 8538TIP3   OH247028   6.218   0.844   5.611  0.2909  0.1089 -0.1022
 8538TIP3    H147029   6.246   0.851   5.702  0.7278  0.3198 -0.2481
 8538TIP3    H247030   6.177   0.928   5.592 -0.2403 -0.1165  0.0442
 8539TIP3   OH247031   0.760   0.904   1.120 -0.1132 -0.6267 -0.6730
 8539TIP3    H147032   0.695   0.966   1.154 -0.3415 -0.8209 -0.7531
 8539TIP3    H247033   0.708   0.835   1.079  0.0355 -2.1657  1.5636
 8540TIP3   OH247034   1.911   0.493   1.299 -0.6245  0.1188 -0.1316
 8540TIP3    H147035   1.854   0.502   1.222 -0.2437 -0.0309 -0.4296
 8540TIP3    H247036   1.855   0.521   1.372 -0.8636  0.6618 -0.5080
 8541TIP3   OH247037   6.641   5.644   4.939 -0.1350  0.1385  0.1682
 8541TIP3    H147038   6.656   5.669   5.030  0.5528 -4.2333  1.4689
 8541TIP3    H247039   6.729   5.637   4.901 -0.3369  0.2275 -0.3262
 8542TIP3   OH247040   5.356   6.367   2.602 -0.0301  0.1871 -0.5355
 8542TIP3    H147041   5.342   6.275   2.580 -0.3903 -0.4875  2.1334
 8542TIP3    H247042   5.448   6.383   2.582  0.6240 -1.4396  0.8785
 8543TIP3   OH247043   2.211   5.445   1.220  0.7238  0.1905  0.3137
 8543TIP3    H147044   2.270   5.390   1.168 -0.2965  0.5824 -1.3036
 8543TIP3    H247045   2.123   5.415   1.197  0.0450  3.2158 -1.5742
 8544TIP3   OH247046   3.649   1.371  11.597 -0.2768 -0.7092 -0.2249
 8544TIP3    H147047   3.599   1.321  11.532 -3.6785 -0.0529  1.6153
 8544TIP3    H247048   3.585   1.431  11.635  2.1341  0.6408  2.0341
 8545TIP3   OH247049   5.468   5.888  15.935  0.3676 -0.2060 -0.5538
 8545TIP3    H147050   5.534   5.936  15.986  1.4211 -0.1310 -1.9061
 8545TIP3    H247051   5.514   5.864  15.854 -0.8701 -1.3829 -0.9449
 8546TIP3   OH247052   0.351   4.891   4.360  0.1200  0.3638  0.2048
 8546TIP3    H147053   0.382   4.829   4.426  0.2865  0.0854 -0.1283
 8546TIP3    H247054   0.266   4.921   4.393 -0.5500 -0.9855 -0.2298
 8547TIP3   OH247055   1.023   1.673   3.017  0.4409  0.3361  0.3753
 8547TIP3    H147056   1.064   1.589   2.999  0.2908  0.1385  0.9355
 8547TIP3    H247057   1.021   1.717   2.932  0.0450 -0.4326 -0.0236
 8548TIP3   OH247058   0.355   6.472  13.877  0.2434  0.6609  0.4715
 8548TIP3    H147059   0.423   6.485  13.811 -0.2974 -0.8978 -0.4425
 8548TIP3    H247060   0.274   6.497  13.834 -0.0935 -0.1859  0.5975
 8549TIP3   OH247061   0.905   5.251   1.835 -0.4405  0.3784 -0.2551
 8549TIP3    H147062   0.866   5.318   1.892 -1.7985 -1.4080  1.0040
 8549TIP3    H247063   0.960   5.199   1.894 -0.4077 -0.3857 -0.9482
 8550TIP3   OH247064   1.293   2.721   5.932  0.2093 -0.5088 -0.2914
 8550TIP3    H147065   1.282   2.635   5.892 -0.9389 -0.1208 -0.8338
 8550TIP3    H247066   1.206   2.746   5.960  0.9571 -0.7636  2.5420
 8551TIP3   OH247067   5.663   2.138  17.241 -0.2313 -0.7923  0.5830
 8551TIP3    H147068   5.736   2.137  17.179  0.2752 -1.5450  1.1641
 8551TIP3    H247069   5.636   2.230  17.245  1.3458 -0.3101  1.0948
 8552TIP3   OH247070   0.923   3.529   5.695 -0.3502 -0.5013 -0.1877
 8552TIP3    H147071   0.898   3.620   5.676 -4.0559 -1.1662  0.6594
 8552TIP3    H247072   0.916   3.485   5.610  0.2519 -0.2461 -0.3750
 8553TIP3   OH247073   4.045   0.896   5.724  0.1822  0.2079 -0.7425
 8553TIP3    H147074   3.983   0.824   5.739  0.4795  0.0191 -0.3991
 8553TIP3    H247075   4.019   0.963   5.789  1.8817 -0.8745  1.1615
 8554TIP3   OH247076   0.367   4.851  17.268 -0.1728  0.0727 -0.1183
 8554TIP3    H147077   0.379   4.883  17.179 -1.8767  0.5021 -0.2202
 8554TIP3    H247078   0.274   4.864  17.286  0.1568  0.0718  1.7573
 8555TIP3   OH247079   0.949   5.860  16.667 -0.0696  1.0288 -0.3356
 8555TIP3    H147080   1.028   5.860  16.720  0.8049 -0.6292 -1.5625
 8555TIP3    H247081   0.921   5.952  16.665  2.0516  1.7165 -0.2207
 8556TIP3   OH247082   2.714   0.666  13.969 -0.3518 -0.0560 -0.3536
 8556TIP3    H147083   2.625   0.640  13.946 -0.5100 -0.9805  1.1225
 8556TIP3    H247084   2.737   0.608  14.041  0.2411  2.2646  1.4523
 8557TIP3   OH247085   4.790   0.376  12.583 -0.5261 -0.0849  0.2989
 8557TIP3    H147086   4.749   0.440  12.524 -1.7174 -0.2195  0.9461
 8557TIP3    H247087   4.822   0.307  12.524  0.6074  0.9983 -0.3843
 8558TIP3   OH247088   5.147   3.524   3.013  0.0780  0.1845 -0.3535
 8558TIP3    H147089   5.217   3.564   2.961  0.1977  0.3087 -0.0938
 8558TIP3    H247090   5.168   3.546   3.103 -1.0748  1.4695 -0.3638
 8559TIP3   OH247091   2.780   5.682  13.167  0.3983  0.2557  0.5237
 8559TIP3    H147092   2.860   5.701  13.117 -0.0339  0.3977 -0.1151
 8559TIP3    H247093   2.714   5.740  13.130 -0.4862 -1.1668 -0.2208
 8560TIP3   OH247094   5.437   3.224   1.889 -0.1273  0.7054  0.4895
 8560TIP3    H147095   5.367   3.285   1.865 -0.4634  0.8734  1.7907
 8560TIP3    H247096   5.499   3.229   1.817 -1.4967  0.4750 -0.7460
 8561TIP3   OH247097   6.544   1.425   2.107  0.1760 -0.0264  0.3198
 8561TIP3    H147098   6.584   1.455   2.025 -1.7051 -0.4401 -0.8207
 8561TIP3    H247099   6.526   1.506   2.155 -0.1755  0.3533 -0.4255
 8562TIP3   OH247100   4.547   2.483   2.590  0.0622 -0.6091  0.3033
 8562TIP3    H147101   4.621   2.543   2.579 -0.3330 -0.0496  0.6457
 8562TIP3    H247102   4.508   2.476   2.503  1.7736 -2.6180 -0.4147
 8563TIP3   OH247103   6.288   0.143   5.995 -0.0442 -0.9397  0.0764
 8563TIP3    H147104   6.376   0.180   5.986 -0.0400 -0.7925  0.6999
 8563TIP3    H247105   6.289   0.065   5.939 -0.6591  1.0011 -2.8924
 8564TIP3   OH247106   2.672   6.660  14.466 -0.0612  0.0836 -0.1380
 8564TIP3    H147107   2.759   6.659  14.505  0.1093  0.6420 -0.4948
 8564TIP3    H247108   2.657   6.570  14.437  0.4900  0.0344 -0.2766
 8565TIP3   OH247109   3.391   4.394  16.292  0.3608 -0.3391 -0.5427
 8565TIP3    H147110   3.308   4.406  16.247  0.0291  1.4159  0.4231
 8565TIP3    H247111   3.376   4.431  16.380  2.2437  0.3806 -0.4754
 8566TIP3   OH247112   0.180   4.203   3.626 -0.2738  0.0808  0.1721
 8566TIP3    H147113   0.097   4.244   3.649  0.8479  1.2902  2.4245
 8566TIP3    H247114   0.245   4.251   3.678  1.7407 -1.2988 -0.9603
 8567TIP3   OH247115   1.095   1.971   5.326 -0.5071 -0.0374 -0.1905
 8567TIP3    H147116   1.076   2.025   5.403 -0.5195  0.6387 -0.6501
 8567TIP3    H247117   1.155   1.904   5.358  1.5820  1.7588 -0.0665
 8568TIP3   OH247118   5.194   1.844  15.249 -0.2605  0.3671 -0.0424
 8568TIP3    H147119   5.112   1.816  15.291  0.1152 -0.6851  0.0141
 8568TIP3    H247120   5.167   1.869  15.161 -0.3156 -2.6840 -1.0259
 8569TIP3   OH247121   3.373   2.712   0.189  0.0673  1.0341  1.2070
 8569TIP3    H147122   3.331   2.626   0.195 -0.4944  1.3351  1.7447
 8569TIP3    H247123   3.461   2.698   0.223  0.8962  0.0976 -1.1514
 8570TIP3   OH247124   5.199   4.219  15.977 -0.0258 -0.7406 -0.8018
 8570TIP3    H147125   5.291   4.241  15.992  0.1693 -2.3299  0.7986
 8570TIP3    H247126   5.198   4.176  15.892  0.5342  0.1629 -1.2786
 8571TIP3   OH247127   3.749   2.909   0.235  0.5866 -0.1388  0.2550
 8571TIP3    H147128   3.701   2.887   0.155 -1.3554  0.6726  1.1350
 8571TIP3    H247129   3.699   2.866   0.305 -0.8388  3.2788  1.5639
 8572TIP3   OH247130   5.746   6.375   4.205  0.3475 -0.2672  0.1012
 8572TIP3    H147131   5.730   6.281   4.199 -1.0872 -0.0790  0.7410
 8572TIP3    H247132   5.796   6.385   4.286 -0.5961 -0.3679  0.7136
 8573TIP3   OH247133   2.477   4.352  13.149  0.2645 -0.1750  0.1534
 8573TIP3    H147134   2.387   4.326  13.131 -0.4409  1.4999  0.9771
 8573TIP3    H247135   2.496   4.316  13.236  0.0923  0.1379  0.3232
 8574TIP3   OH247136   3.249   2.550  14.288  0.3018 -0.1014 -0.4494
 8574TIP3    H147137   3.177   2.553  14.351  0.6501  2.5300 -0.0579
 8574TIP3    H247138   3.326   2.578  14.338  1.1428 -0.5493 -1.4393
 8575TIP3   OH247139   5.344   6.565   5.092  0.4443  0.6361  0.2189
 8575TIP3    H147140   5.333   6.511   5.171  1.1257 -1.5654 -1.1146
 8575TIP3    H247141   5.434   6.550   5.065  0.3249  1.6383 -0.7946
 8576TIP3   OH247142   0.586   3.629   3.585 -0.2905 -0.5251  0.7405
 8576TIP3    H147143   0.619   3.544   3.612 -0.5889 -1.1764 -0.8363
 8576TIP3    H247144   0.539   3.663   3.661 -1.6907 -2.5524  0.8245
 8577TIP3   OH247145   0.665   6.500  16.316  0.3108  0.1552  0.2511
 8577TIP3    H147146   0.703   6.578  16.355  0.3785  0.1906  0.1150
 8577TIP3    H247147   0.635   6.528  16.230  1.8329 -0.3464 -0.4925
 8578TIP3   OH247148   6.056   0.436  16.846  0.0342  0.4670  0.0959
 8578TIP3    H147149   5.968   0.421  16.881  0.4373  1.9664  1.9259
 8578TIP3    H247150   6.115   0.397  16.910  0.7395  0.3325 -0.6169
 8579TIP3   OH247151   6.626   4.179  13.153 -0.5505  0.4077 -0.7990
 8579TIP3    H147152   6.624   4.161  13.247  0.7395 -1.5947 -1.1000
 8579TIP3    H247153   6.544   4.142  13.121 -0.6137  0.3390 -0.5650
 8580TIP3   OH247154   4.691   4.686   5.551 -0.8299 -0.1077  0.2197
 8580TIP3    H147155   4.750   4.717   5.620  1.2265 -2.0043 -0.6012
 8580TIP3    H247156   4.640   4.617   5.593  0.7691 -1.6095 -0.2040
 8581TIP3   OH247157   6.245   6.731   4.669 -0.3218 -0.2686 -0.1330
 8581TIP3    H147158   6.281   6.780   4.742 -1.5507 -0.4589  0.6207
 8581TIP3    H247159   6.287   6.769   4.592 -0.8535  1.6325  0.4648
 8582TIP3   OH247160   1.578   4.632   3.662 -1.2347 -0.1911 -0.3616
 8582TIP3    H147161   1.622   4.667   3.584 -0.2726 -0.7805 -0.1011
 8582TIP3    H247162   1.485   4.635   3.640 -1.0151  0.1899 -1.3068
 8583TIP3   OH247163   2.625   5.639   6.378 -0.2489  0.2039 -0.1795
 8583TIP3    H147164   2.638   5.695   6.455 -1.3288 -3.2006  2.7470
 8583TIP3    H247165   2.694   5.573   6.385 -1.2203 -0.9858 -1.3130
 8584TIP3   OH247166   6.565   5.485  14.110 -0.5025  0.0381  0.0973
 8584TIP3    H147167   6.530   5.566  14.149 -1.8423 -0.2146 -0.5210
 8584TIP3    H247168   6.496   5.420  14.125 -0.2737 -0.5048 -1.1242
 8585TIP3   OH247169   5.562   0.797   3.536  0.0706 -0.4589  0.4804
 8585TIP3    H147170   5.631   0.753   3.487  1.0311  0.1713  1.2214
 8585TIP3    H247171   5.511   0.843   3.470 -0.3326 -1.8199 -0.2011
 8586TIP3   OH247172   5.633   4.191   5.623 -0.0748  0.1548  0.2556
 8586TIP3    H147173   5.631   4.154   5.712  1.7872 -0.3954  0.1202
 8586TIP3    H247174   5.570   4.139   5.574 -0.4294 -0.1716  1.0396
 8587TIP3   OH247175   3.426   4.906   3.891  0.0174 -0.9317 -0.2822
 8587TIP3    H147176   3.387   4.960   3.961  1.9590  0.1603  0.0247
 8587TIP3    H247177   3.517   4.933   3.888  0.5402 -2.6708 -1.6694
 8588TIP3   OH247178   6.697   6.343  16.099  0.3597  0.4173 -0.2411
 8588TIP3    H147179   6.691   6.401  16.175  0.0122 -1.3498  1.1327
 8588TIP3    H247180   6.648   6.389  16.031 -0.7985  1.2737  1.1039
 8589TIP3   OH247181   1.959   5.242   5.102  0.7746  0.3671 -0.5993
 8589TIP3    H147182   2.043   5.275   5.137  0.8658  0.2657 -0.7217
 8589TIP3    H247183   1.984   5.166   5.050  0.4370 -0.6750  0.7165
 8590TIP3   OH247184   2.726   5.841  14.714 -0.3128  0.0117 -0.1540
 8590TIP3    H147185   2.757   5.921  14.757  0.4873 -0.3167 -0.1186
 8590TIP3    H247186   2.696   5.785  14.786  0.5207 -0.3180 -0.0514
 8591TIP3   OH247187   2.414   0.566  12.279  0.3038 -0.3966  0.6364
 8591TIP3    H147188   2.389   0.658  12.289  0.9814 -0.0481 -0.6686
 8591TIP3    H247189   2.420   0.533  12.369 -0.3387  0.7181  1.1118
 8592TIP3   OH247190   1.079   2.321  14.225  0.1431 -1.0734 -0.3388
 8592TIP3    H147191   1.125   2.292  14.147  0.3035  0.0964 -0.6998
 8592TIP3    H247192   1.142   2.378  14.270 -0.5363 -0.3658 -0.2602
 8593TIP3   OH247193   0.035   1.910   4.589  0.0559 -0.1207  1.0301
 8593TIP3    H147194  -0.054   1.922   4.555 -0.5239 -2.9394  1.2856
 8593TIP3    H247195   0.022   1.894   4.683  0.9173  0.0512  1.1860
 8594TIP3   OH247196   3.143   5.230   1.827  0.1475  0.5813 -0.0665
 8594TIP3    H147197   3.227   5.196   1.797 -0.0057  0.1212  0.0047
 8594TIP3    H247198   3.101   5.154   1.870  0.4883  1.2758  1.5565
 8595TIP3   OH247199   2.961   2.990  16.727  0.9064  0.0035 -0.6943
 8595TIP3    H147200   2.951   2.985  16.632 -1.1104  0.2537 -0.5294
 8595TIP3    H247201   3.035   3.048  16.740  0.7503  0.5544 -2.1115
 8596TIP3   OH247202   4.583   1.126   3.205 -0.0882 -0.7991 -0.0407
 8596TIP3    H147203   4.660   1.104   3.152  1.2279  1.4268  0.8159
 8596TIP3    H247204   4.547   1.041   3.231  2.0369 -1.9350 -0.5548
 8597TIP3   OH247205   6.229   5.621   2.427 -0.5909  0.1251 -0.1839
 8597TIP3    H147206   6.183   5.537   2.438 -1.1927  0.4967  0.2370
 8597TIP3    H247207   6.322   5.598   2.429 -0.7252 -0.4130  1.1729
 8598TIP3   OH247208   2.777   0.574  12.823 -0.1378 -0.7817 -0.2565
 8598TIP3    H147209   2.773   0.478  12.826 -0.9543 -0.7368  0.8407
 8598TIP3    H247210   2.691   0.600  12.790  0.2538 -0.4317 -1.0148
 8599TIP3   OH247211   4.778   2.943   3.659  0.0895  0.6335 -0.1305
 8599TIP3    H147212   4.770   3.020   3.602  1.1879  0.3579 -0.6837
 8599TIP3    H247213   4.869   2.917   3.651  0.5846  1.2090  2.5847
 8600TIP3   OH247214   5.028   2.544   4.879 -0.3320  0.3937 -0.4114
 8600TIP3    H147215   5.013   2.538   4.785  1.4198  4.5503 -1.1506
 8600TIP3    H247216   4.982   2.623   4.906  0.2536 -0.0143  2.0287
 8601TIP3   OH247217   0.394   2.306  13.333  0.2772  0.0853 -0.0268
 8601TIP3    H147218   0.441   2.224  13.350  0.9697  0.5003  0.0897
 8601TIP3    H247219   0.460   2.363  13.294  0.1070  0.9720  0.9520
 8602TIP3   OH247220   5.816   0.100  13.436  0.1519  0.1692 -0.5990
 8602TIP3    H147221   5.768   0.175  13.471 -3.4659 -1.9633 -0.4573
 8602TIP3    H247222   5.792   0.097  13.343  3.5157  1.3365 -1.6684
 8603TIP3   OH247223   4.786   4.477  13.243 -0.0987 -0.3952  0.0420
 8603TIP3    H147224   4.720   4.476  13.174 -0.8549 -3.2849  0.6897
 8603TIP3    H247225   4.870   4.476  13.196 -0.5899 -1.5050 -0.8652
 8604TIP3   OH247226   2.762   4.511   3.311  0.2677 -0.3403 -0.2556
 8604TIP3    H147227   2.707   4.585   3.283 -1.4519 -1.6026 -0.3466
 8604TIP3    H247228   2.721   4.480   3.392  1.2015 -0.9559 -0.0083
 8605TIP3   OH247229   5.224   0.268   2.123  0.1355 -0.4809 -0.0927
 8605TIP3    H147230   5.213   0.270   2.218  1.1862 -0.5338  0.0385
 8605TIP3    H247231   5.235   0.360   2.098 -0.2509 -0.4564 -0.1874
 8606TIP3   OH247232   3.994   3.480   3.960  0.2377 -0.2187  0.3893
 8606TIP3    H147233   4.001   3.394   3.918  1.3064 -0.3084  0.7299
 8606TIP3    H247234   4.069   3.484   4.019 -0.5256  0.4281  1.3460
 8607TIP3   OH247235   4.599   4.484   6.095  0.2353  0.5317  0.2694
 8607TIP3    H147236   4.634   4.395   6.090  0.6520  0.7400 -1.1060
 8607TIP3    H247237   4.554   4.488   6.179 -2.1458 -1.8548 -0.7209
 8608TIP3   OH247238   5.703   5.484   2.255 -0.1322 -0.3551 -0.6629
 8608TIP3    H147239   5.790   5.521   2.242 -0.4164  0.7533  0.3969
 8608TIP3    H247240   5.682   5.503   2.347 -1.2384 -1.1554 -0.7273
 8609TIP3   OH247241   4.240   2.802  15.413  0.1300 -0.2478 -0.3814
 8609TIP3    H147242   4.167   2.800  15.475 -0.4099 -0.4725 -1.0148
 8609TIP3    H247243   4.305   2.742  15.451  0.7160  1.2127  1.0443
 8610TIP3   OH247244   5.055   2.715  13.771 -0.0212  0.2519 -0.0044
 8610TIP3    H147245   5.048   2.649  13.702 -0.1585 -1.2448  1.3890
 8610TIP3    H247246   5.112   2.783  13.734 -1.3263  0.2816 -2.1494
 8611TIP3   OH247247   0.541   5.514  12.876 -0.0200 -0.0617 -0.0509
 8611TIP3    H147248   0.636   5.525  12.871  0.3137 -2.5398 -0.6178
 8611TIP3    H247249   0.526   5.476  12.963 -0.4883  0.2031 -0.0129
 8612TIP3   OH247250   4.815   3.749   3.786 -0.6822 -0.0060 -0.5292
 8612TIP3    H147251   4.880   3.809   3.822 -0.8020  0.4639 -1.0746
 8612TIP3    H247252   4.735   3.769   3.834 -0.9851  1.0160 -1.4084
 8613TIP3   OH247253   5.421   2.686  14.751  0.1782 -0.8233  0.1177
 8613TIP3    H147254   5.370   2.606  14.737 -2.0992  0.9608 -3.0691
 8613TIP3    H247255   5.364   2.742  14.804 -0.0926  0.2062 -1.2227
 8614TIP3   OH247256   3.866   2.687  15.293  0.3282 -0.4433 -0.7859
 8614TIP3    H147257   3.959   2.673  15.272  0.2924 -1.5922 -0.2775
 8614TIP3    H247258   3.827   2.716  15.211  1.1436  0.1304 -0.9927
 8615TIP3   OH247259   3.250   4.334  13.551  0.0202  0.6546 -0.8869
 8615TIP3    H147260   3.273   4.244  13.575 -1.4116 -0.0094 -1.8282
 8615TIP3    H247261   3.330   4.370  13.512  0.3409 -0.5733 -1.4268
 8616TIP3   OH247262   5.882   1.410  11.520 -0.1670 -0.3775  0.0694
 8616TIP3    H147263   5.877   1.487  11.464 -1.1404 -0.7022 -0.3164
 8616TIP3    H247264   5.871   1.444  11.609  1.5523  0.1592  0.1073
 8617TIP3   OH247265   3.795   2.265   5.693 -0.1887 -0.5245  0.5904
 8617TIP3    H147266   3.864   2.200   5.708  1.3703  0.7607 -0.6045
 8617TIP3    H247267   3.811   2.333   5.759 -1.2866 -0.9158  1.2865
 8618TIP3   OH247268   4.699   0.172   3.334  0.2690  0.1168 -0.5844
 8618TIP3    H147269   4.684   0.265   3.315 -0.9477  0.0946  0.1322
 8618TIP3    H247270   4.742   0.172   3.420 -1.4120 -0.0049  0.3023
 8619TIP3   OH247271   0.162   5.611  16.271 -0.5083 -0.0192  0.1860
 8619TIP3    H147272   0.228   5.680  16.273 -0.7735  0.2344  0.2964
 8619TIP3    H247273   0.079   5.658  16.259 -0.8632 -0.1998  1.7520
 8620TIP3   OH247274   5.768   6.131   4.319 -0.3638 -0.1506  0.1794
 8620TIP3    H147275   5.705   6.095   4.256  0.8937  0.5139 -1.5250
 8620TIP3    H247276   5.731   6.108   4.404 -2.7424 -0.0502 -0.7381
 8621TIP3   OH247277   0.947   1.252  16.869  0.1386  0.7837 -0.3859
 8621TIP3    H147278   0.929   1.228  16.960  1.1929  0.4808 -0.2355
 8621TIP3    H247279   0.886   1.200  16.818  0.4208 -0.0504  0.0954
 8622TIP3   OH247280   4.408   1.393   5.630 -0.7167 -0.1214 -0.0062
 8622TIP3    H147281   4.455   1.340   5.566 -0.8326  0.8764 -0.9376
 8622TIP3    H247282   4.326   1.346   5.645 -1.0017 -0.0154 -1.1303
 8623TIP3   OH247283   5.376   4.887   2.955  0.2893  0.1502  0.2286
 8623TIP3    H147284   5.376   4.836   2.874 -0.1695  1.0147 -0.3287
 8623TIP3    H247285   5.346   4.825   3.022 -0.4224 -0.2786 -0.4642
 8624TIP3   OH247286   4.865   2.983   2.602  0.1648 -0.2794  0.1699
 8624TIP3    H147287   4.952   2.943   2.608  0.0184 -0.4810  1.1232
 8624TIP3    H247288   4.870   3.059   2.660 -0.0788  0.1143 -0.3245
 8625TIP3   OH247289   4.146   3.522  14.923 -0.5253  0.1544 -0.1231
 8625TIP3    H147290   4.153   3.613  14.892 -0.9631  0.1314 -0.2871
 8625TIP3    H247291   4.060   3.516  14.963 -0.7742 -0.3713 -0.7184
 8626TIP3   OH247292   5.526   3.117  17.326  0.2579  0.2226 -0.2875
 8626TIP3    H147293   5.601   3.175  17.312 -0.8159  1.2284 -2.3650
 8626TIP3    H247294   5.529   3.056  17.252  0.1048 -1.0134  0.6810
 8627TIP3   OH247295   3.815   5.188  11.147 -0.3209 -0.4709  0.0505
 8627TIP3    H147296   3.779   5.263  11.099  4.2567  3.3951  1.8805
 8627TIP3    H247297   3.881   5.152  11.088  1.2820  0.6169  1.0797
 8628TIP3   OH247298   4.279   2.000   6.058  0.1527 -0.9999 -0.1099
 8628TIP3    H147299   4.326   2.060   6.116 -0.9980  0.1780 -0.3483
 8628TIP3    H247300   4.320   1.915   6.074  1.1610 -0.3485  0.9823
 8629TIP3   OH247301   3.523   6.633  14.703 -0.3059  0.4454  0.0078
 8629TIP3    H147302   3.474   6.705  14.743 -0.7467  0.1417  0.0277
 8629TIP3    H247303   3.509   6.644  14.609 -1.2808 -0.2244  0.0501
 8630TIP3   OH247304   2.138   5.568  13.716  0.1129 -0.4175  0.3849
 8630TIP3    H147305   2.162   5.620  13.793 -1.6222 -0.7506  1.2077
 8630TIP3    H247306   2.049   5.596  13.695  0.8063  0.1826 -1.9876
 8631TIP3   OH247307   3.559   6.521  16.140  0.3175  0.1944 -0.1404
 8631TIP3    H147308   3.500   6.512  16.065  0.1627 -0.7428  0.0852
 8631TIP3    H247309   3.615   6.595  16.117 -1.9298  2.1242  0.3061
 8632TIP3   OH247310   2.380   0.755   3.114  0.0698  0.2070 -0.7144
 8632TIP3    H147311   2.472   0.767   3.138  0.0457  0.3975 -0.7167
 8632TIP3    H247312   2.331   0.790   3.188 -0.0039 -1.0731 -0.1217
 8633TIP3   OH247313   4.731   1.151   5.915  0.1186 -0.1233  0.0071
 8633TIP3    H147314   4.791   1.136   5.988 -0.8587  0.3528  0.9406
 8633TIP3    H247315   4.788   1.171   5.840  1.2022 -2.1673  0.2309
 8634TIP3   OH247316   6.097   1.326   1.559  0.0043  0.3587 -0.0985
 8634TIP3    H147317   6.108   1.249   1.614  2.0313  0.5706 -0.1261
 8634TIP3    H247318   6.012   1.314   1.518  0.3449 -1.9817 -0.2633
 8635TIP3   OH247319   1.687   2.829  10.763  0.0488  1.1584 -0.6851
 8635TIP3    H147320   1.645   2.830  10.677  2.5555 -1.2479 -2.1138
 8635TIP3    H247321   1.624   2.788  10.821 -1.2656  1.7966 -1.6175
 8636TIP3   OH247322   6.516   1.521  14.281 -0.2721 -0.5123 -0.6028
 8636TIP3    H147323   6.421   1.511  14.287 -0.1381 -1.3595  0.2915
 8636TIP3    H247324   6.546   1.527  14.372  0.5424 -0.4434 -0.8666
 8637TIP3   OH247325   2.387   4.823  14.059  0.3080 -0.3770  0.0327
 8637TIP3    H147326   2.413   4.851  14.147 -1.7654  3.7481 -0.4449
 8637TIP3    H247327   2.459   4.852  14.003  1.2970 -2.3796  0.1582
 8638TIP3   OH247328   6.160   3.933  13.571 -0.0193  0.5065  0.0202
 8638TIP3    H147329   6.229   3.868  13.555 -0.3670 -0.1349  1.0477
 8638TIP3    H247330   6.092   3.884  13.618  1.0548  2.2359  3.7711
 8639TIP3   OH247331   5.731   6.317   3.818  0.6849  0.0917  0.0289
 8639TIP3    H147332   5.699   6.321   3.728 -0.2893 -0.3173  0.3503
 8639TIP3    H247333   5.653   6.330   3.872  1.1065 -0.6317  0.8276
 8640TIP3   OH247334   4.061   4.604   6.477  0.1256 -0.2479 -0.0091
 8640TIP3    H147335   3.984   4.559   6.441 -1.1806  0.2359  2.0121
 8640TIP3    H247336   4.038   4.622   6.568  2.5671  0.1404  0.6068
 8641TIP3   OH247337   6.501   3.158   4.924  0.0318  0.7789 -0.0583
 8641TIP3    H147338   6.560   3.124   4.991 -2.8935  1.5533  3.2337
 8641TIP3    H247339   6.544   3.237   4.892  2.3426 -0.5722 -0.5515
 8642TIP3   OH247340   3.089   1.629   2.657 -0.2839  0.5775  0.6124
 8642TIP3    H147341   3.132   1.714   2.672  0.0450  0.5202  0.0158
 8642TIP3    H247342   3.000   1.642   2.688 -0.1722  1.0717  0.7441
 8643TIP3   OH247343   1.006   2.093   3.414 -0.1264 -0.7045 -0.3885
 8643TIP3    H147344   1.053   2.157   3.468 -1.0938 -0.6138  0.3786
 8643TIP3    H247345   0.956   2.040   3.477 -0.8788 -0.9307 -1.1499
 8644TIP3   OH247346   4.922   2.052   2.955 -0.8450 -0.0970 -0.2810
 8644TIP3    H147347   4.897   2.081   3.043 -0.4346  0.0660 -0.2144
 8644TIP3    H247348   4.844   2.007   2.921 -0.4125 -1.7649  0.8569
 8645TIP3   OH247349   0.991   5.247  15.958 -0.2631 -0.4540 -0.0115
 8645TIP3    H147350   0.908   5.286  15.931 -1.5523 -2.9697  0.1066
 8645TIP3    H247351   1.051   5.268  15.886 -1.4482 -0.0258 -0.9011
 8646TIP3   OH247352   5.077   4.722  11.462  0.0432  1.2686  0.3706
 8646TIP3    H147353   5.087   4.765  11.377 -1.8823  0.7402 -0.1829
 8646TIP3    H247354   4.999   4.762  11.500 -2.5456 -2.2816 -0.6544
 8647TIP3   OH247355   2.583   5.379  15.641 -0.3401  0.4120 -0.2368
 8647TIP3    H147356   2.497   5.390  15.602 -1.0125 -2.1832  0.2936
 8647TIP3    H247357   2.567   5.367  15.735  0.8573  2.2060  0.2619
 8648TIP3   OH247358   3.508   2.373  11.746 -0.1951 -0.3169  0.2117
 8648TIP3    H147359   3.506   2.278  11.762  1.6169 -0.2487  1.0678
 8648TIP3    H247360   3.457   2.410  11.818 -0.7813 -0.6356 -0.0373
 8649TIP3   OH247361   0.159   1.762  15.974  0.5668 -0.2599 -0.2680
 8649TIP3    H147362   0.131   1.688  15.920  1.2572 -0.4531 -0.3718
 8649TIP3    H247363   0.251   1.744  15.994  0.4612  0.0487  0.5709
 8650TIP3   OH247364   4.918   0.558  10.602 -0.4384 -0.0905  0.0776
 8650TIP3    H147365   4.879   0.645  10.611 -0.5990 -0.1271 -0.2474
 8650TIP3    H247366   4.976   0.550  10.678 -0.4718  0.2742  0.1450
 8651TIP3   OH247367   3.898   1.074   5.552  0.2778 -0.3617 -0.1766
 8651TIP3    H147368   3.959   1.144   5.574 -0.8695  0.3131  1.0551
 8651TIP3    H247369   3.939   0.994   5.585  1.3146 -0.2074 -1.0390
 8652TIP3   OH247370   3.056   5.839  15.796  0.0950 -0.3571 -0.0987
 8652TIP3    H147371   3.019   5.827  15.708  3.5632 -1.3341 -1.5868
 8652TIP3    H247372   3.026   5.763  15.845 -0.4772 -0.7184 -0.9779
 8653TIP3   OH247373   0.088   5.838   0.563  0.0436  0.4239  0.8760
 8653TIP3    H147374   0.180   5.849   0.590  0.1351 -1.8526  1.7273
 8653TIP3    H247375   0.082   5.884   0.480  3.0201 -2.3805 -1.1537
 8654TIP3   OH247376   5.162   3.090  12.446  0.0877 -0.1635  0.2122
 8654TIP3    H147377   5.210   3.014  12.414 -1.7602 -0.7737 -1.3035
 8654TIP3    H247378   5.116   3.058  12.524  0.5297 -0.1596  0.4739
 8655TIP3   OH247379   2.211   0.074   4.499  0.2159 -0.3216  0.4954
 8655TIP3    H147380   2.214  -0.019   4.521  1.4353 -0.5485 -0.5230
 8655TIP3    H247381   2.241   0.118   4.578  0.2198 -0.8314  0.7864
 8656TIP3   OH247382   6.670   2.029  10.956 -0.2010  0.2809 -0.2779
 8656TIP3    H147383   6.663   1.959  10.890  0.1943  0.2441 -0.2819
 8656TIP3    H247384   6.667   2.110  10.905 -1.2150  0.2841 -0.2269
 8657TIP3   OH247385   4.088   0.514   3.647  0.7048 -0.1700  0.2484
 8657TIP3    H147386   4.175   0.477   3.665  0.5360 -0.3532  0.7231
 8657TIP3    H247387   4.068   0.488   3.557  1.3039  0.2009  0.0063
 8658TIP3   OH247388   0.794   5.859  14.915  0.3624  0.4650 -0.5112
 8658TIP3    H147389   0.712   5.866  14.864  0.1101 -0.8568 -0.3283
 8658TIP3    H247390   0.805   5.765  14.928  0.7093  0.7505  1.4360
 8659TIP3   OH247391   1.964   2.858  13.673  0.5179 -0.1109 -0.3719
 8659TIP3    H147392   1.870   2.876  13.676  0.7877  1.3209  1.7325
 8659TIP3    H247393   1.970   2.764  13.656 -1.4054 -0.7596  1.9184
 8660TIP3   OH247394   1.528   2.713   3.792  0.2781 -0.1045 -0.1471
 8660TIP3    H147395   1.560   2.666   3.714  0.5718 -1.0598  0.5290
 8660TIP3    H247396   1.534   2.648   3.862  1.6090  1.2379  1.0295
 8661TIP3   OH247397   6.727   4.279   4.689 -0.0357 -0.5629  0.3793
 8661TIP3    H147398   6.802   4.227   4.716 -1.1927 -1.9420  1.0915
 8661TIP3    H247399   6.705   4.332   4.766  1.1663  1.1236 -0.3551
 8662TIP3   OH247400   3.645   5.934   1.621 -0.0973 -0.4735  0.0050
 8662TIP3    H147401   3.572   5.911   1.678  1.0652 -1.1161  1.2919
 8662TIP3    H247402   3.637   5.875   1.546  0.2206 -1.9284  1.0823
 8663TIP3   OH247403   1.466   1.255   2.224  0.2139 -0.0754  0.0876
 8663TIP3    H147404   1.409   1.216   2.291  1.7323 -1.0223  0.8750
 8663TIP3    H247405   1.423   1.234   2.141 -0.6793 -0.5898  0.6613
 8664TIP3   OH247406   2.683   3.908   4.116  0.6701  0.7251 -0.2019
 8664TIP3    H147407   2.606   3.873   4.073  0.3820  2.5944 -1.3291
 8664TIP3    H247408   2.652   3.935   4.203  0.5742 -0.4053  0.1324
 8665TIP3   OH247409   2.448   0.642   4.161 -0.5869  0.1420  0.1979
 8665TIP3    H147410   2.446   0.661   4.255  0.1710  0.7631  0.0978
 8665TIP3    H247411   2.373   0.689   4.125  0.0181  1.1881  0.2725
 8666TIP3   OH247412   4.251   1.042  13.313  0.5459 -0.4118 -0.4301
 8666TIP3    H147413   4.220   1.123  13.352  0.7694 -0.8712  0.7415
 8666TIP3    H247414   4.331   1.068  13.266  0.3962  0.1166 -0.4036
 8667TIP3   OH247415   0.846   3.040   5.954 -0.0324  0.8780 -0.2585
 8667TIP3    H147416   0.850   3.000   6.040 -2.2239 -1.6971 -1.2214
 8667TIP3    H247417   0.776   3.105   5.961 -0.3968  0.4783 -0.1514
 8668TIP3   OH247418   1.615   3.088  15.034 -0.0904 -0.1095 -0.2808
 8668TIP3    H147419   1.614   2.995  15.055 -4.2794 -0.2204 -0.1107
 8668TIP3    H247420   1.622   3.132  15.119 -0.8038 -0.3301 -0.1042
 8669TIP3   OH247421   0.518   4.779  12.336  0.6446 -0.0748  1.0645
 8669TIP3    H147422   0.585   4.720  12.301  0.2611  0.4332 -0.6141
 8669TIP3    H247423   0.537   4.864  12.295 -0.4993  0.2765  1.2249
 8670TIP3   OH247424   2.380   1.449   5.329  0.5678  0.4873 -0.2007
 8670TIP3    H147425   2.313   1.517   5.336  1.1802  0.9235  3.0068
 8670TIP3    H247426   2.449   1.477   5.390  1.8160 -1.9399 -0.3657
 8671TIP3   OH247427   2.652   3.173   5.442 -0.8271  0.0560  0.1837
 8671TIP3    H147428   2.617   3.107   5.383 -2.5485 -1.1076  2.3743
 8671TIP3    H247429   2.621   3.257   5.406 -1.6080 -0.5823 -0.6833
 8672TIP3   OH247430   1.160   1.627   0.811  0.0588  0.0752  0.2396
 8672TIP3    H147431   1.223   1.654   0.745 -0.2989  1.8486  0.5910
 8672TIP3    H247432   1.111   1.556   0.769  2.1124 -1.2475 -0.1000
 8673TIP3   OH247433   1.694   5.712  12.959  0.6664  0.5138 -0.2837
 8673TIP3    H147434   1.757   5.700  12.888 -0.5268  0.5300 -1.3866
 8673TIP3    H247435   1.618   5.661  12.932 -1.2385  3.4442 -0.8347
 8674TIP3   OH247436   0.913   0.012  14.151 -0.5330 -0.4071 -0.6112
 8674TIP3    H147437   0.909   0.029  14.057  0.2907 -1.6643 -0.8953
 8674TIP3    H247438   0.862  -0.069  14.163  0.1749 -0.7921 -0.1304
 8675TIP3   OH247439   5.646   3.217   2.885  0.3391  0.4913  0.4861
 8675TIP3    H147440   5.628   3.206   2.792  0.9220 -1.2742  0.5501
 8675TIP3    H247441   5.563   3.247   2.922 -0.0810  0.5827 -0.4974
 8676TIP3   OH247442   0.498   4.056  11.840 -0.8240  0.1183  0.1382
 8676TIP3    H147443   0.574   4.099  11.801  0.0768 -0.6151  1.0555
 8676TIP3    H247444   0.424   4.088  11.787  0.2790 -0.4500 -1.8719
 8677TIP3   OH247445   5.140   4.940   6.152 -0.4633  0.6291  0.1524
 8677TIP3    H147446   5.182   5.025   6.137 -0.6621  0.9399  1.2206
 8677TIP3    H247447   5.144   4.929   6.247  0.0300 -0.8124 -0.0130
 8678TIP3   OH247448   5.875   4.050  11.300  0.3633 -0.2402  0.7250
 8678TIP3    H147449   5.928   4.123  11.330 -1.4714  0.8310  1.5009
 8678TIP3    H247450   5.872   4.060  11.205 -1.9383  2.3115  0.9430
 8679TIP3   OH247451   4.214   5.384   6.188 -0.0273 -0.2919 -0.0007
 8679TIP3    H147452   4.274   5.391   6.114  0.3246 -2.0851  0.0693
 8679TIP3    H247453   4.135   5.344   6.151  0.5372 -2.1913  0.7479
 8680TIP3   OH247454   1.582   0.446  15.716 -0.2754  0.8612  0.1524
 8680TIP3    H147455   1.676   0.461  15.720 -0.1601  0.3539 -0.5694
 8680TIP3    H247456   1.544   0.529  15.744  0.3698  0.4849  2.3935
 8681TIP3   OH247457   3.244   1.184  13.337 -0.0999  0.2416  0.2659
 8681TIP3    H147458   3.260   1.276  13.315  1.4638 -0.4388 -1.8916
 8681TIP3    H247459   3.151   1.171  13.321 -0.2134  1.3164 -0.0196
 8682TIP3   OH247460   3.248   0.317  15.035 -0.0288  0.1176  0.8717
 8682TIP3    H147461   3.228   0.248  15.099 -0.3097 -0.8983 -0.2666
 8682TIP3    H247462   3.323   0.363  15.072  2.0309 -2.5768  0.4327
 8683TIP3   OH247463   0.303   4.760   2.169 -0.1785 -0.0414  0.2376
 8683TIP3    H147464   0.395   4.773   2.193  0.2633  1.6891 -2.1017
 8683TIP3    H247465   0.255   4.783   2.249  1.3512  0.0144  1.1981
 8684TIP3   OH247466   3.050   2.957   6.027 -0.5226  0.3998  0.5186
 8684TIP3    H147467   2.964   2.942   6.067 -0.3509  0.3572  0.8758
 8684TIP3    H247468   3.069   2.876   5.980 -1.2236  0.8581 -0.5884
 8685TIP3   OH247469   2.798   3.449  17.316  0.0648  0.3170 -0.1081
 8685TIP3    H147470   2.811   3.538  17.283 -0.5163 -0.2588 -1.9485
 8685TIP3    H247471   2.705   3.432  17.305  0.5818 -1.4777 -2.4167
 8686TIP3   OH247472   2.001   1.835   0.548 -0.2876  0.1061 -0.0623
 8686TIP3    H147473   2.070   1.896   0.522  0.5628 -0.2321  1.3288
 8686TIP3    H247474   1.980   1.788   0.467  1.1746  0.1552 -0.4977
 8687TIP3   OH247475   3.944   2.596  15.971 -0.0121  0.3646  0.3687
 8687TIP3    H147476   3.869   2.553  16.012  0.1795 -0.0409  0.3039
 8687TIP3    H247477   3.992   2.525  15.928 -1.3180  1.0093 -2.3770
 8688TIP3   OH247478   5.765   0.666  17.459 -0.1809  0.8021 -0.5882
 8688TIP3    H147479   5.708   0.598  17.495  1.0990  0.7946  1.5895
 8688TIP3    H247480   5.843   0.620  17.431  0.3209  1.2344  0.0579
 8689TIP3   OH247481   3.302   2.147   2.168  0.4402 -0.4526  0.6142
 8689TIP3    H147482   3.295   2.201   2.089  2.6296  1.3911  1.5574
 8689TIP3    H247483   3.382   2.097   2.155  0.2274 -0.9486  1.1956
 8690TIP3   OH247484   2.630   2.368  13.127  0.4400  0.0141  0.5394
 8690TIP3    H147485   2.701   2.304  13.126  2.6493  2.2584  1.0310
 8690TIP3    H247486   2.648   2.422  13.204 -2.1038  0.4234  0.9233
 8691TIP3   OH247487   2.218   1.132  11.841  0.0145  0.3827 -0.3341
 8691TIP3    H147488   2.208   1.224  11.864  0.5513  0.8933 -1.9533
 8691TIP3    H247489   2.201   1.129  11.747 -0.4715 -1.2599 -0.2233
 8692TIP3   OH247490   0.280   6.258  12.531  0.6136  0.2982  0.4155
 8692TIP3    H147491   0.329   6.278  12.610  1.2840  0.5007 -0.0461
 8692TIP3    H247492   0.192   6.236  12.562  1.0396 -0.2289  1.2567
 8693TIP3   OH247493   1.892   1.724  16.852  0.5822  0.6105  0.0526
 8693TIP3    H147494   1.811   1.775  16.846  0.2173 -0.0981 -1.7709
 8693TIP3    H247495   1.864   1.636  16.876  1.0891  0.9128  1.9128
 8694TIP3   OH247496   0.892   2.733  17.167  0.1302 -0.5770 -0.2448
 8694TIP3    H147497   0.872   2.819  17.130  1.0310 -0.7778 -1.2780
 8694TIP3    H247498   0.830   2.722  17.239 -1.1635  0.1900 -1.2021
 8695TIP3   OH247499   2.725   1.767   1.291 -0.0154  0.3650  0.0620
 8695TIP3    H147500   2.756   1.759   1.201  0.9361  0.6244  0.3531
 8695TIP3    H247501   2.692   1.856   1.297 -1.3521 -0.0802 -0.3993
 8696TIP3   OH247502   5.024   2.345   0.461  0.5919 -0.5162  0.4903
 8696TIP3    H147503   5.107   2.367   0.419  0.1388 -0.0921 -0.1974
 8696TIP3    H247504   5.032   2.252   0.482  1.0373 -0.5994 -0.0351
 8697TIP3   OH247505   5.094   4.346  15.691 -0.1849  0.1595  0.0162
 8697TIP3    H147506   5.134   4.314  15.610 -3.0412  0.3377 -1.6333
 8697TIP3    H247507   5.010   4.382  15.662 -1.4910 -0.0947  3.1450
 8698TIP3   OH247508   5.710   1.946  11.611  0.2216  0.0272 -0.2378
 8698TIP3    H147509   5.703   1.982  11.523 -1.8953 -0.3261 -0.2663
 8698TIP3    H247510   5.673   2.014  11.667  2.9052  0.8899  0.6242
 8699TIP3   OH247511   1.439   2.852   1.471 -0.0630  0.0649  0.6926
 8699TIP3    H147512   1.363   2.820   1.423  1.1304 -1.0547 -0.5122
 8699TIP3    H247513   1.471   2.927   1.419  0.4650 -0.3391  0.4231
 8700TIP3   OH247514   1.827   4.783  12.538 -0.1296  0.7474  0.3400
 8700TIP3    H147515   1.786   4.697  12.549  4.1338 -1.4791  0.9358
 8700TIP3    H247516   1.803   4.809  12.449 -0.0048 -2.0759 -0.6240
 8701TIP3   OH247517   4.021   4.895   2.062 -0.3124  0.0970  0.0253
 8701TIP3    H147518   3.958   4.881   2.133 -1.0776  1.7310 -0.2771
 8701TIP3    H247519   4.088   4.828   2.075 -1.8719 -1.4026  0.6325
 8702TIP3   OH247520   3.664   1.389  16.370 -0.3252 -0.1228  0.4412
 8702TIP3    H147521   3.747   1.345  16.392 -1.5276 -2.4268  0.7407
 8702TIP3    H247522   3.621   1.401  16.454 -0.7520  0.0421  0.1991
 8703TIP3   OH247523   3.738   1.010   4.550 -0.0140 -0.0425 -0.6465
 8703TIP3    H147524   3.826   1.043   4.569 -0.1625 -0.1867  0.3584
 8703TIP3    H247525   3.683   1.054   4.615 -0.4440 -1.1198 -0.2723
 8704TIP3   OH247526   5.296   0.953  16.090 -0.2155 -0.1852  0.2093
 8704TIP3    H147527   5.201   0.959  16.103 -0.4755 -0.6855 -1.2556
 8704TIP3    H247528   5.310   0.864  16.057  1.0283 -0.8274  2.2686
 8705TIP3   OH247529   4.512   4.068   3.738 -0.2946  0.2173  1.0756
 8705TIP3    H147530   4.470   3.982   3.732  1.1717 -0.4468 -0.8199
 8705TIP3    H247531   4.440   4.129   3.754 -2.1493 -0.8135 -2.4211
 8706TIP3   OH247532   3.426   5.828  14.386  0.7170 -0.6130  0.2518
 8706TIP3    H147533   3.485   5.754  14.369 -0.2543 -0.9747 -2.0074
 8706TIP3    H247534   3.398   5.856  14.298 -2.6480 -0.6253  1.1979
 8707TIP3   OH247535   5.066   2.669   0.393 -0.1890  0.2778  0.0958
 8707TIP3    H147536   5.084   2.576   0.375  0.1045  0.3051  0.2467
 8707TIP3    H247537   4.971   2.673   0.405 -0.3387  0.1808 -0.9925
 8708TIP3   OH247538   4.696   1.410  13.364 -0.5887  0.2924 -0.0592
 8708TIP3    H147539   4.781   1.445  13.337  0.0091  0.3685  1.8016
 8708TIP3    H247540   4.706   1.393  13.458 -2.4667 -0.1877  0.0818
 8709TIP3   OH247541   3.254   2.996   3.192 -0.2027  0.4877 -0.1908
 8709TIP3    H147542   3.300   3.056   3.132  3.8266 -2.3609 -0.3527
 8709TIP3    H247543   3.212   2.932   3.135  2.3170 -1.3113 -0.2022
 8710TIP3   OH247544   6.386   0.597  14.692 -0.0754 -0.2420  0.2762
 8710TIP3    H147545   6.436   0.646  14.627  1.4942 -1.1380  0.7405
 8710TIP3    H247546   6.313   0.654  14.714 -0.4178  0.2686 -1.9274
 8711TIP3   OH247547   5.269   2.718  14.465  0.1677  0.2225  0.4690
 8711TIP3    H147548   5.297   2.658  14.534  1.0723  0.0243 -0.0459
 8711TIP3    H247549   5.348   2.770  14.446 -0.5723  1.5209  0.8475
 8712TIP3   OH247550   1.972   2.256   5.069 -0.4370  0.1331  0.2665
 8712TIP3    H147551   1.957   2.334   5.017  0.4536 -0.9191 -1.6936
 8712TIP3    H247552   2.015   2.287   5.149  2.8022  1.4677 -1.7724
 8713TIP3   OH247553   2.472   6.345  11.712  0.1501 -0.2463  0.3445
 8713TIP3    H147554   2.543   6.288  11.744  1.9455  0.1122 -2.6648
 8713TIP3    H247555   2.495   6.431  11.745 -0.3684 -0.5429  1.5412
 8714TIP3   OH247556   3.650   0.641  16.309 -0.2569 -0.2162  0.6457
 8714TIP3    H147557   3.706   0.596  16.372 -0.1565 -1.5741 -0.3597
 8714TIP3    H247558   3.669   0.599  16.225 -0.0581  1.8505 -0.4012
 8715TIP3   OH247559   3.812   1.144   4.879 -0.4981 -0.3906  0.2457
 8715TIP3    H147560   3.815   1.237   4.900  1.9601 -0.7270  1.8594
 8715TIP3    H247561   3.868   1.135   4.801 -0.9348 -0.5105 -0.0603
 8716TIP3   OH247562   6.566   1.995   5.695 -0.7792 -0.2521  0.2085
 8716TIP3    H147563   6.485   2.015   5.743  0.0182  0.5520  1.2475
 8716TIP3    H247564   6.586   2.075   5.648 -0.5651 -0.4462 -0.0335
 8717TIP3   OH247565   3.931   6.143   2.710  0.3853  0.5166  0.2336
 8717TIP3    H147566   3.908   6.225   2.666  1.5998  1.5660  1.4359
 8717TIP3    H247567   3.877   6.141   2.788  0.9754  0.6265  0.6544
 8718TIP3   OH247568   0.904   0.418  13.612 -0.1222 -0.2728  0.6168
 8718TIP3    H147569   0.998   0.411  13.628 -0.1508 -0.4706  0.6992
 8718TIP3    H247570   0.898   0.450  13.522  0.0341  0.7489  0.9565
 8719TIP3   OH247571   4.477   3.898   1.448  0.2070  0.2845  0.5907
 8719TIP3    H147572   4.415   3.947   1.501  1.2199  1.2856  0.8834
 8719TIP3    H247573   4.422   3.847   1.387 -0.8877  0.9843  0.9752
 8720TIP3   OH247574   5.632   1.429   4.761  0.3267  0.1019 -0.7955
 8720TIP3    H147575   5.717   1.394   4.733  1.2830 -0.6832  2.6522
 8720TIP3    H247576   5.625   1.405   4.854 -3.7733 -0.0266 -0.9333
 8721TIP3   OH247577   1.818   3.659  16.353  0.4231 -0.4552 -0.0447
 8721TIP3    H147578   1.763   3.720  16.304  0.7272 -0.0067  0.1660
 8721TIP3    H247579   1.882   3.627  16.289 -0.0716 -0.9695 -0.2869
 8722TIP3   OH247580   0.966   5.902   3.445 -0.1279  0.0487 -0.7507
 8722TIP3    H147581   1.037   5.908   3.381  0.1850 -0.5015 -0.4631
 8722TIP3    H247582   0.984   5.821   3.492 -1.6041 -0.7337 -1.4673
 8723TIP3   OH247583   2.117   5.636   2.018  0.2859  0.3058  0.4345
 8723TIP3    H147584   2.169   5.675   2.088  0.6963  0.5066  0.0286
 8723TIP3    H247585   2.079   5.558   2.056 -0.5401  1.0894  1.2718
 8724TIP3   OH247586   5.313   1.016   0.769 -0.0963 -0.2054  0.5450
 8724TIP3    H147587   5.296   0.963   0.847 -1.9355 -1.1089 -0.3971
 8724TIP3    H247588   5.308   0.954   0.696 -1.0677  1.0366 -0.4982
 8725TIP3   OH247589   3.969   0.560   4.770  0.1926  0.4544 -0.0749
 8725TIP3    H147590   3.875   0.580   4.768 -0.1046 -0.8540 -0.4416
 8725TIP3    H247591   4.010   0.641   4.799 -0.9420  1.4512 -1.1177
 8726TIP3   OH247592   2.640   4.559  17.026  0.2315 -0.2960  0.6983
 8726TIP3    H147593   2.604   4.634  16.977 -1.4236 -1.9916 -0.8355
 8726TIP3    H247594   2.564   4.508  17.051  1.3487 -1.7644  1.2391
 8727TIP3   OH247595   4.295   3.548   1.117 -0.0406 -0.2665  0.4366
 8727TIP3    H147596   4.279   3.469   1.169 -0.0659  0.2666  1.2583
 8727TIP3    H247597   4.318   3.515   1.030 -0.0820 -1.1754  0.7570
 8728TIP3   OH247598   1.362   4.416  14.667 -0.4816  0.3820 -0.0450
 8728TIP3    H147599   1.452   4.406  14.699 -0.0591  0.4129 -1.2000
 8728TIP3    H247600   1.308   4.389  14.741  0.4733  0.3584  0.6697
 8729TIP3   OH247601   5.405   2.357  16.043  0.3672 -0.1566  0.1155
 8729TIP3    H147602   5.326   2.302  16.044  1.4493 -2.0014 -3.1169
 8729TIP3    H247603   5.478   2.296  16.050  1.5978  1.1272 -0.9150
 8730TIP3   OH247604   4.358   0.765  13.387  0.1018  0.1489 -0.5615
 8730TIP3    H147605   4.269   0.771  13.351 -1.0428 -0.5888  1.9338
 8730TIP3    H247606   4.415   0.783  13.312 -2.1271  0.7578 -2.2336
 8731TIP3   OH247607   4.819   3.062   4.770  0.3752 -0.1081 -0.3188
 8731TIP3    H147608   4.771   2.980   4.754 -0.2171  0.1940 -0.0856
 8731TIP3    H247609   4.859   3.083   4.685  0.0246 -0.3130 -0.5370
 8732TIP3   OH247610   5.262   0.850  11.892 -0.6831 -0.6036 -0.2556
 8732TIP3    H147611   5.346   0.837  11.849  0.0931  1.2577  0.5651
 8732TIP3    H247612   5.270   0.804  11.976 -0.2154  0.0705  0.0846
 8733TIP3   OH247613   2.724   6.634   4.114 -0.1171  0.6112 -0.4841
 8733TIP3    H147614   2.648   6.660   4.166 -0.2986  0.9724 -0.9269
 8733TIP3    H247615   2.799   6.665   4.164 -0.2836  0.7982 -0.3499
 8734TIP3   OH247616   0.794   0.062   4.188  0.5530 -0.1582  0.3870
 8734TIP3    H147617   0.745  -0.001   4.134 -0.9286  0.7614  0.5903
 8734TIP3    H247618   0.765   0.043   4.278  0.0109  0.8632  0.4373
 8735TIP3   OH247619   5.452   2.633   6.435 -0.2717 -0.2085 -0.0724
 8735TIP3    H147620   5.448   2.710   6.378  2.1874  0.2107  0.2044
 8735TIP3    H247621   5.361   2.606   6.446 -1.1146  2.0449 -1.0071
 8736TIP3   OH247622   4.855   4.935   3.436 -0.3730  0.5275  0.3520
 8736TIP3    H147623   4.772   4.982   3.449 -0.9808 -0.0653 -1.0806
 8736TIP3    H247624   4.881   4.906   3.523 -1.9808  0.2264  0.7579
 8737TIP3   OH247625   1.871   4.378   5.859 -0.5007 -0.4904  0.3970
 8737TIP3    H147626   1.835   4.381   5.947 -0.7587  1.2594  0.2593
 8737TIP3    H247627   1.818   4.439   5.809  1.6582  1.0601 -0.1691
 8738TIP3   OH247628   1.019   4.057  15.529 -0.2836 -0.4373  0.2568
 8738TIP3    H147629   1.115   4.055  15.519 -0.3243 -0.1796 -0.2218
 8738TIP3    H247630   0.986   4.065  15.439 -0.7707 -0.9362  0.3860
 8739TIP3   OH247631   0.428   4.659   4.544 -0.0412 -0.2496 -0.3775
 8739TIP3    H147632   0.436   4.715   4.621 -0.6040 -0.5869 -0.0640
 8739TIP3    H247633   0.475   4.580   4.566 -0.4039 -0.4422 -0.2819
 8740TIP3   OH247634   3.079   0.823   1.597 -0.0623 -0.1727 -0.0466
 8740TIP3    H147635   3.000   0.795   1.551  0.8738 -1.1568 -1.1394
 8740TIP3    H247636   3.120   0.886   1.537  0.5533 -0.5291 -0.0072
 8741TIP3   OH247637   0.789   2.829  13.903  0.7562  0.6071  0.3429
 8741TIP3    H147638   0.771   2.916  13.938  0.0641  0.1723  1.0908
 8741TIP3    H247639   0.754   2.769  13.969 -1.7159 -0.2704 -1.6098
 8742TIP3   OH247640   5.174   4.968  14.586  0.3367  0.1565 -0.1873
 8742TIP3    H147641   5.247   4.996  14.531 -0.1954  0.1862 -0.8881
 8742TIP3    H247642   5.138   5.049  14.622 -0.7961  0.3690 -1.6997
 8743TIP3   OH247643   3.593   3.283   2.254 -0.2495 -0.7794 -0.2392
 8743TIP3    H147644   3.608   3.196   2.292 -0.2101  0.9458  4.1876
 8743TIP3    H247645   3.670   3.333   2.278 -1.3834  1.1804 -0.4945
 8744TIP3   OH247646   3.265   3.328   3.398 -0.7169 -0.1257  0.4982
 8744TIP3    H147647   3.353   3.358   3.378 -0.5229 -1.3545 -0.6255
 8744TIP3    H247648   3.248   3.360   3.486  1.3786 -1.0195  1.2812
 8745TIP3   OH247649   6.481   3.211   4.448  0.0024 -0.2988 -0.5296
 8745TIP3    H147650   6.421   3.170   4.511 -0.6337 -0.9070 -1.4955
 8745TIP3    H247651   6.562   3.224   4.497 -0.7947  0.2199  0.7170
 8746TIP3   OH247652   4.156   4.223  14.319 -0.3415  0.2828  0.0897
 8746TIP3    H147653   4.112   4.308  14.319  0.1412  0.6569  3.4060
 8746TIP3    H247654   4.107   4.171  14.383  1.5271 -0.7018  0.7931
 8747TIP3   OH247655   4.490   5.703  13.690  0.2818  0.5545  0.4588
 8747TIP3    H147656   4.500   5.781  13.636  0.1865  0.7884  0.7729
 8747TIP3    H247657   4.578   5.664  13.693 -0.1678 -0.7940 -1.8244
 8748TIP3   OH247658   5.718   3.400   5.633 -0.2902  0.2275 -0.2879
 8748TIP3    H147659   5.665   3.324   5.660  0.3531 -0.9884 -2.2499
 8748TIP3    H247660   5.757   3.432   5.714  0.0383 -2.0329  0.5102
 8749TIP3   OH247661   3.845   6.626  12.266  0.4090  0.8028 -0.0114
 8749TIP3    H147662   3.858   6.552  12.325  0.2048 -0.1484 -1.1202
 8749TIP3    H247663   3.933   6.658  12.248  0.4027  3.2700  3.3504
 8750TIP3   OH247664   1.774   3.895  16.077 -0.4886  0.3035 -0.4477
 8750TIP3    H147665   1.852   3.949  16.090  0.4045 -0.9704 -0.1941
 8750TIP3    H247666   1.726   3.937  16.007  2.6391 -1.1024 -3.7585
 8751TIP3   OH247667   5.478   5.560   2.996  0.1860 -0.5055  0.3102
 8751TIP3    H147668   5.501   5.580   2.905 -1.6705 -2.9860 -0.8275
 8751TIP3    H247669   5.405   5.619   3.016 -0.8287 -1.4164 -0.6115
 8752TIP3   OH247670   5.793   2.096   4.629 -0.0958  0.1988  0.0813
 8752TIP3    H147671   5.864   2.156   4.652 -0.6015  0.1036  2.0789
 8752TIP3    H247672   5.832   2.036   4.566  1.2720  0.8057  0.3059
 8753TIP3   OH247673   1.964   1.166  13.184 -0.7409  0.0711 -0.0693
 8753TIP3    H147674   1.978   1.072  13.193  0.5646  0.3191  0.7308
 8753TIP3    H247675   2.031   1.195  13.122 -0.0970  0.7032  0.8892
 8754TIP3   OH247676   1.381   0.641  14.208  0.1179 -0.1139  0.2839
 8754TIP3    H147677   1.388   0.726  14.252  1.8810 -0.5013  0.8094
 8754TIP3    H247678   1.405   0.659  14.117 -1.7692  0.3390 -0.1829
 8755TIP3   OH247679   5.657   6.310  14.370  0.3043  0.0437  0.0310
 8755TIP3    H147680   5.702   6.225  14.375 -0.5505 -0.3897  0.5956
 8755TIP3    H247681   5.727   6.375  14.380  0.8606 -0.6046  0.4341
 8756TIP3   OH247682   0.083   0.241  15.883 -0.1462 -0.2466 -0.5682
 8756TIP3    H147683   0.027   0.315  15.858 -0.6142 -1.2466 -2.6376
 8756TIP3    H247684   0.023   0.166  15.886  0.5323 -0.7705  0.3730
 8757TIP3   OH247685   0.936   6.085   2.640 -0.3072  0.3053  0.1569
 8757TIP3    H147686   0.870   6.017   2.649 -0.0884 -0.1471 -1.3368
 8757TIP3    H247687   0.953   6.114   2.729 -1.3777 -0.6643  0.7014
 8758TIP3   OH247688   3.980   6.105  14.854 -0.4751 -0.1099 -0.1250
 8758TIP3    H147689   4.011   6.189  14.821 -0.4658 -0.2915 -0.5850
 8758TIP3    H247690   4.050   6.075  14.912 -0.1955 -0.0850 -0.4413
 8759TIP3   OH247691   3.086   1.194   3.752  1.0101  0.2682 -0.0664
 8759TIP3    H147692   3.099   1.163   3.842  0.4341  2.5962  0.8979
 8759TIP3    H247693   2.992   1.187   3.737  0.8030  1.7780  0.3252
 8760TIP3   OH247694   3.707   3.215  16.870 -0.1414 -0.1522 -0.4118
 8760TIP3    H147695   3.748   3.148  16.814 -1.5636 -0.7525 -0.8043
 8760TIP3    H247696   3.768   3.226  16.943  0.1139 -1.9592 -0.2899
 8761TIP3   OH247697   2.571   4.757  12.895  0.5640 -0.6128 -0.1355
 8761TIP3    H147698   2.562   4.723  12.806 -1.3870  0.8219 -0.5567
 8761TIP3    H247699   2.520   4.696  12.949 -2.1602  0.9434 -0.7543
 8762TIP3   OH247700   1.210   1.229   1.595 -0.2550  0.5166 -0.2697
 8762TIP3    H147701   1.154   1.292   1.551  2.0640  2.2929 -0.8891
 8762TIP3    H247702   1.273   1.282   1.643  0.0250 -1.3788  1.6042
 8763TIP3   OH247703   5.426   5.734   2.651  0.3125 -0.0022 -0.2295
 8763TIP3    H147704   5.355   5.695   2.599 -0.2061 -1.4576  1.4548
 8763TIP3    H247705   5.506   5.707   2.608 -0.1154  0.4310 -1.3317
 8764TIP3   OH247706   4.319   3.861   6.366  0.9062 -0.2930 -0.2647
 8764TIP3    H147707   4.339   3.932   6.304 -1.4084  1.3819  0.7428
 8764TIP3    H247708   4.402   3.842   6.408  1.9057  0.7276 -1.6657
 8765TIP3   OH247709   3.425   5.572   4.930  0.6137  0.0251  0.0431
 8765TIP3    H147710   3.355   5.544   4.988  1.4362 -2.1242  0.1031
 8765TIP3    H247711   3.430   5.667   4.941 -1.6662  0.1093  0.6771
 8766TIP3   OH247712   3.980   0.025   2.690 -0.6823  0.0488  0.8609
 8766TIP3    H147713   3.997   0.116   2.713 -1.5584  0.5627 -0.4075
 8766TIP3    H247714   3.892   0.025   2.653 -0.3136 -1.1182 -0.1185
 8767TIP3   OH247715   6.137   3.131  15.423 -0.1061 -0.2189 -0.4003
 8767TIP3    H147716   6.184   3.064  15.374  0.8308 -0.2884  0.5623
 8767TIP3    H247717   6.078   3.082  15.481  1.0851 -0.2776  0.8154
 8768TIP3   OH247718   2.817   1.868  13.440  0.0492  0.3443 -0.0327
 8768TIP3    H147719   2.800   1.788  13.390 -1.6722 -0.4458  1.6946
 8768TIP3    H247720   2.884   1.843  13.504  0.2480  0.5797 -0.1464
 8769TIP3   OH247721   1.265   1.322  16.171 -0.5285 -0.1617  0.2332
 8769TIP3    H147722   1.182   1.297  16.131 -0.4382  0.3812 -0.3229
 8769TIP3    H247723   1.280   1.257  16.239 -0.9295 -0.8315 -0.3043
 8770TIP3   OH247724   0.455   4.372  14.501  0.4916  0.6784 -0.5980
 8770TIP3    H147725   0.419   4.293  14.542  1.2920  0.2023 -0.8096
 8770TIP3    H247726   0.485   4.343  14.415  1.3421  1.0773 -0.4461
 8771TIP3   OH247727   3.038   2.750  16.891 -0.3069  0.2912  0.0300
 8771TIP3    H147728   2.995   2.815  16.836 -0.3947 -1.5483 -2.2615
 8771TIP3    H247729   3.116   2.725  16.842 -2.1206 -3.8930 -1.2093
 8772TIP3   OH247730   4.395   2.541   2.354 -0.0479  0.6826 -0.1652
 8772TIP3    H147731   4.304   2.510   2.353  0.8503 -2.2376 -0.3737
 8772TIP3    H247732   4.408   2.578   2.266 -0.7148  0.1007 -0.5175
 8773TIP3   OH247733   4.982   1.662   1.687 -0.1659  0.2770  0.1957
 8773TIP3    H147734   5.014   1.673   1.777 -0.2001 -0.1346  0.2606
 8773TIP3    H247735   5.028   1.584   1.656  0.0845  0.6011 -0.2519
 8774TIP3   OH247736   2.282   3.823  14.794  0.2395  0.0874 -0.0969
 8774TIP3    H147737   2.215   3.789  14.855 -0.0517  1.1435  0.1928
 8774TIP3    H247738   2.343   3.870  14.850  0.0608  0.9321 -0.5950
 8775TIP3   OH247739   0.430   4.171   4.042 -0.1522 -0.1375 -0.0060
 8775TIP3    H147740   0.454   4.155   4.134 -2.0319  0.1916  0.5771
 8775TIP3    H247741   0.336   4.187   4.044 -0.0372  1.0670 -1.8524
 8776TIP3   OH247742   3.671   2.853  14.288  0.0544 -0.1839 -0.3679
 8776TIP3    H147743   3.744   2.911  14.303  0.8076 -1.0586 -0.5403
 8776TIP3    H247744   3.709   2.776  14.244 -1.0599 -0.3705 -1.0799
 8777TIP3   OH247745   6.067   6.296  16.893 -0.4450 -0.1976  0.2665
 8777TIP3    H147746   6.148   6.247  16.881 -1.0404 -1.0275 -0.4678
 8777TIP3    H247747   6.068   6.321  16.986  0.0395 -1.3225  0.5826
 8778TIP3   OH247748   2.078   3.246  14.534 -0.5325  0.0776 -0.2090
 8778TIP3    H147749   2.035   3.252  14.619  0.5391  0.1819  0.3428
 8778TIP3    H247750   2.118   3.159  14.533  2.1896  1.2031  0.7853
 8779TIP3   OH247751   1.765   3.138   5.423  0.1915  0.8870  0.2552
 8779TIP3    H147752   1.802   3.190   5.495  0.1266 -0.8684  1.6309
 8779TIP3    H247753   1.678   3.113   5.454  1.0730 -1.9766  0.7722
 8780TIP3   OH247754   4.247   4.971  17.336  0.1331  0.8684  0.3504
 8780TIP3    H147755   4.213   4.906  17.398  2.1648 -0.1771  0.4502
 8780TIP3    H247756   4.327   5.004  17.377  1.3418  0.4229 -1.5269
 8781TIP3   OH247757   2.400   2.192  11.379  0.2870 -0.2266  0.1513
 8781TIP3    H147758   2.478   2.157  11.336 -0.3758 -1.6640  0.0630
 8781TIP3    H247759   2.331   2.187  11.312 -0.2366 -0.4496  0.6964
 8782TIP3   OH247760   3.534   5.458  17.290  0.2058  0.2408 -0.0456
 8782TIP3    H147761   3.479   5.463  17.212  0.6168  0.9786 -0.3051
 8782TIP3    H247762   3.618   5.424  17.259  0.4456  0.7557  0.0247
 8783TIP3   OH247763   5.234   0.713   4.023 -0.6160 -0.6311  0.1087
 8783TIP3    H147764   5.212   0.629   3.981  0.1307 -0.1191 -1.3864
 8783TIP3    H247765   5.157   0.768   4.008 -0.5129 -0.5799 -0.2386
 8784TIP3   OH247766   4.369   5.258   5.964 -0.3045  0.3482 -0.6082
 8784TIP3    H147767   4.373   5.185   6.027 -1.3652 -0.0553 -0.9837
 8784TIP3    H247768   4.451   5.251   5.915 -0.4758 -0.7405 -0.7784
 8785TIP3   OH247769   5.744   2.118   2.096 -0.5480  0.5001 -0.0782
 8785TIP3    H147770   5.723   2.039   2.147  0.9059 -1.4758 -2.3264
 8785TIP3    H247771   5.659   2.154   2.073 -1.3589 -1.6257 -0.7046
 8786TIP3   OH247772   5.833   4.798   2.211  0.8817  0.2329 -0.0058
 8786TIP3    H147773   5.766   4.744   2.170 -0.7256 -0.3524  3.0303
 8786TIP3    H247774   5.788   4.879   2.235  1.5807  0.3686  0.9447
 8787TIP3   OH247775   6.145   0.689  14.804  0.3220  0.3192 -0.2005
 8787TIP3    H147776   6.096   0.766  14.778  2.1173  0.8131 -2.3785
 8787TIP3    H247777   6.167   0.705  14.896 -0.2973  1.8582 -0.2878
 8788TIP3   OH247778   0.592   5.217   3.298  0.3369  0.3926 -0.3145
 8788TIP3    H147779   0.556   5.287   3.352 -0.8586 -0.1969 -0.3321
 8788TIP3    H247780   0.548   5.137   3.329  1.5677 -0.3451 -0.3870
 8789TIP3   OH247781   6.295   1.937   0.792  0.2249  0.6771  0.2544
 8789TIP3    H147782   6.324   1.879   0.721  0.0959 -0.8235  1.3857
 8789TIP3    H247783   6.271   1.878   0.863 -0.5088  2.1151  1.2458
 8790TIP3   OH247784   1.688   2.050   3.043  0.6377  0.3600  0.1909
 8790TIP3    H147785   1.733   2.134   3.047  1.5047  0.2189 -3.4714
 8790TIP3    H247786   1.596   2.071   3.029  1.2028  0.9051 -3.6120
 8791TIP3   OH247787   3.655   0.444   4.057 -0.7178  0.0130  0.6271
 8791TIP3    H147788   3.566   0.407   4.054 -0.5432 -0.4079 -1.8152
 8791TIP3    H247789   3.707   0.377   4.101 -1.1995 -0.8142 -0.0103
 8792TIP3   OH247790   3.086   6.195   3.539 -0.2848 -0.1768 -0.0718
 8792TIP3    H147791   3.080   6.234   3.626 -2.1856  1.7989 -0.9926
 8792TIP3    H247792   3.145   6.120   3.550  1.3949  1.3627  2.3886
 8793TIP3   OH247793   3.658   0.616  11.777  0.5394 -0.2203  0.1813
 8793TIP3    H147794   3.572   0.593  11.813 -0.0816  1.8174  0.1108
 8793TIP3    H247795   3.642   0.629  11.683  0.4712  1.9503  0.4435
 8794TIP3   OH247796   5.394   4.653  14.968  0.3594 -1.1172 -0.1147
 8794TIP3    H147797   5.316   4.634  14.916 -0.0883 -0.6129  0.3606
 8794TIP3    H247798   5.374   4.618  15.055  1.3442 -2.5061 -0.3986
 8795TIP3   OH247799   4.146   2.499  14.484  0.4939  0.1517  0.8160
 8795TIP3    H147800   4.179   2.586  14.507 -2.2869  1.2249  1.0318
 8795TIP3    H247801   4.093   2.472  14.558 -0.1691 -0.9340 -0.0238
 8796TIP3   OH247802   3.366   6.300   0.383  0.1191 -0.0987  0.3162
 8796TIP3    H147803   3.423   6.246   0.437  0.8029  0.6394  0.3492
 8796TIP3    H247804   3.396   6.389   0.398 -0.4891  0.2256 -0.3330
 8797TIP3   OH247805   1.642   4.223   4.833  0.0439 -0.8522  0.3325
 8797TIP3    H147806   1.726   4.178   4.823 -0.1870 -1.1385 -0.4119
 8797TIP3    H247807   1.610   4.195   4.919  1.3481  0.3639  1.2576
 8798TIP3   OH247808   2.331   4.212   2.532  0.1131 -0.2448  0.1558
 8798TIP3    H147809   2.307   4.133   2.581 -0.1354  0.9590  2.0922
 8798TIP3    H247810   2.247   4.253   2.510  0.2572  0.1494  0.3298
 8799TIP3   OH247811   1.889   2.224   0.147 -0.4591 -0.7470  0.1821
 8799TIP3    H147812   1.959   2.160   0.139 -0.0342 -0.1493 -1.1386
 8799TIP3    H247813   1.913   2.294   0.086 -1.9978 -0.3394  0.0028
 8800TIP3   OH247814   6.647   0.739  16.486 -0.6891  0.7105  0.3449
 8800TIP3    H147815   6.588   0.787  16.545  0.3252  1.6305  0.6435
 8800TIP3    H247816   6.608   0.651  16.480 -1.6647  1.0661  1.1366
 8801TIP3   OH247817   1.603   6.626  14.169 -0.2455  0.1482  0.3865
 8801TIP3    H147818   1.687   6.672  14.173 -1.2472  1.9794  2.9360
 8801TIP3    H247819   1.607   6.563  14.240 -1.1841  0.5667  0.8178
 8802TIP3   OH247820   5.357   3.632   1.881  0.0886 -0.0345  0.3256
 8802TIP3    H147821   5.277   3.644   1.932  1.7141 -1.6160  3.5872
 8802TIP3    H247822   5.420   3.692   1.920  1.3964 -1.2528  0.1701
 8803TIP3   OH247823   1.118   0.346  14.162  0.1978  0.0269  0.3450
 8803TIP3    H147824   1.078   0.263  14.134 -0.7368  0.3701  0.6444
 8803TIP3    H247825   1.070   0.413  14.114  1.4722  0.3735 -0.4999
 8804TIP3   OH247826   0.845   4.415   5.680 -0.0611  0.2763  0.3892
 8804TIP3    H147827   0.870   4.498   5.641  0.0588  0.6781  1.2889
 8804TIP3    H247828   0.840   4.434   5.774 -1.7297 -0.3002  0.4377
 8805TIP3   OH247829   2.161   3.222  12.723  0.0956 -0.4854  0.1833
 8805TIP3    H147830   2.179   3.197  12.632 -0.7106  1.2762 -0.5055
 8805TIP3    H247831   2.247   3.244  12.758  0.2075  0.7888 -0.8110
 8806TIP3   OH247832   2.480   1.685   3.456  0.0382 -0.0609  0.4071
 8806TIP3    H147833   2.441   1.751   3.398  0.2941  0.7915  1.1733
 8806TIP3    H247834   2.542   1.638   3.401 -0.2177  0.2783 -0.1813
 8807TIP3   OH247835   5.682   3.844  16.049 -0.6078 -0.0040 -0.5169
 8807TIP3    H147836   5.652   3.779  15.986  0.4233 -0.9533 -0.0744
 8807TIP3    H247837   5.606   3.901  16.064 -0.9802  0.0011 -2.2861
 8808TIP3   OH247838   3.375   6.174   3.704 -0.1298  0.0977  0.1856
 8808TIP3    H147839   3.430   6.105   3.740 -0.2694 -0.2839 -0.3165
 8808TIP3    H247840   3.295   6.129   3.676  0.0360  0.3431 -0.7366
 8809TIP3   OH247841   4.527   6.601  13.459  0.0567 -0.5584  0.2715
 8809TIP3    H147842   4.499   6.688  13.433  0.1667 -0.2350  1.1955
 8809TIP3    H247843   4.594   6.616  13.526 -0.8701 -1.3424  1.4201
 8810TIP3   OH247844   3.462   0.382  11.856 -0.2213 -0.1593  0.5642
 8810TIP3    H147845   3.500   0.347  11.937 -0.1293 -1.6462 -0.0844
 8810TIP3    H247846   3.511   0.338  11.786 -2.4579 -1.4278 -0.2988
 8811TIP3   OH247847   0.040   3.176  16.067  0.0790  0.2637  0.0722
 8811TIP3    H147848   0.055   3.098  16.120  0.5787  0.2210 -0.1215
 8811TIP3    H247849   0.121   3.226  16.074  0.2413  0.1547 -0.8114
 8812TIP3   OH247850   0.579   2.414   1.940 -0.4044  0.5779  0.5447
 8812TIP3    H147851   0.617   2.359   2.009  0.5740 -0.1990 -0.5738
 8812TIP3    H247852   0.654   2.455   1.898 -0.7027 -1.0686 -1.7890
 8813TIP3   OH247853   4.205   1.361  17.460 -0.0454 -0.1765 -0.0090
 8813TIP3    H147854   4.299   1.353  17.477  0.7464  1.3729 -2.9453
 8813TIP3    H247855   4.200   1.400  17.373 -3.4619 -2.0305 -0.7984
 8814TIP3   OH247856   5.356   4.401   0.971  0.5896  0.3327 -0.1767
 8814TIP3    H147857   5.340   4.406   0.876  0.7103  1.0969 -0.1560
 8814TIP3    H247858   5.351   4.491   1.001  2.1730  0.2767  0.2929
 8815TIP3   OH247859   2.811   5.869   5.090  0.2579 -0.2251  0.1344
 8815TIP3    H147860   2.716   5.882   5.093  0.1344 -0.6719 -1.3381
 8815TIP3    H247861   2.848   5.951   5.122 -0.6192 -0.2226  1.2053
 8816TIP3   OH247862   1.197   0.234  11.828 -0.5428  0.2328 -0.6962
 8816TIP3    H147863   1.180   0.306  11.889 -0.1080  1.0120 -1.4895
 8816TIP3    H247864   1.249   0.272  11.758 -1.2102 -0.6013 -1.6768
 8817TIP3   OH247865   0.903   4.425   1.821  0.5032 -0.0439 -0.2026
 8817TIP3    H147866   0.946   4.478   1.888  1.7387 -1.3564  0.0846
 8817TIP3    H247867   0.941   4.338   1.830 -0.8022 -0.7766 -1.2687
 8818TIP3   OH247868   3.683   2.581   5.607 -0.0076  0.3114 -0.1045
 8818TIP3    H147869   3.758   2.618   5.655  0.0131 -0.0272  0.1278
 8818TIP3    H247870   3.639   2.658   5.570 -1.0005  0.7486  1.8578
 8819TIP3   OH247871   2.863   1.437  14.212 -0.3278 -0.6162  0.2474
 8819TIP3    H147872   2.886   1.345  14.222  1.3116 -0.1687  0.9053
 8819TIP3    H247873   2.841   1.466  14.301  1.4756  0.1629  0.4945
 8820TIP3   OH247874   2.502   3.719   1.176  0.3433 -0.3677 -0.1882
 8820TIP3    H147875   2.450   3.639   1.180 -0.4899  0.1960  0.9621
 8820TIP3    H247876   2.518   3.734   1.083 -1.2311 -0.7734 -0.5432
 8821TIP3   OH247877   5.829   5.227   5.382 -0.6233 -0.1963  0.1382
 8821TIP3    H147878   5.881   5.301   5.350 -1.6318 -0.3935 -2.0935
 8821TIP3    H247879   5.784   5.261   5.459 -0.4971  1.2767 -0.4174
 8822TIP3   OH247880   2.699   4.695  11.694  0.6926 -0.0691 -0.1947
 8822TIP3    H147881   2.707   4.642  11.774  2.0762 -0.6394 -0.6707
 8822TIP3    H247882   2.678   4.631  11.626 -1.7120  0.5626 -0.1460
 8823TIP3   OH247883   5.027   0.036   2.137 -0.5215  0.1280 -0.1731
 8823TIP3    H147884   4.980   0.118   2.128 -1.3626 -0.3978 -0.6102
 8823TIP3    H247885   5.119   0.060   2.124 -0.5901  1.2265  1.0921
 8824TIP3   OH247886   3.063   4.913   2.448 -0.0527  0.4949 -0.1027
 8824TIP3    H147887   3.004   4.946   2.516  2.1877  1.6305  1.4454
 8824TIP3    H247888   3.099   4.992   2.408  0.2942 -0.1594 -1.1015
 8825TIP3   OH247889   2.376   2.862  12.072 -0.0743 -0.0007 -0.0671
 8825TIP3    H147890   2.282   2.844  12.069 -0.0586  0.0758 -1.2676
 8825TIP3    H247891   2.401   2.841  12.162 -1.4306  0.9919  0.5809
 8826TIP3   OH247892   4.058   2.674   3.068 -0.3546  0.6040 -0.2616
 8826TIP3    H147893   4.137   2.624   3.090 -0.7914  0.3056  0.6355
 8826TIP3    H247894   4.050   2.665   2.973 -0.2603 -0.7917 -0.1573
 8827TIP3   OH247895   2.407   1.981  11.658  0.7185  0.7073  0.3866
 8827TIP3    H147896   2.458   2.060  11.641 -0.1044  1.1268 -0.1995
 8827TIP3    H247897   2.409   1.932  11.575 -0.2593  0.9854  0.1895
 8828TIP3   OH247898   3.186   4.034  11.325  0.3917 -0.2126  0.5131
 8828TIP3    H147899   3.168   4.026  11.232 -0.6474  1.1904  0.5593
 8828TIP3    H247900   3.125   3.973  11.367  1.8125 -1.9003  0.2564
 8829TIP3   OH247901   3.018   4.810  11.693  0.3203 -0.2965  0.1253
 8829TIP3    H147902   3.085   4.793  11.760 -0.2605 -2.3380  0.2802
 8829TIP3    H247903   2.935   4.805  11.741 -0.0325 -0.1755 -0.4673
 8830TIP3   OH247904   1.695   3.402   0.196  0.0873 -0.0093  0.7870
 8830TIP3    H147905   1.764   3.445   0.246  0.8483  0.4647 -0.6201
 8830TIP3    H247906   1.722   3.311   0.191 -0.1143 -0.1102  1.4151
 8831TIP3   OH247907   6.297   4.862  13.136 -0.4012 -0.7356 -0.1098
 8831TIP3    H147908   6.213   4.865  13.091 -0.6285 -1.1583  0.2725
 8831TIP3    H247909   6.275   4.851  13.228  0.0651 -0.2152  0.0692
 8832TIP3   OH247910   1.138   3.192   3.041 -0.3792 -0.1790 -0.1072
 8832TIP3    H147911   1.124   3.175   3.135  0.8451 -0.3503  0.0676
 8832TIP3    H247912   1.050   3.203   3.005 -0.9241 -1.0424  0.8935
 8833TIP3   OH247913   5.962   1.868  12.100 -0.1406  0.8527 -0.4976
 8833TIP3    H147914   6.056   1.848  12.099 -0.3176 -0.1267 -2.7887
 8833TIP3    H247915   5.943   1.897  12.011 -2.0776  0.7193 -0.1598
 8834TIP3   OH247916   2.268   2.854  16.324 -0.0113 -0.4345 -0.3116
 8834TIP3    H147917   2.331   2.786  16.347 -0.0938 -0.2635  0.4253
 8834TIP3    H247918   2.246   2.895  16.407 -1.6908 -1.0001 -0.4421
 8835TIP3   OH247919   2.467   1.788   6.432  0.0549 -1.0009 -0.4554
 8835TIP3    H147920   2.446   1.695   6.421 -1.5033 -0.5903 -1.3396
 8835TIP3    H247921   2.386   1.827   6.465  0.1592  0.2836 -1.5823
 8836TIP3   OH247922   0.262   3.889  11.422 -0.2494 -0.1793 -0.3225
 8836TIP3    H147923   0.346   3.934  11.429 -0.2203  0.2743 -2.6881
 8836TIP3    H247924   0.263   3.826  11.494  0.4370  2.3651  2.0764
 8837TIP3   OH247925   4.399   0.618  12.506  0.4299  0.5459 -0.1723
 8837TIP3    H147926   4.312   0.651  12.529  1.0268  1.9586  0.1553
 8837TIP3    H247927   4.419   0.658  12.421  0.9318  0.5837 -0.0412
 8838TIP3   OH247928   5.679   0.804   2.475 -0.1474 -0.3375 -0.4442
 8838TIP3    H147929   5.616   0.824   2.545  1.4254  1.3487  0.5669
 8838TIP3    H247930   5.678   0.880   2.418  1.8689  0.3172  0.3164
 8839TIP3   OH247931   4.281   1.857  14.304  0.2561  0.1246 -0.0542
 8839TIP3    H147932   4.286   1.795  14.377  0.1471  1.7588  1.4004
 8839TIP3    H247933   4.362   1.843  14.255  0.2322 -1.1443  0.2405
 8840TIP3   OH247934   2.312   2.980   5.902 -0.2038  0.0480  0.3168
 8840TIP3    H147935   2.307   3.074   5.883 -3.1293  0.2839  1.7226
 8840TIP3    H247936   2.368   2.974   5.979 -2.4117  1.0732  2.1077
 8841TIP3   OH247937   2.963   1.850   2.978 -0.5188  0.2401 -0.0338
 8841TIP3    H147938   2.911   1.931   2.976  0.3627  0.8052 -0.6976
 8841TIP3    H247939   3.034   1.870   3.040 -1.1387 -0.5664  0.9587
 8842TIP3   OH247940   0.896   3.794   5.376  0.6354  0.2865  0.3310
 8842TIP3    H147941   0.969   3.753   5.423  0.9356  1.0070  0.4947
 8842TIP3    H247942   0.853   3.720   5.332  1.8856 -0.0673 -0.3519
 8843TIP3   OH247943   5.204   4.619   1.456 -0.0708 -0.0914  0.0121
 8843TIP3    H147944   5.241   4.696   1.499  1.2048 -1.5123  1.5770
 8843TIP3    H247945   5.189   4.647   1.366  1.2005  1.7219  0.3176
 8844TIP3   OH247946   5.817   1.104  15.773 -0.0362  0.2166  0.4104
 8844TIP3    H147947   5.899   1.069  15.809 -0.0469 -1.1969 -0.8375
 8844TIP3    H247948   5.757   1.106  15.847  0.5881 -0.4996  0.9556
 8845TIP3   OH247949   0.169   1.288   3.479  1.1386 -0.5976  0.3767
 8845TIP3    H147950   0.178   1.286   3.384  1.7032 -0.2128  0.4215
 8845TIP3    H247951   0.241   1.343   3.509 -0.5369  1.4443  0.8544
 8846TIP3   OH247952   6.514   3.093  13.604  0.0058 -0.4767  0.1734
 8846TIP3    H147953   6.554   3.032  13.666  0.0927 -0.4275  0.1662
 8846TIP3    H247954   6.421   3.091  13.625 -0.1385 -1.4081 -0.5204
 8847TIP3   OH247955   4.233   5.917  15.331  0.7178  0.4173  0.2041
 8847TIP3    H147956   4.140   5.940  15.333  0.6959  0.3922 -0.3988
 8847TIP3    H247957   4.234   5.826  15.303  0.9044  0.2610  0.7044
 8848TIP3   OH247958   5.021   4.505  16.951 -0.1976  0.8060  0.1572
 8848TIP3    H147959   5.049   4.570  16.886  2.9048 -0.8546 -0.3508
 8848TIP3    H247960   5.011   4.424  16.901 -2.0962  0.3895  1.1039
 8849TIP3   OH247961   3.617   3.786  16.515  0.1324  0.3429  0.1894
 8849TIP3    H147962   3.631   3.704  16.468 -2.2278 -0.2135  0.3291
 8849TIP3    H247963   3.613   3.853  16.447 -2.0181 -0.2802 -0.3656
 8850TIP3   OH247964   1.982   1.899   0.845  0.4427 -0.3056 -0.7312
 8850TIP3    H147965   1.968   1.906   0.750 -1.9923  1.3658 -0.3469
 8850TIP3    H247966   1.902   1.858   0.878  1.0803 -0.4914  0.6566
 8851TIP3   OH247967   6.686   4.044  11.652 -0.0500 -0.4067 -0.3366
 8851TIP3    H147968   6.739   4.006  11.581  0.8769  1.3192 -0.6276
 8851TIP3    H247969   6.663   4.132  11.621  0.1751  0.3091  1.3843
 8852TIP3   OH247970   1.021   6.311  15.070 -0.5307  0.4940 -0.3133
 8852TIP3    H147971   0.979   6.385  15.025 -3.1351 -1.2083 -0.9122
 8852TIP3    H247972   0.948   6.256  15.099  1.2065 -0.5781  2.4483
 8853TIP3   OH247973   4.724   4.141  13.470 -0.2793  0.0416  0.5418
 8853TIP3    H147974   4.790   4.209  13.482 -0.9878  0.8206  0.1747
 8853TIP3    H247975   4.763   4.062  13.507  1.4998  0.0902 -1.0647
 8854TIP3   OH247976   0.343   5.647  12.717 -0.1097 -0.8033  0.2187
 8854TIP3    H147977   0.406   5.599  12.771 -0.1605 -0.5243  0.5319
 8854TIP3    H247978   0.356   5.613  12.629  0.9056 -0.3036  0.1705
 8855TIP3   OH247979   4.425   2.553  17.304 -0.0250  0.7216  0.1640
 8855TIP3    H147980   4.368   2.516  17.371 -0.6043  0.5120 -0.4294
 8855TIP3    H247981   4.397   2.644  17.296  1.1266  1.1968  1.3355
 8856TIP3   OH247982   3.195   1.044   1.453 -0.3889 -0.7490  0.1488
 8856TIP3    H147983   3.233   1.131   1.467 -0.4564 -0.6456 -0.2820
 8856TIP3    H247984   3.197   1.032   1.358 -1.7557 -0.5893  0.0729
 8857TIP3   OH247985   3.003   4.773  11.026 -0.3332  0.0851  0.0949
 8857TIP3    H147986   3.026   4.865  11.041 -1.6384  0.3932  0.3623
 8857TIP3    H247987   3.083   4.733  10.992  0.1989  1.3661 -0.2167
 8858TIP3   OH247988   2.097   2.514   1.862 -0.0519 -0.3579 -0.1730
 8858TIP3    H147989   2.005   2.500   1.839  0.1478 -1.7222 -0.2547
 8858TIP3    H247990   2.139   2.430   1.844  1.2437  0.2836 -0.2531
 8859TIP3   OH247991   1.232   5.140  14.722  0.0212 -0.1873 -0.5785
 8859TIP3    H147992   1.244   5.101  14.809 -0.2645  1.4302  0.2175
 8859TIP3    H247993   1.141   5.121  14.700  0.0309 -0.4152 -0.4303
 8860TIP3   OH247994   6.705   4.397   1.383 -0.1719  0.0977  0.1905
 8860TIP3    H147995   6.616   4.370   1.359 -1.0212  1.2585  1.8205
 8860TIP3    H247996   6.703   4.399   1.479  2.1150 -1.3983  0.3390
 8861TIP3   OH247997   3.795   3.307   2.589 -0.9518  0.2645  0.4568
 8861TIP3    H147998   3.710   3.268   2.608 -0.8131 -1.0276 -1.3311
 8861TIP3    H247999   3.775   3.380   2.530 -0.9013  0.5303  0.7701
 8862TIP3   OH248000   3.703   1.817  10.872  0.0303 -0.3515  0.1506
 8862TIP3    H148001   3.704   1.887  10.807 -1.2517 -1.6714 -1.3681
 8862TIP3    H248002   3.785   1.769  10.857 -0.3635 -0.7822 -0.6633
 8863TIP3   OH248003   3.589   0.810   0.891  0.0928  0.1718  0.1110
 8863TIP3    H148004   3.585   0.880   0.956  2.1012  0.7289 -0.2838
 8863TIP3    H248005   3.574   0.854   0.807  2.0851  0.3252 -0.2140
 8864TIP3   OH248006   3.954   0.896  16.901 -0.3675 -0.4150  0.1003
 8864TIP3    H148007   3.966   0.807  16.867  0.1442  0.1765 -1.3212
 8864TIP3    H248008   4.030   0.911  16.956 -0.9091 -1.1678  1.0976
 8865TIP3   OH248009   6.212   2.168   0.485 -0.1363  0.4138 -0.6213
 8865TIP3    H148010   6.134   2.193   0.534  1.1298  0.2285  1.6400
 8865TIP3    H248011   6.214   2.072   0.491  1.9426  0.4969  2.3724
 8866TIP3   OH248012   4.549   0.747   2.238  0.4177 -0.0956 -0.0001
 8866TIP3    H148013   4.539   0.690   2.314  0.1209 -0.7927 -0.5512
 8866TIP3    H248014   4.479   0.720   2.178 -0.2400  1.3913  0.0515
 8867TIP3   OH248015   1.019   1.284  17.190  0.2834 -0.9037  0.5055
 8867TIP3    H148016   1.104   1.283  17.146  0.5327 -2.0164  0.9792
 8867TIP3    H248017   1.001   1.377  17.204  0.1059 -0.4748 -2.0517
 8868TIP3   OH248018   4.836   5.204   2.676  0.1472  0.1253 -0.5594
 8868TIP3    H148019   4.901   5.214   2.746 -0.8247  2.3295  0.1175
 8868TIP3    H248020   4.860   5.270   2.612 -0.3508 -0.3040 -1.1974
 8869TIP3   OH248021   4.189   3.478  14.658 -0.3871  1.2476  0.0352
 8869TIP3    H148022   4.168   3.471  14.752 -0.8688 -0.5273 -0.1652
 8869TIP3    H248023   4.129   3.545  14.625  0.5980  2.7651  1.1890
 8870TIP3   OH248024   5.115   6.171  11.539  0.3116 -0.3835 -0.2167
 8870TIP3    H148025   5.113   6.082  11.505 -1.8961 -0.2036 -0.7019
 8870TIP3    H248026   5.031   6.208  11.515  1.1049  1.7993  0.1368
 8871TIP3   OH248027   6.066   5.763  13.304  0.0011 -0.4690  0.6940
 8871TIP3    H148028   6.011   5.723  13.237 -1.4857 -1.5424  2.4579
 8871TIP3    H248029   6.085   5.851  13.272  0.8939 -1.5406 -1.9422
 8872TIP3   OH248030   6.473   3.542   6.268 -0.4706 -0.7342 -0.0353
 8872TIP3    H148031   6.512   3.599   6.203 -2.3760 -0.8809 -1.3811
 8872TIP3    H248032   6.447   3.600   6.340  1.5205 -0.5563  0.5858
 8873TIP3   OH248033   4.472   1.022   4.631  0.2627 -0.0473  0.0765
 8873TIP3    H148034   4.456   0.931   4.607 -1.7850  0.0894  0.7262
 8873TIP3    H248035   4.444   1.028   4.723  0.3192  1.2467  0.0272
 8874TIP3   OH248036   4.113   0.635  12.240  0.6425  0.4739 -0.0062
 8874TIP3    H148037   4.159   0.639  12.156 -0.4476  0.7517 -0.6066
 8874TIP3    H248038   4.021   0.624  12.217  0.4310 -0.6123  1.1721
 8875TIP3   OH248039   4.900   4.139  16.840 -0.8593 -0.5351  0.2416
 8875TIP3    H148040   4.851   4.181  16.911 -1.3096 -0.7802  0.0833
 8875TIP3    H248041   4.952   4.210  16.802 -2.1126  0.0626 -0.4502
 8876TIP3   OH248042   4.586   5.660  12.090 -0.0856 -0.2294  0.7509
 8876TIP3    H148043   4.649   5.607  12.139 -0.3816  1.0623  2.6162
 8876TIP3    H248044   4.511   5.669  12.148 -0.7308  0.8284 -0.2063
 8877TIP3   OH248045   6.080   3.959  15.551 -0.6138 -0.0077  0.4740
 8877TIP3    H148046   6.004   3.919  15.592  0.9281 -1.3198  2.2205
 8877TIP3    H248047   6.139   3.979  15.624  1.5514 -0.8596 -0.9378
 8878TIP3   OH248048   3.099   0.314  17.077 -0.1536 -0.0971  0.1575
 8878TIP3    H148049   3.082   0.225  17.046 -0.2155 -0.1148  0.2382
 8878TIP3    H248050   3.034   0.327  17.147 -2.6022  1.3031 -2.1573
 8879TIP3   OH248051   3.843   0.064   3.064 -0.2753 -0.2772  0.9368
 8879TIP3    H148052   3.782  -0.005   3.090 -0.2486 -0.7225 -0.1458
 8879TIP3    H248053   3.787   0.136   3.036 -0.3674 -1.1225 -1.2296
 8880TIP3   OH248054   0.975   1.728   2.360 -0.0875 -0.1856  0.1859
 8880TIP3    H148055   1.068   1.729   2.380 -0.0094  1.8326 -0.0813
 8880TIP3    H248056   0.970   1.757   2.268 -1.0167  1.0161  0.5867
 8881TIP3   OH248057   5.183   5.847  13.203  0.3580 -0.3035  0.1153
 8881TIP3    H148058   5.198   5.935  13.237  0.8217 -0.1563 -0.4765
 8881TIP3    H248059   5.160   5.796  13.281  1.7598 -0.0459  0.7225
 8882TIP3   OH248060   4.074   2.068  12.738 -0.3563  0.1047  0.2399
 8882TIP3    H148061   4.157   2.087  12.781  0.3113 -2.4691  0.2656
 8882TIP3    H248062   4.097   2.014  12.663 -1.9672 -0.2733 -0.0295
 8883TIP3   OH248063   3.661   4.995   0.740 -0.4799  0.2855 -0.4998
 8883TIP3    H148064   3.693   5.082   0.763  1.8465 -0.8374  0.8362
 8883TIP3    H248065   3.730   4.936   0.768 -2.3165 -2.0795 -0.6757
 8884TIP3   OH248066   2.902   4.839   3.230 -0.1514 -0.3497 -0.0885
 8884TIP3    H148067   2.886   4.798   3.315  0.8057 -0.9229 -0.1707
 8884TIP3    H248068   2.883   4.771   3.166  0.4126 -0.3427 -0.2723
 8885TIP3   OH248069   1.011   0.091  14.395 -0.2648 -0.0432 -0.4075
 8885TIP3    H148070   0.984   0.039  14.319  0.9090 -1.8165  0.3176
 8885TIP3    H248071   1.106   0.103  14.383  0.7470 -3.4798  2.4061
 8886TIP3   OH248072   2.552   5.135  12.379 -0.8502  0.3123 -0.3014
 8886TIP3    H148073   2.522   5.143  12.470  1.1393 -1.6201  0.6328
 8886TIP3    H248074   2.625   5.197  12.373 -0.7418  0.1697 -0.4656
 8887TIP3   OH248075   1.065   6.248   4.939  0.6109 -0.0085  1.0825
 8887TIP3    H148076   1.019   6.321   4.980  1.4418 -0.1275  2.2778
 8887TIP3    H248077   1.122   6.289   4.873  0.1896  0.3016  0.9087
 8888TIP3   OH248078   2.191   2.267   1.780 -0.1937 -0.0350  0.0985
 8888TIP3    H148079   2.136   2.213   1.836  0.2322 -1.1668 -0.5286
 8888TIP3    H248080   2.243   2.204   1.730  1.0745  0.9730  0.0786
 8889TIP3   OH248081   1.297   5.745   0.081 -0.0151  0.0253 -0.6879
 8889TIP3    H148082   1.223   5.694   0.114  0.7029 -1.0038 -0.6154
 8889TIP3    H248083   1.292   5.828   0.129  1.3717 -1.6406  2.6775
 8890TIP3   OH248084   0.446   0.105  15.247 -0.1938  0.1207 -0.3406
 8890TIP3    H148085   0.517   0.155  15.288 -0.9492  0.6384  0.3533
 8890TIP3    H248086   0.367   0.131  15.294 -0.5966 -1.8659  0.1733
 8891TIP3   OH248087   1.296   0.931  17.309 -0.9310  0.7245  0.1944
 8891TIP3    H148088   1.349   0.954  17.386 -0.5014  0.7484 -0.1026
 8891TIP3    H248089   1.212   0.904  17.345 -0.6388  0.4637  0.6929
 8892TIP3   OH248090   4.154   4.796   0.035  0.0137 -0.2306  0.4791
 8892TIP3    H148091   4.246   4.808   0.059  0.2030 -0.1863 -0.2589
 8892TIP3    H248092   4.145   4.702   0.021 -0.5109 -0.5041  2.3448
 8893TIP3   OH248093   2.197   0.370   5.660 -0.2805 -0.3139 -0.2951
 8893TIP3    H148094   2.170   0.293   5.710 -0.7375  2.5854  4.5658
 8893TIP3    H248095   2.118   0.396   5.613 -1.1687 -0.9205  0.8031
 8894TIP3   OH248096   3.784   1.971   2.314 -0.4509  0.1324  0.2768
 8894TIP3    H148097   3.729   2.046   2.337 -0.6181  0.8748 -2.2164
 8894TIP3    H248098   3.727   1.915   2.262 -0.0936 -1.3839  1.4533
 8895TIP3   OH248099   0.228   6.108   1.516 -0.2356  0.0977  0.2157
 8895TIP3    H148100   0.146   6.059   1.509 -0.9989  1.4183 -0.3629
 8895TIP3    H248101   0.222   6.152   1.600 -0.0921  0.1536  0.1954
 8896TIP3   OH248102   5.087   3.749   1.154 -0.3067 -0.5033 -0.1128
 8896TIP3    H148103   5.000   3.780   1.129 -0.0799  1.6461  1.4574
 8896TIP3    H248104   5.147   3.812   1.115  0.3706 -0.4815  0.9201
 8897TIP3   OH248105   4.842   4.987   5.254  0.1907 -0.0283 -0.1993
 8897TIP3    H148106   4.790   4.906   5.252 -1.0745  0.7576 -1.0812
 8897TIP3    H248107   4.792   5.048   5.199  2.6880  0.4037 -2.1583
 8898TIP3   OH248108   1.568   5.041   0.474 -0.4770 -0.3556 -0.4027
 8898TIP3    H148109   1.478   5.009   0.467 -0.6835  0.2010 -0.3778
 8898TIP3    H248110   1.622   4.964   0.460 -0.9596 -0.7059 -0.3733
 8899TIP3   OH248111   3.217   1.646  15.236 -0.4861  0.6308 -0.5361
 8899TIP3    H148112   3.292   1.706  15.241  1.0800 -1.0696 -1.8473
 8899TIP3    H248113   3.181   1.660  15.148 -1.4215  1.1060 -0.0823
 8900TIP3   OH248114   5.005   5.640  15.359  0.1358  0.6793 -0.3577
 8900TIP3    H148115   4.955   5.717  15.388  0.6987  0.8982  0.0527
 8900TIP3    H248116   5.013   5.652  15.264 -0.4084  0.7467 -0.4010
 8901TIP3   OH248117   6.020   5.959   1.344  0.8335  0.1563  0.3260
 8901TIP3    H148118   5.999   5.996   1.429 -0.9716  1.9517 -0.8173
 8901TIP3    H248119   5.943   5.907   1.321  0.5314  1.1275 -0.9419
 8902TIP3   OH248120   3.245   5.684  12.073  0.2527 -0.0589  0.1322
 8902TIP3    H148121   3.255   5.639  11.990 -2.9036 -0.1494 -0.2851
 8902TIP3    H248122   3.248   5.777  12.051  2.3841  0.0090  0.4193
 8903TIP3   OH248123   3.883   5.878  16.671  0.2003  0.1177 -0.1260
 8903TIP3    H148124   3.921   5.965  16.656  1.3200 -0.0166  1.6851
 8903TIP3    H248125   3.951   5.817  16.643  0.7240 -0.1288  1.5579
 8904TIP3   OH248126   1.215   6.708   6.572 -0.4287  0.4404 -0.9044
 8904TIP3    H148127   1.120   6.713   6.563 -0.7917 -0.6496  1.4779
 8904TIP3    H248128   1.236   6.771   6.641  0.3817 -0.2560 -0.4967
 8905TIP3   OH248129   6.474   1.324   6.419 -0.2676 -0.0351  0.5359
 8905TIP3    H148130   6.512   1.350   6.503 -1.2893 -0.0553  1.0241
 8905TIP3    H248131   6.455   1.231   6.429  1.2717 -0.4849 -0.3876
 8906TIP3   OH248132   6.191   3.448   2.466 -0.4776 -0.2323  0.1805
 8906TIP3    H148133   6.116   3.508   2.469  1.6449  2.6288  0.0403
 8906TIP3    H248134   6.224   3.456   2.376  0.2037 -1.1695  0.3362
 8907TIP3   OH248135   4.373   4.623  10.639 -0.5906  0.5000  0.0496
 8907TIP3    H148136   4.370   4.590  10.729  2.7808  0.2319  0.1977
 8907TIP3    H248137   4.326   4.557  10.588 -2.9118  0.8451  1.5772
 8908TIP3   OH248138   3.794   4.172  11.066 -0.4123  0.0346  0.1728
 8908TIP3    H148139   3.814   4.241  11.003 -2.4210 -0.0715 -0.6530
 8908TIP3    H248140   3.839   4.094  11.033 -0.6828  0.2051 -0.6029
 8909TIP3   OH248141   3.859   3.698  15.416 -0.5598  0.4411 -0.2704
 8909TIP3    H148142   3.772   3.711  15.380 -1.1702 -3.1076 -0.4804
 8909TIP3    H248143   3.905   3.647  15.349  1.9273  2.5658 -0.3593
 8910TIP3   OH248144   1.596   1.469   0.841 -0.3375  0.0266 -0.0043
 8910TIP3    H148145   1.691   1.478   0.847 -0.3415  0.3502 -0.4085
 8910TIP3    H248146   1.565   1.495   0.928 -0.0019 -0.9329  0.4111
 8911TIP3   OH248147   1.821   0.512  16.745  0.0604  0.3283  0.0554
 8911TIP3    H148148   1.893   0.461  16.783  0.4552  0.1390 -0.9088
 8911TIP3    H248149   1.861   0.596  16.724 -0.2574  0.5748  0.4276
 8912TIP3   OH248150   3.699   6.662  11.503  0.4516  0.0306 -0.0887
 8912TIP3    H148151   3.749   6.582  11.521  0.8054 -0.2525 -2.0398
 8912TIP3    H248152   3.759   6.733  11.524  0.2494 -0.2015  1.3551
 8913TIP3   OH248153   2.813   1.988  11.822  0.4470  0.5815 -0.1570
 8913TIP3    H148154   2.796   1.907  11.773 -1.6097  1.0688 -0.3128
 8913TIP3    H248155   2.740   1.996  11.883  0.7668  2.1846  0.0678
 8914TIP3   OH248156   2.159   3.685  16.543  0.0315  0.2848 -0.0822
 8914TIP3    H148157   2.126   3.772  16.521  0.6025  1.1118  2.1167
 8914TIP3    H248158   2.084   3.641  16.583  0.0842  0.2230 -0.0523
 8915TIP3   OH248159   4.391   2.137   3.966 -0.3700 -0.7310 -0.1328
 8915TIP3    H148160   4.431   2.123   3.880 -1.5560 -1.9290 -0.5335
 8915TIP3    H248161   4.330   2.209   3.954  0.0053 -0.4008 -0.0896
 8916TIP3   OH248162   3.435   2.509   5.452  0.4622 -0.3746 -0.2799
 8916TIP3    H148163   3.472   2.548   5.374  0.8990  0.9973  0.5798
 8916TIP3    H248164   3.343   2.492   5.429 -0.2239  2.6867 -0.2295
 8917TIP3   OH248165   6.265   0.676   4.998  0.0708 -0.5641  0.5982
 8917TIP3    H148166   6.196   0.711   5.053  0.0170 -0.8102  0.6888
 8917TIP3    H248167   6.227   0.598   4.958  0.1853 -0.5152  0.3912
 8918TIP3   OH248168   5.808   0.769  15.576  0.2024 -0.2624 -0.2985
 8918TIP3    H148169   5.899   0.744  15.591  0.0591  0.5313  2.4720
 8918TIP3    H248170   5.811   0.862  15.557  0.0312 -0.4125 -1.0743
 8919TIP3   OH248171   1.738   6.355   2.520  0.7403 -0.8567 -0.1471
 8919TIP3    H148172   1.730   6.431   2.462  0.4018 -0.5449  0.2958
 8919TIP3    H248173   1.742   6.393   2.608 -0.2349 -1.3767  0.1331
 8920TIP3   OH248174   3.923   3.622  11.442 -0.3284  0.0536  0.0025
 8920TIP3    H148175   4.017   3.632  11.429 -0.2755  0.0171  0.3499
 8920TIP3    H248176   3.886   3.708  11.422 -0.4979 -0.5014 -2.4555
 8921TIP3   OH248177   0.886   4.319   6.411 -0.2193  0.5844  0.5622
 8921TIP3    H148178   0.957   4.307   6.473  1.0069 -1.2266 -1.0848
 8921TIP3    H248179   0.922   4.374   6.341 -0.8841  0.8232  0.3899
 8922TIP3   OH248180   6.657   4.923  15.759 -0.3759  0.5481  0.5896
 8922TIP3    H148181   6.688   5.011  15.780 -0.1314  0.3261  1.1858
 8922TIP3    H248182   6.694   4.904  15.673 -0.9302  1.2580  0.1791
 8923TIP3   OH248183   5.367   3.929   0.194 -0.0196  0.2784 -0.4959
 8923TIP3    H148184   5.375   3.871   0.118 -0.2282 -0.8962  0.3483
 8923TIP3    H248185   5.292   3.984   0.174 -0.1625 -0.1165 -1.0800
 8924TIP3   OH248186   6.532   4.330   0.084 -0.0830 -0.0050 -0.2673
 8924TIP3    H148187   6.605   4.289   0.130 -0.0982 -1.8565 -1.7361
 8924TIP3    H248188   6.459   4.270   0.097 -0.6629  0.5640 -0.8309
 8925TIP3   OH248189   0.608   4.379  16.337  0.3545 -0.0358 -0.0147
 8925TIP3    H148190   0.692   4.367  16.381 -0.0476 -1.0987  0.4926
 8925TIP3    H248191   0.576   4.463  16.370  0.3240 -0.5472  1.3123
 8926TIP3   OH248192   5.878   6.592  11.863  0.5035 -0.4979  0.3333
 8926TIP3    H148193   5.857   6.647  11.788  2.1775 -0.4757 -0.1490
 8926TIP3    H248194   5.796   6.547  11.883 -0.7947  1.7605  0.4457
 8927TIP3   OH248195   6.684   4.441   0.888  0.6999  0.1799  0.5814
 8927TIP3    H148196   6.774   4.409   0.897  1.2738  0.2274 -3.2136
 8927TIP3    H248197   6.690   4.508   0.820 -2.4150 -0.8975 -0.9138
 8928TIP3   OH248198   5.754   0.450  12.994 -0.0865  0.2082 -0.2060
 8928TIP3    H148199   5.800   0.492  12.921 -1.7451  1.6150 -0.4902
 8928TIP3    H248200   5.823   0.434  13.059  0.9981  1.2333 -1.0564
 8929TIP3   OH248201   3.046   6.561  14.168 -0.1527 -0.1979 -0.4701
 8929TIP3    H148202   3.075   6.553  14.077  0.8215 -0.0549 -0.1761
 8929TIP3    H248203   2.959   6.521  14.168 -0.1896 -0.1495 -1.4737
 8930TIP3   OH248204   2.534   0.846  13.153  0.4650  1.4552  0.2405
 8930TIP3    H148205   2.460   0.785  13.160  1.1015  0.6846  0.3392
 8930TIP3    H248206   2.567   0.834  13.064  1.1286  1.0196  0.5382
 8931TIP3   OH248207   1.339   1.873  16.601 -0.1612  0.2613  0.3848
 8931TIP3    H148208   1.349   1.831  16.686 -1.5502 -1.6226 -0.2974
 8931TIP3    H248209   1.332   1.800  16.539 -1.2053  1.5207 -1.0729
 8932TIP3   OH248210   0.101   4.932   4.416  0.1099 -0.7136  0.0772
 8932TIP3    H148211   0.010   4.960   4.423  0.1793 -0.7322  1.3511
 8932TIP3    H248212   0.144   4.970   4.493  0.8690 -1.8286  0.2287
 8933TIP3   OH248213   2.404   4.852  14.681  0.3486  0.2564 -0.3541
 8933TIP3    H148214   2.402   4.766  14.723  3.7764  0.7306  1.1719
 8933TIP3    H248215   2.378   4.836  14.591 -3.2512 -1.5591  0.8294
 8934TIP3   OH248216   3.228   5.973   3.592  0.1311 -0.1524  0.5657
 8934TIP3    H148217   3.237   5.916   3.515 -1.0448 -0.8236  0.9039
 8934TIP3    H248218   3.205   5.914   3.663  0.5571  0.5497  1.3035
 8935TIP3   OH248219   2.789   1.493   0.172  0.3826 -0.1816  0.6428
 8935TIP3    H148220   2.846   1.567   0.153 -0.2820 -0.2885 -2.2036
 8935TIP3    H248221   2.845   1.416   0.165  0.4383 -0.1287  0.5120
 8936TIP3   OH248222   4.869   2.911   0.499 -0.5035 -0.1448 -0.2091
 8936TIP3    H148223   4.841   2.825   0.530 -2.1793  0.0798 -0.9855
 8936TIP3    H248224   4.939   2.937   0.559 -1.6974 -0.9401  1.6003
 8937TIP3   OH248225   5.890   2.892   1.666 -0.6004 -0.2687  0.6552
 8937TIP3    H148226   5.884   2.797   1.653  0.7219 -0.4643  1.3076
 8937TIP3    H248227   5.813   2.927   1.622  1.0219 -1.2444 -3.4422
 8938TIP3   OH248228   5.257   1.882  14.816  0.4689 -0.1520 -0.1087
 8938TIP3    H148229   5.256   1.874  14.721 -0.0733 -0.6628 -0.0588
 8938TIP3    H248230   5.260   1.792  14.849 -1.0224 -0.0421  0.3786
 8939TIP3   OH248231   2.674   2.635  15.805 -0.0973  0.0712  0.0443
 8939TIP3    H148232   2.641   2.546  15.820 -1.9438  0.9048  1.4366
 8939TIP3    H248233   2.603   2.679  15.758  0.9174  0.7687 -0.8966
 8940TIP3   OH248234   4.613   0.805  15.247 -0.0788  0.1461  0.0497
 8940TIP3    H148235   4.551   0.783  15.316  0.3047  1.1752  0.7274
 8940TIP3    H248236   4.581   0.757  15.170 -2.1535  1.2364  0.1717
 8941TIP3   OH248237   5.921   6.609   0.640 -0.1619  0.0120 -0.0242
 8941TIP3    H148238   5.857   6.611   0.569 -0.4983  0.7136  0.2942
 8941TIP3    H248239   5.972   6.689   0.629  0.6296 -0.5107 -0.2377
 8942TIP3   OH248240   3.019   1.840  17.072  0.0082  0.2457 -0.4419
 8942TIP3    H148241   3.059   1.926  17.057  1.1492 -0.5480 -2.4714
 8942TIP3    H248242   2.947   1.836  17.009  0.3772 -0.5193 -0.8267
 8943TIP3   OH248243   4.906   5.915  16.493  0.6904 -0.5925  0.0653
 8943TIP3    H148244   4.838   5.931  16.558 -0.3468 -2.7679 -0.4119
 8943TIP3    H248245   4.883   5.972  16.420  2.0222  2.0909  1.5525
 8944TIP3   OH248246   0.540   3.686  15.351  0.5655  0.2507 -0.3690
 8944TIP3    H148247   0.515   3.595  15.336 -0.3598  0.3325  0.5913
 8944TIP3    H248248   0.608   3.703  15.285  0.1407 -0.8599 -1.1309
 8945TIP3   OH248249   1.686   0.493   1.118 -0.0517  0.2940  0.5142
 8945TIP3    H148250   1.605   0.471   1.073 -0.3461  0.4439  0.9683
 8945TIP3    H248251   1.754   0.486   1.050 -0.6760  1.9321 -0.3403
 8946TIP3   OH248252   0.735   3.746  16.710 -0.1739 -0.3129  0.1813
 8946TIP3    H148253   0.665   3.797  16.671 -0.2091 -0.0167  0.6153
 8946TIP3    H248254   0.690   3.684  16.768 -0.0990 -0.3654  0.1821
 8947TIP3   OH248255   2.575   4.905  12.611  0.1740 -0.9506 -0.2564
 8947TIP3    H148256   2.500   4.887  12.668 -0.4115  4.8987  1.4962
 8947TIP3    H248257   2.536   4.943  12.532  1.1787 -0.5902 -0.5939
 8948TIP3   OH248258   2.907   4.228   2.100  0.0921  0.8562 -0.0987
 8948TIP3    H148259   2.999   4.254   2.092  0.4353 -0.2927 -0.0284
 8948TIP3    H248260   2.899   4.199   2.191  0.2173 -1.0823 -0.6744
 8949TIP3   OH248261   4.640   4.420  16.434 -0.1361  0.1237  0.5896
 8949TIP3    H148262   4.630   4.478  16.510  2.4469  0.9118  0.4342
 8949TIP3    H248263   4.735   4.406  16.426 -0.5234 -2.4203 -0.6986
 8950TIP3   OH248264   2.161   4.161  14.334 -0.8591 -0.1990  0.6152
 8950TIP3    H148265   2.234   4.136  14.277 -2.2547 -1.2803 -0.7954
 8950TIP3    H248266   2.170   4.105  14.411  0.1579  0.1627  0.7716
 8951TIP3   OH248267   0.566   2.016   0.920  0.6856  0.1503 -0.0494
 8951TIP3    H148268   0.591   2.064   1.000  1.7560  0.8529 -0.7792
 8951TIP3    H248269   0.511   2.078   0.872 -1.6793 -1.0045  1.0488
 8952TIP3   OH248270   1.127   5.835  14.388  0.6194 -0.1787  0.9564
 8952TIP3    H148271   1.122   5.847  14.293  1.4487  1.1576  1.0533
 8952TIP3    H248272   1.053   5.779  14.409 -0.0815  0.2048 -0.3785
 8953TIP3   OH248273   0.218   0.435  12.144 -0.0238  0.0458 -0.2136
 8953TIP3    H148274   0.212   0.517  12.096 -2.2256  0.8449  1.2799
 8953TIP3    H248275   0.307   0.436  12.181  0.1235  1.5679 -0.5483
 8954TIP3   OH248276   3.344   2.297  15.399 -0.0792 -0.1798  0.3908
 8954TIP3    H148277   3.260   2.289  15.444  0.1309  0.1299  0.8422
 8954TIP3    H248278   3.338   2.236  15.325 -0.3538 -0.8399  0.9549
 8955TIP3   OH248279   2.551   3.255  14.768 -0.3574 -0.2220 -0.1640
 8955TIP3    H148280   2.592   3.170  14.752  1.1710  0.5501 -0.5494
 8955TIP3    H248281   2.595   3.289  14.846  0.0874  0.8356 -0.8585
 8956TIP3   OH248282   5.341   2.170  14.602  0.3361  0.1991  0.0109
 8956TIP3    H148283   5.331   2.246  14.659  0.5373 -0.5462  1.0789
 8956TIP3    H248284   5.387   2.203  14.526  0.2689  1.1814  0.3798
 8957TIP3   OH248285   4.532   2.169   3.470  0.6079  0.1401  0.6497
 8957TIP3    H148286   4.490   2.099   3.520  0.5071  0.1964  0.6423
 8957TIP3    H248287   4.620   2.176   3.509  0.9103 -0.5565  0.1158
 8958TIP3   OH248288   1.291   2.895   3.038  0.3243 -0.4041  0.2859
 8958TIP3    H148289   1.362   2.849   3.083  0.2752 -1.3401 -0.5617
 8958TIP3    H248290   1.297   2.985   3.071  0.4294 -0.9862  1.9599
 8959TIP3   OH248291   1.514   0.240  14.901  0.6996 -0.6106 -0.5428
 8959TIP3    H148292   1.569   0.316  14.887  0.9703 -0.6735  0.1520
 8959TIP3    H248293   1.535   0.210  14.990 -2.9401  1.4787  1.2761
 8960TIP3   OH248294   3.394   2.615  12.592 -0.7490 -0.1973 -0.0769
 8960TIP3    H148295   3.432   2.556  12.527 -0.1518 -0.0958  0.1801
 8960TIP3    H248296   3.330   2.561  12.638 -0.7732 -0.4233 -0.3730
 8961TIP3   OH248297   0.786   1.861   1.866  0.8709  0.7200 -0.2228
 8961TIP3    H148298   0.693   1.845   1.850  0.9715 -1.3136  0.8598
 8961TIP3    H248299   0.823   1.875   1.779 -0.4204  1.4872 -0.6796
 8962TIP3   OH248300   4.055   4.662  14.512 -0.1984  0.1389 -0.3165
 8962TIP3    H148301   4.090   4.723  14.447 -0.6763 -0.0456 -0.7557
 8962TIP3    H248302   3.978   4.706  14.548  0.8142  0.8252  1.1130
 8963TIP3   OH248303   3.883   3.535   2.114 -0.0247  0.2963  0.3828
 8963TIP3    H148304   3.924   3.475   2.176 -0.7821 -0.9073 -0.2602
 8963TIP3    H248305   3.794   3.546   2.147  0.3832  1.9299  1.0801
 8964TIP3   OH248306   2.553   0.176   2.164  0.4986 -0.5846 -0.6022
 8964TIP3    H148307   2.537   0.083   2.179 -1.0296 -0.0753  1.3449
 8964TIP3    H248308   2.644   0.181   2.135  1.9196 -2.3945  3.0106
 8965TIP3   OH248309   2.241   0.703  15.136 -0.1982 -0.3433  0.1076
 8965TIP3    H148310   2.307   0.634  15.134 -0.4859 -0.6212 -1.3820
 8965TIP3    H248311   2.208   0.703  15.226  0.3108 -1.6681  0.3161
 8966TIP3   OH248312   2.551   2.098  13.310  0.2627 -0.0655  0.2499
 8966TIP3    H148313   2.490   2.046  13.258 -0.4698  1.8921 -0.9737
 8966TIP3    H248314   2.633   2.096  13.262  0.9215 -1.8501  1.3623
 8967TIP3   OH248315   4.561   3.650   6.019 -0.1733 -0.2568 -0.3093
 8967TIP3    H148316   4.501   3.723   6.033  0.4445 -0.0070  1.1746
 8967TIP3    H248317   4.627   3.684   5.960 -1.4420 -0.5370 -1.9733
 8968TIP3   OH248318   1.387   1.340   3.388 -0.3165 -0.0750  0.4688
 8968TIP3    H148319   1.368   1.379   3.303 -2.3683 -2.2317 -0.1572
 8968TIP3    H248320   1.390   1.414   3.449 -1.0483  1.2980 -1.1058
 8969TIP3   OH248321   5.365   6.515  15.598  0.2966  0.2442  0.1411
 8969TIP3    H148322   5.322   6.547  15.519  0.1389  0.5512  0.3489
 8969TIP3    H248323   5.300   6.459  15.640 -1.0677  2.9503  1.9627
 8970TIP3   OH248324   2.029   0.314  15.834  0.6663 -0.3142 -0.5197
 8970TIP3    H148325   1.976   0.266  15.898 -1.5138  2.2374 -0.2643
 8970TIP3    H248326   2.095   0.359  15.886 -0.7433  1.2945 -0.0551
 8971TIP3   OH248327   4.526   6.082  17.043  0.0070  0.4753  0.1265
 8971TIP3    H148328   4.572   6.000  17.061  0.7121  0.1270 -2.7191
 8971TIP3    H248329   4.433   6.060  17.056  0.3130 -0.1455  1.4246
 8972TIP3   OH248330   3.840   5.567   3.097 -0.2004  0.4086  0.8357
 8972TIP3    H148331   3.916   5.538   3.148 -0.4732  0.2809  1.1728
 8972TIP3    H248332   3.765   5.554   3.155 -0.7140 -1.1779 -0.1172
 8973TIP3   OH248333   4.835   2.987   1.302  0.1673  0.1019 -0.2409
 8973TIP3    H148334   4.801   3.004   1.390 -1.2010 -1.9292 -0.3043
 8973TIP3    H248335   4.922   2.951   1.316 -0.4780 -1.2765  0.3956
 8974TIP3   OH248336   0.371   5.260  17.144  0.3672 -0.3112  0.4580
 8974TIP3    H148337   0.296   5.207  17.173 -0.0693  0.9268  1.6920
 8974TIP3    H248338   0.442   5.235  17.203 -0.2384  1.4589  2.0416
 8975TIP3   OH248339   4.877   4.436  13.932 -0.2932 -0.2065 -0.9361
 8975TIP3    H148340   4.807   4.373  13.916 -1.8317  0.9196  0.8670
 8975TIP3    H248341   4.831   4.517  13.955  1.6099  1.4850 -2.7255
 8976TIP3   OH248342   4.573   5.607   2.904 -0.1475  0.2165  0.0902
 8976TIP3    H148343   4.574   5.517   2.873 -0.2854 -0.5183  2.0978
 8976TIP3    H248344   4.481   5.626   2.920 -0.0668  0.5451  0.1667
 8977TIP3   OH248345   0.317   2.086  14.052  0.3621 -0.3600 -0.4166
 8977TIP3    H148346   0.401   2.040  14.048  0.5027 -0.0294 -1.4305
 8977TIP3    H248347   0.298   2.111  13.962 -0.2775  0.5703 -0.0482
 8978TIP3   OH248348   6.233   0.537  11.719  0.0887  0.3792 -0.4012
 8978TIP3    H148349   6.327   0.553  11.732  0.0940  0.5389 -0.6226
 8978TIP3    H248350   6.217   0.565  11.629  0.1686 -1.2073 -0.9352
 8979TIP3   OH248351   0.490   1.150  12.142 -0.0536  0.0811 -0.7826
 8979TIP3    H148352   0.406   1.197  12.144  0.0103  0.2556  1.5376
 8979TIP3    H248353   0.556   1.218  12.133 -0.0873  0.1833 -0.3068
 8980TIP3   OH248354   4.959   0.376   0.889  0.0443  0.9635  0.2341
 8980TIP3    H148355   5.031   0.380   0.827 -0.9932  0.8555 -1.0300
 8980TIP3    H248356   4.910   0.298   0.864 -0.5345  1.0611  1.0219
 8981TIP3   OH248357   1.336   1.254  13.363 -0.2676 -0.1224  0.4032
 8981TIP3    H148358   1.322   1.178  13.307 -1.2681  0.5527 -0.3019
 8981TIP3    H248359   1.428   1.248  13.389  0.8468  0.4587 -2.8352
 8982TIP3   OH248360   5.783   1.659   4.928  0.4800 -0.3933 -0.0818
 8982TIP3    H148361   5.866   1.704   4.915  0.0127  0.2190 -1.0920
 8982TIP3    H248362   5.754   1.636   4.840 -0.6236 -0.2253  0.2225
 8983TIP3   OH248363   6.683   5.591  16.678 -0.1770  0.2633  0.2669
 8983TIP3    H148364   6.642   5.544  16.750  0.2472  1.6193  1.4493
 8983TIP3    H248365   6.699   5.679  16.713 -0.2809  1.0786 -1.5951
 8984TIP3   OH248366   3.805   3.383   3.562 -0.3075  0.0395  0.1107
 8984TIP3    H148367   3.827   3.334   3.642  0.5694  0.9245  0.4362
 8984TIP3    H248368   3.889   3.395   3.518 -0.7243 -0.0330 -0.7169
 8985TIP3   OH248369   1.017   1.487   5.211  0.0788 -0.0696  0.2090
 8985TIP3    H148370   1.006   1.500   5.305  2.0423  0.2692  0.4336
 8985TIP3    H248371   0.929   1.471   5.179 -0.7623  0.7624  1.9566
 8986TIP3   OH248372   4.954   5.891  12.705 -0.5672 -0.2098  0.2028
 8986TIP3    H148373   5.027   5.901  12.644 -0.7317 -0.7135 -0.0811
 8986TIP3    H248374   4.918   5.804  12.686 -1.5723  0.2364 -0.0281
 8987TIP3   OH248375   1.633   0.285   4.343  0.4134 -0.2996  0.1313
 8987TIP3    H148376   1.689   0.295   4.265  0.4322 -1.0993  0.0407
 8987TIP3    H248377   1.593   0.371   4.354 -0.8910 -0.6043 -1.7544
 8988TIP3   OH248378   3.497   1.042   5.550 -0.0123 -0.6554  0.2019
 8988TIP3    H148379   3.548   1.067   5.627 -0.0738 -1.0326  0.3685
 8988TIP3    H248380   3.513   0.947   5.541  0.4638 -0.5151 -0.5911
 8989TIP3   OH248381   0.035   4.466   4.197 -0.0338  0.1228  0.6079
 8989TIP3    H148382   0.055   4.559   4.185  0.0185  0.0979  0.4924
 8989TIP3    H248383   0.030   4.454   4.291 -0.6355  0.3669  0.6135
 8990TIP3   OH248384   1.853   1.639  15.258 -0.2542  0.1747 -0.2227
 8990TIP3    H148385   1.940   1.640  15.299  0.8289  0.4708 -2.3829
 8990TIP3    H248386   1.866   1.594  15.174 -2.3572 -0.4043 -0.3041
 8991TIP3   OH248387   0.385   2.800   3.737  0.8983 -0.0797 -0.5081
 8991TIP3    H148388   0.408   2.759   3.653  0.6762 -0.7769 -0.2374
 8991TIP3    H248389   0.392   2.729   3.801  1.8160  0.6144  0.1988
 8992TIP3   OH248390   1.386   3.029   3.271  0.0646 -1.1971 -0.2613
 8992TIP3    H148391   1.362   2.952   3.322 -1.9993 -0.8760 -0.6734
 8992TIP3    H248392   1.445   2.995   3.203  0.0852 -2.2038  0.2403
 8993TIP3   OH248393   3.527   6.732  13.635  0.0934 -0.1574  0.3127
 8993TIP3    H148394   3.452   6.784  13.666 -0.4224  0.1366 -1.3467
 8993TIP3    H248395   3.496   6.642  13.636  0.0283 -0.1336  0.4880
 8994TIP3   OH248396   0.875   2.016   1.640  0.1941 -0.5640  0.1956
 8994TIP3    H148397   0.873   2.111   1.656  0.5248 -0.6483  0.7705
 8994TIP3    H248398   0.799   2.000   1.584  1.5676  0.3994 -2.0465
 8995TIP3   OH248399   0.140   0.985  11.241  0.7456  0.2674  1.0294
 8995TIP3    H148400   0.226   0.969  11.280  1.0142  1.2825  0.8987
 8995TIP3    H248401   0.152   1.065  11.189  0.5956 -1.3929 -1.7552
 8996TIP3   OH248402   3.895   3.499  10.832 -0.6753  0.1004  0.6962
 8996TIP3    H148403   3.839   3.495  10.909  0.1753  1.4777  1.4423
 8996TIP3    H248404   3.906   3.593  10.816  0.7492 -0.1444  0.1091
 8997TIP3   OH248405   5.321   1.056  10.964  0.0676 -0.0058 -0.0199
 8997TIP3    H148406   5.290   0.972  10.930 -1.1489  0.5523 -0.3567
 8997TIP3    H248407   5.257   1.119  10.932  0.7554  1.0017  0.5478
 8998TIP3   OH248408   4.916   4.876   1.812  0.1567  0.1834 -0.5039
 8998TIP3    H148409   4.831   4.910   1.838  0.7846 -0.2010  2.3950
 8998TIP3    H248410   4.909   4.781   1.823  1.2310  0.2270  0.9007
 8999TIP3   OH248411   4.992   0.033   6.050  0.4710 -0.2013  0.5525
 8999TIP3    H148412   4.910   0.075   6.025  0.7545  0.2167  0.3241
 8999TIP3    H248413   5.048   0.104   6.080  0.3844 -0.6029  1.7434
 9000TIP3   OH248414   2.208   0.119   3.822  0.3292  0.0157  0.5457
 9000TIP3    H148415   2.179   0.038   3.864  0.4642 -1.0598 -1.3232
 9000TIP3    H248416   2.294   0.098   3.786  0.3887  1.0160  0.0658
 9001TIP3   OH248417   3.773   0.718   4.618  0.0011 -0.2629 -0.2198
 9001TIP3    H148418   3.758   0.809   4.591  1.0569 -0.0912 -0.2645
 9001TIP3    H248419   3.697   0.670   4.584 -0.4994  0.5710 -0.3215
 9002TIP3   OH248420   2.003   0.977  15.257 -0.3671 -0.1104  0.2006
 9002TIP3    H148421   1.943   0.998  15.328  1.2002  0.7239  1.3514
 9002TIP3    H248422   2.025   0.884  15.272 -2.6297 -0.9599 -1.2726
 9003TIP3   OH248423   2.756   0.308  13.345 -0.0258 -0.3457 -0.2709
 9003TIP3    H148424   2.751   0.364  13.422 -1.4961 -0.5307 -0.2064
 9003TIP3    H248425   2.701   0.232  13.367  1.1574 -1.3736 -0.7250
 9004TIP3   OH248426   1.498   5.704  12.505 -0.1367  0.1092  0.6089
 9004TIP3    H148427   1.425   5.700  12.443  1.6296  1.1017 -1.6788
 9004TIP3    H248428   1.500   5.617  12.545 -3.7208  0.6104  2.2828
 9005TIP3   OH248429   0.665   2.017   2.113  0.0275  0.2196  0.0923
 9005TIP3    H148430   0.706   2.101   2.133  0.0575 -0.1443  1.7489
 9005TIP3    H248431   0.704   1.991   2.029  1.0170  1.2307  0.2038
 9006TIP3   OH248432   0.570   3.221   3.991 -0.8922  0.4333 -0.8626
 9006TIP3    H148433   0.556   3.223   4.086  0.1359  0.3303 -0.6986
 9006TIP3    H248434   0.513   3.150   3.961 -1.4624  0.6725 -0.3643
 9007TIP3   OH248435   1.054   3.240   3.323  0.3118  0.3217 -0.2877
 9007TIP3    H148436   1.141   3.278   3.336 -0.1859  2.6001 -2.8595
 9007TIP3    H248437   0.993   3.312   3.336 -1.0369 -0.6583 -0.8876
 9008TIP3   OH248438   6.727   3.920  15.597 -0.2006 -0.2223 -0.0708
 9008TIP3    H148439   6.734   4.014  15.613  1.3632 -0.3033 -0.1114
 9008TIP3    H248440   6.707   3.914  15.503 -1.8377  0.0824  0.2378
 9009TIP3   OH248441   4.665   1.490   5.072  0.1210  0.9572  0.8072
 9009TIP3    H148442   4.713   1.535   5.141 -0.3848  1.5303  0.7965
 9009TIP3    H248443   4.714   1.510   4.992  1.0138 -0.1516  1.0526
 9010TIP3   OH248444   4.432   0.484   1.614  0.0135  0.0712 -0.0681
 9010TIP3    H148445   4.371   0.410   1.610 -1.4121  1.2310 -1.2800
 9010TIP3    H248446   4.481   0.478   1.532  0.6761 -0.1592  0.3442
 9011TIP3   OH248447   1.926   5.334   4.653  0.8062 -0.1710  0.7034
 9011TIP3    H148448   1.946   5.241   4.664  1.9855  0.1495  1.4577
 9011TIP3    H248449   1.906   5.366   4.741  2.3873  0.7002  0.7877
 9012TIP3   OH248450   4.648   6.038   3.573 -0.1833  0.1482 -0.2137
 9012TIP3    H148451   4.603   6.010   3.653  1.5735 -0.2348  0.6920
 9012TIP3    H248452   4.577   6.054   3.511 -1.5872  0.0314  1.2680
 9013TIP3   OH248453   3.193   4.561   4.630 -0.0051 -0.1268 -0.5603
 9013TIP3    H148454   3.224   4.565   4.720 -0.4525  1.4293 -0.4472
 9013TIP3    H248455   3.118   4.621   4.627 -0.2516 -0.4553 -1.8683
 9014TIP3   OH248456   4.347   6.659   5.413  0.1035  0.4998  0.0064
 9014TIP3    H148457   4.320   6.650   5.321  2.2451  0.9499 -0.7158
 9014TIP3    H248458   4.391   6.576   5.433 -1.7297 -0.2589  1.1906
 9015TIP3   OH248459   1.025   3.950   5.200 -0.2570 -0.4410 -0.1426
 9015TIP3    H148460   0.983   3.895   5.266  0.1852  0.3377  0.8079
 9015TIP3    H248461   1.023   3.897   5.120 -1.4048 -1.1374  0.3190
 9016TIP3   OH248462   1.413   4.474   3.902  0.1878  0.5203 -0.0756
 9016TIP3    H148463   1.391   4.419   3.977 -1.1075 -1.6358 -1.8818
 9016TIP3    H248464   1.425   4.412   3.830 -1.2178  2.5830 -2.2398
 9017TIP3   OH248465   4.612   4.829   4.216 -0.6960 -0.1940 -0.0138
 9017TIP3    H148466   4.640   4.773   4.143  0.0772 -1.5501  1.2746
 9017TIP3    H248467   4.668   4.906   4.209  0.5577 -1.0624  0.1031
 9018TIP3   OH248468   4.548   5.005   2.743  0.3917  0.1398 -0.4244
 9018TIP3    H148469   4.624   4.952   2.722  0.4720  1.0370 -2.7176
 9018TIP3    H248470   4.566   5.040   2.830  1.7542 -1.0735 -0.1808
 9019TIP3   OH248471   3.718   0.853   3.143  0.2703  0.3673  0.3450
 9019TIP3    H148472   3.701   0.894   3.058  0.2907  1.0306  0.6504
 9019TIP3    H248473   3.650   0.786   3.151  0.2182  0.3556 -0.1596
 9020TIP3   OH248474   6.288   4.233   0.678  0.3591 -0.0143  0.0897
 9020TIP3    H148475   6.248   4.320   0.688 -0.4010 -0.1709 -1.2786
 9020TIP3    H248476   6.253   4.182   0.751 -0.4442  0.3938  0.0005
 9021TIP3   OH248477   6.624   1.476  16.663  0.1945 -0.1649 -0.7061
 9021TIP3    H148478   6.550   1.459  16.721  1.6060  0.2528  1.3355
 9021TIP3    H248479   6.634   1.395  16.613 -1.4404 -0.3215 -0.8339
 9022TIP3   OH248480   5.195   6.159   4.679  0.2243 -0.0084 -0.0971
 9022TIP3    H148481   5.140   6.229   4.644 -2.0754 -1.9751 -0.6998
 9022TIP3    H248482   5.267   6.152   4.617 -0.1287  1.0383 -0.6584
 9023TIP3   OH248483   2.668   3.158  16.854 -0.1073 -0.1437  0.3260
 9023TIP3    H148484   2.573   3.159  16.862 -0.0976 -1.6354  1.0124
 9023TIP3    H248485   2.692   3.066  16.865  1.5080  0.3509  1.3425
 9024TIP3   OH248486   5.640   2.781  14.620 -0.1296 -0.4558  0.4012
 9024TIP3    H148487   5.680   2.838  14.686  0.2708 -0.5599  0.2561
 9024TIP3    H248488   5.565   2.742  14.665  0.8216 -1.4398  1.1992
 9025TIP3   OH248489   4.011   1.667  14.531 -0.7649  0.4297 -0.2333
 9025TIP3    H148490   3.952   1.741  14.535 -1.5238 -0.1388 -0.7143
 9025TIP3    H248491   3.977   1.612  14.461 -0.4812 -0.5880  0.3949
 9026TIP3   OH248492   0.890   1.575  13.537 -0.1540 -0.2043 -0.3800
 9026TIP3    H148493   0.886   1.546  13.628 -2.5171  2.3412  0.4427
 9026TIP3    H248494   0.974   1.542  13.506  0.7596 -1.1469  2.6962
 9027TIP3   OH248495   4.509   0.232   5.623 -0.0235 -0.2559  0.3815
 9027TIP3    H148496   4.553   0.149   5.608 -1.1069 -0.5940 -1.1625
 9027TIP3    H248497   4.446   0.213   5.693 -0.1774 -0.7002  0.1239
 9028TIP3   OH248498   1.225   5.298  11.345 -0.8141 -0.2149  0.1771
 9028TIP3    H148499   1.288   5.340  11.287 -1.0082  1.7445  1.3193
 9028TIP3    H248500   1.269   5.217  11.372  0.2555 -0.0009 -0.8136
 9029TIP3   OH248501   0.233   3.111   4.479  0.2242 -0.3689  0.3089
 9029TIP3    H148502   0.152   3.082   4.522  0.4950  0.1108  1.1470
 9029TIP3    H248503   0.212   3.107   4.385 -0.9041  0.1112  0.5191
 9030TIP3   OH248504   3.148   3.214  14.496 -0.2450 -0.1746 -0.0153
 9030TIP3    H148505   3.189   3.278  14.555  1.8898  1.4950 -3.0005
 9030TIP3    H248506   3.210   3.142  14.493 -1.5369 -1.4171  1.5517
 9031TIP3   OH248507   5.257   5.332   0.842 -0.1861  0.2348  0.7981
 9031TIP3    H148508   5.352   5.330   0.851 -0.0184  1.0252 -0.5870
 9031TIP3    H248509   5.230   5.413   0.885  0.2259  2.0764 -2.1888
 9032TIP3   OH248510   4.351   3.727   5.261 -0.0166 -0.1195  0.2405
 9032TIP3    H148511   4.285   3.782   5.302  1.7460  2.3551 -0.0227
 9032TIP3    H248512   4.312   3.700   5.178 -1.7873 -1.2559  1.3779
 9033TIP3   OH248513   1.919   1.373  16.475 -0.1155 -0.0484 -0.5860
 9033TIP3    H148514   1.848   1.331  16.523 -0.1645 -0.8095 -1.3086
 9033TIP3    H248515   1.980   1.402  16.543  0.0494 -1.5266 -0.0715
 9034TIP3   OH248516   1.257   0.544  16.769 -0.4300 -0.1353  0.1734
 9034TIP3    H148517   1.295   0.613  16.823 -0.0632  1.0106 -1.4757
 9034TIP3    H248518   1.195   0.589  16.712  0.4051 -0.9850 -1.4941
 9035TIP3   OH248519   1.010   0.060  16.107 -0.1460 -0.2480 -0.2544
 9035TIP3    H148520   0.919   0.061  16.136 -0.2314 -1.9412 -0.3468
 9035TIP3    H248521   1.052   0.130  16.157 -1.6361  1.0866 -0.7714
 9036TIP3   OH248522   0.301   6.609  15.922  0.3290 -0.0277 -0.6335
 9036TIP3    H148523   0.293   6.523  15.961  0.0840  0.7890  1.2068
 9036TIP3    H248524   0.232   6.661  15.963  1.7440  1.5819 -0.1621
 9037TIP3   OH248525   0.860   5.633  13.380  0.3565  0.0857 -0.1793
 9037TIP3    H148526   0.937   5.620  13.325  2.3647  0.4777  2.3351
 9037TIP3    H248527   0.838   5.725  13.369 -0.3786 -0.2347 -1.6036
 9038TIP3   OH248528   0.830   4.783  14.563 -0.0542  0.0768 -0.2363
 9038TIP3    H148529   0.777   4.847  14.516  0.6243  0.3508 -0.6435
 9038TIP3    H248530   0.767   4.730  14.612 -0.7475  0.0196 -1.1679
 9039TIP3   OH248531   2.963   4.447  12.353  0.1163 -0.1216  0.3657
 9039TIP3    H148532   2.957   4.510  12.281 -1.9217 -0.2328  0.3847
 9039TIP3    H248533   3.014   4.493  12.420 -0.2430  1.0233 -0.1128
 9040TIP3   OH248534   5.408   6.440   3.164 -0.3077  0.6109 -0.5274
 9040TIP3    H148535   5.316   6.419   3.147  0.0217 -0.9866 -0.5275
 9040TIP3    H248536   5.415   6.534   3.150 -1.9135  0.7280 -0.6521
 9041TIP3   OH248537   3.291   1.418   0.733  0.1383 -0.8572 -0.1182
 9041TIP3    H148538   3.292   1.510   0.758  0.4036 -0.9864  0.3608
 9041TIP3    H248539   3.205   1.404   0.695 -0.3253 -0.6939  0.8560
 9042TIP3   OH248540   4.722   1.518   1.135 -0.1747 -0.3815  0.0840
 9042TIP3    H148541   4.690   1.428   1.124  0.0600 -0.3074 -1.4359
 9042TIP3    H248542   4.812   1.515   1.102 -0.1472  0.4068  0.0722
 9043TIP3   OH248543   5.712   2.410   0.701 -0.4758  0.3641 -0.2481
 9043TIP3    H148544   5.628   2.366   0.685  0.6133 -1.8706 -0.2246
 9043TIP3    H248545   5.760   2.401   0.619  0.8998 -1.2406  0.6682
 9044TIP3   OH248546   3.332   0.655  13.115  0.0987 -0.2970 -0.6157
 9044TIP3    H148547   3.239   0.639  13.104  0.4676 -2.0767 -1.4788
 9044TIP3    H248548   3.339   0.750  13.127 -1.9896 -0.3252  1.7030
 9045TIP3   OH248549   3.955   3.726   1.134  0.2365 -0.3456  0.4670
 9045TIP3    H148550   3.978   3.819   1.139 -0.5996 -0.1661  1.4258
 9045TIP3    H248551   3.872   3.724   1.087  0.9162 -0.7525 -0.7552
 9046TIP3   OH248552   1.636   5.341   6.027 -0.2089  0.9309 -0.1937
 9046TIP3    H148553   1.628   5.250   6.057 -0.5961  0.1401 -2.4746
 9046TIP3    H248554   1.711   5.376   6.075  0.5825 -0.9250  0.0056
 9047TIP3   OH248555   1.003   2.487  16.525 -0.4455 -0.6288  0.0778
 9047TIP3    H148556   1.058   2.524  16.594 -0.0379 -0.2232 -0.4563
 9047TIP3    H248557   1.063   2.469  16.453 -1.1235  0.6571 -0.8581
 9048TIP3   OH248558   0.401   4.792  15.864 -0.3283 -0.2268  0.3635
 9048TIP3    H148559   0.385   4.884  15.887 -0.1981 -0.3102  0.7935
 9048TIP3    H248560   0.474   4.766  15.920 -1.7380 -1.2255  1.8593
 9049TIP3   OH248561   1.148   5.045  14.428  0.3283 -0.0130  0.3399
 9049TIP3    H148562   1.241   5.067  14.425  0.8273 -1.8776  0.7917
 9049TIP3    H248563   1.121   5.064  14.518  0.5315 -0.4144  0.4862
 9050TIP3   OH248564   6.501   1.131   4.202 -0.4768 -0.1852  1.2445
 9050TIP3    H148565   6.569   1.159   4.262  2.2412  0.1969 -1.7507
 9050TIP3    H248566   6.434   1.199   4.208  0.8341  1.0851  2.0758
 9051TIP3   OH248567   4.272   2.407  13.914  0.0363 -0.0461  0.9673
 9051TIP3    H148568   4.339   2.471  13.937  1.7905 -0.8685 -1.4234
 9051TIP3    H248569   4.235   2.439  13.832 -0.3513 -1.1382  0.6973
 9052TIP3   OH248570   6.675   0.040   4.688 -0.3860  0.1127  1.0588
 9052TIP3    H148571   6.752  -0.016   4.697 -0.3049 -0.1775 -0.9345
 9052TIP3    H248572   6.623   0.024   4.767  1.3220 -0.0802  2.1916
 9053TIP3   OH248573   6.585   4.590   0.128 -0.1178  0.4852 -0.1865
 9053TIP3    H148574   6.542   4.506   0.114  0.1833  0.1562  0.7918
 9053TIP3    H248575   6.662   4.587   0.071 -0.8505  0.6959 -1.2272
 9054TIP3   OH248576   1.197   3.169  14.680 -0.5474 -0.0937  0.3058
 9054TIP3    H148577   1.138   3.234  14.641  1.3350  1.7103  0.2989
 9054TIP3    H248578   1.197   3.097  14.617  0.9927  1.9628 -2.2301
 9055TIP3   OH248579   0.897   6.354  15.398 -0.0006 -0.0505 -0.4938
 9055TIP3    H148580   0.807   6.342  15.426 -0.5153 -0.5140 -2.1933
 9055TIP3    H248581   0.922   6.269  15.361  1.5018 -0.2459  0.8659
 9056TIP3   OH248582   1.785   5.607   3.271 -0.5382 -0.6196  0.0661
 9056TIP3    H148583   1.835   5.543   3.321  0.6604  0.6785  0.5831
 9056TIP3    H248584   1.790   5.576   3.181  2.7327  0.3327 -0.1955
 9057TIP3   OH248585   5.177   4.832  13.078  0.6391  0.0164  0.0982
 9057TIP3    H148586   5.118   4.890  13.030 -0.5995 -1.1658  0.1208
 9057TIP3    H248587   5.124   4.755  13.098  2.2338 -1.1495  0.0338
 9058TIP3   OH248588   5.576   0.694  17.149 -0.1559  0.3442 -0.3280
 9058TIP3    H148589   5.567   0.789  17.141 -0.5312  0.1788 -2.2460
 9058TIP3    H248590   5.670   0.678  17.140  0.0378  0.5719  0.9881
 9059TIP3   OH248591   4.725   1.935   2.297 -0.0600  0.2832  0.1635
 9059TIP3    H148592   4.808   1.887   2.289  0.5185  1.3192 -0.2413
 9059TIP3    H248593   4.744   2.021   2.260 -1.5668  0.2585 -0.7128
 9060TIP3   OH248594   4.141   3.989   0.524  0.1566 -0.2517 -0.2152
 9060TIP3    H148595   4.139   4.031   0.438 -0.4903  0.0255 -0.0682
 9060TIP3    H248596   4.063   3.934   0.526  1.4805 -2.2499 -0.7871
 9061TIP3   OH248597   0.417   4.216  11.305  0.3620 -0.3869  0.4956
 9061TIP3    H148598   0.466   4.141  11.338  0.5301 -1.3319 -1.6999
 9061TIP3    H248599   0.411   4.200  11.210 -0.8654  1.6467  0.1817
 9062TIP3   OH248600   6.055   6.108  14.419  0.2953  0.0797 -0.3834
 9062TIP3    H148601   6.071   6.160  14.341 -2.2214  1.2327 -0.2006
 9062TIP3    H248602   6.003   6.034  14.388  1.1973 -0.6818 -0.1253
 9063TIP3   OH248603   5.033   4.215  14.203  0.3059 -0.1025  0.0832
 9063TIP3    H148604   5.010   4.123  14.198  1.4340 -0.3603 -0.8601
 9063TIP3    H248605   5.078   4.233  14.121  1.2444  0.9568  0.7921
 9064TIP3   OH248606   0.675   5.211  15.072 -0.3408 -0.1728 -0.7725
 9064TIP3    H148607   0.624   5.256  15.004 -0.5294 -0.3450 -0.7467
 9064TIP3    H248608   0.609   5.173  15.130 -0.1815 -0.3399 -0.6987
 9065TIP3   OH248609   4.002   1.195   0.758  0.3717  0.4672 -0.0792
 9065TIP3    H148610   3.961   1.122   0.713  0.3012 -0.0559  0.8100
 9065TIP3    H248611   3.932   1.233   0.811  0.4404  1.1019 -0.4252
 9066TIP3   OH248612   3.602   6.354  13.594 -0.1743  0.0601  0.0560
 9066TIP3    H148613   3.507   6.357  13.607 -0.6509 -2.1523 -2.1525
 9066TIP3    H248614   3.617   6.408  13.517 -0.1876 -2.0829 -1.5531
 9067TIP3   OH248615   4.445   5.553  15.491 -0.1700  0.5235 -0.4717
 9067TIP3    H148616   4.358   5.514  15.505  0.2255 -1.6821 -3.2850
 9067TIP3    H248617   4.498   5.480  15.459  1.6191  2.6787 -2.7057
 9068TIP3   OH248618   1.590   1.157  16.453 -0.9578 -0.0279 -0.0290
 9068TIP3    H148619   1.624   1.217  16.519 -0.4706 -0.8021  0.4363
 9068TIP3    H248620   1.527   1.102  16.500  0.4393 -1.5369  0.1630
 9069TIP3   OH248621   2.854   4.735   5.153  0.0668 -0.0133 -0.0536
 9069TIP3    H148622   2.865   4.829   5.141 -1.0976  0.1886  0.2829
 9069TIP3    H248623   2.825   4.704   5.067  1.6553 -0.2881 -0.5123
 9070TIP3   OH248624   6.515   4.654   1.828 -0.3618 -0.2920 -0.3589
 9070TIP3    H148625   6.526   4.658   1.923  1.1911 -0.0024 -0.5181
 9070TIP3    H248626   6.444   4.592   1.814  0.0447 -1.0798  0.9531
 9071TIP3   OH248627   4.631   5.947   0.696 -0.0127 -0.2412  0.3877
 9071TIP3    H148628   4.722   5.930   0.723  0.3515 -0.8696 -1.1432
 9071TIP3    H248629   4.579   5.890   0.753  0.7046 -1.2947  0.0324
 9072TIP3   OH248630   1.131   5.336   4.615  0.4049 -0.0878 -0.2090
 9072TIP3    H148631   1.197   5.324   4.547  1.0543 -0.4838  0.4772
 9072TIP3    H248632   1.181   5.357   4.694 -0.4131  1.9051 -0.1718
 9073TIP3   OH248633   3.107   2.157  12.946 -0.1542 -0.4892  0.1811
 9073TIP3    H148634   3.192   2.165  12.903  0.3725 -1.8041  0.9432
 9073TIP3    H248635   3.064   2.083  12.903  0.4815 -1.9900  2.0069
 9074TIP3   OH248636   6.630   2.551   1.685 -0.1660  0.2304  0.3938
 9074TIP3    H148637   6.690   2.625   1.676  0.3284 -0.0933  0.8805
 9074TIP3    H248638   6.616   2.543   1.779 -1.6030  0.7743  0.2506
 9075TIP3   OH248639   2.937   4.651  13.282 -0.1967 -0.1923 -0.2389
 9075TIP3    H148640   2.944   4.653  13.378 -1.4724 -1.7727 -0.0701
 9075TIP3    H248641   3.001   4.585  13.255  0.9404  1.0142 -0.6112
 9076TIP3   OH248642   4.679   0.196   0.595  0.2744 -0.0469 -0.3540
 9076TIP3    H148643   4.584   0.189   0.608  0.1973 -0.1110 -0.9283
 9076TIP3    H248644   4.700   0.127   0.532  0.5606  0.5465 -0.9216
 9077TIP3   OH248645   1.974   3.945   6.473 -1.0371 -0.4134 -0.9745
 9077TIP3    H148646   1.883   3.970   6.489 -1.2296 -1.0864 -1.0193
 9077TIP3    H248647   1.983   3.859   6.514  0.5967  1.1373  2.3894
 9078TIP3   OH248648   0.053   1.713  14.370  0.0002 -0.3874  0.0439
 9078TIP3    H148649   0.132   1.664  14.346  0.5230  0.2060  0.5307
 9078TIP3    H248650  -0.003   1.708  14.292  0.6938 -0.4508 -0.4533
 9079TIP3   OH248651   3.907   2.949   1.430 -0.3651 -0.0513 -0.5321
 9079TIP3    H148652   3.968   3.017   1.400 -0.5945  1.6195  2.3958
 9079TIP3    H248653   3.957   2.900   1.495 -2.1246  1.7751  2.4429
 9080TIP3   OH248654   0.542   5.733   1.479 -0.5852  0.5069 -0.2324
 9080TIP3    H148655   0.610   5.696   1.423 -0.4565  1.0597 -0.4578
 9080TIP3    H248656   0.587   5.802   1.529 -0.8905  0.6105 -0.0949
 9081TIP3   OH248657   0.273   1.804   4.460 -0.1643  0.2283 -0.5363
 9081TIP3    H148658   0.322   1.818   4.379 -0.0377  0.5534 -0.4033
 9081TIP3    H248659   0.210   1.876   4.463 -0.1573  0.2277 -0.3378
 9082TIP3   OH248660   1.333   1.212  14.339  0.5348  0.1723  0.4338
 9082TIP3    H148661   1.259   1.229  14.281  0.6149  0.9564  0.5455
 9082TIP3    H248662   1.407   1.254  14.296  1.3819 -2.3294 -0.7034
 9083TIP3   OH248663   3.995   5.430  14.243 -0.3213 -0.0998  0.2419
 9083TIP3    H148664   4.012   5.523  14.254  0.7240 -0.0501 -1.4903
 9083TIP3    H248665   4.079   5.388  14.263  0.1180 -0.3883 -2.0135
 9084TIP3   OH248666   6.525   1.137  11.037  0.0914  0.4782  0.5416
 9084TIP3    H148667   6.548   1.045  11.024  1.7000  0.7026  1.5238
 9084TIP3    H248668   6.593   1.185  10.991 -0.4689  1.1911  0.4449
 9085TIP3   OH248669   1.398   4.545  14.349 -0.1282 -0.5481  0.2555
 9085TIP3    H148670   1.407   4.626  14.298 -0.4571 -0.1696  0.7888
 9085TIP3    H248671   1.484   4.504  14.343 -0.2005 -0.5768 -0.7092
 9086TIP3   OH248672   1.360   0.505  11.427  0.3800 -0.0906  0.0917
 9086TIP3    H148673   1.417   0.443  11.380  0.2784 -0.1003 -0.0179
 9086TIP3    H248674   1.413   0.534  11.501  1.0090  0.8602 -0.7029
 9087TIP3   OH248675   3.528   5.211  16.067  0.4916  0.1644  0.2135
 9087TIP3    H148676   3.482   5.260  15.999 -1.8077 -0.3801  1.2894
 9087TIP3    H248677   3.545   5.275  16.136  2.1696  0.5476 -0.4986
 9088TIP3   OH248678   0.255   3.595  16.764  0.5671  0.3039 -0.0090
 9088TIP3    H148679   0.290   3.594  16.675 -2.4409 -1.4988 -1.3381
 9088TIP3    H248680   0.289   3.515  16.804  0.6579  0.3106 -0.0714
 9089TIP3   OH248681   5.956   1.334  14.074 -0.4764  0.0942  0.2544
 9089TIP3    H148682   5.895   1.335  14.148 -2.6520 -0.4824 -1.4319
 9089TIP3    H248683   6.004   1.417  14.082 -0.6874  0.0803  2.2392
 9090TIP3   OH248684   1.722   0.430  12.306  0.6316 -0.3139  0.0415
 9090TIP3    H148685   1.754   0.370  12.238  0.1425 -0.9559  0.3762
 9090TIP3    H248686   1.770   0.511  12.289  0.8324 -0.5934 -0.8110
 9091TIP3   OH248687   1.265   0.886   2.494 -0.2430  0.2781  0.0753
 9091TIP3    H148688   1.282   0.955   2.558  4.8770 -1.1568  0.6626
 9091TIP3    H248689   1.288   0.925   2.410  1.0754 -0.1458  0.2147
 9092TIP3   OH248690   6.520   3.982  10.615  0.3302 -0.2004  0.0751
 9092TIP3    H148691   6.538   4.075  10.600  1.3458 -0.3315  0.4090
 9092TIP3    H248692   6.426   3.978  10.634  0.0057  0.5848 -1.2658
 9093TIP3   OH248693   5.496   4.901  13.372  0.2775 -0.5228 -0.4091
 9093TIP3    H148694   5.513   4.868  13.284 -1.3403  0.5845 -1.2081
 9093TIP3    H248695   5.402   4.884  13.386  0.2343  0.4172  0.6025
 9094TIP3   OH248696   3.544   6.357  13.047  0.0679  0.4637 -0.2903
 9094TIP3    H148697   3.604   6.430  13.060  0.0007  0.1331  2.3766
 9094TIP3    H248698   3.598   6.278  13.057 -0.5908  0.1661  1.0961
 9095TIP3   OH248699   1.794   2.401  13.029 -0.1234 -0.3995  0.0762
 9095TIP3    H148700   1.888   2.410  13.011 -0.2511  2.1280  0.3731
 9095TIP3    H248701   1.752   2.430  12.948 -0.6631 -1.1086  0.0979
 9096TIP3   OH248702   3.377   0.369   1.368 -0.1463 -0.1221 -0.1478
 9096TIP3    H148703   3.373   0.397   1.277 -1.9914  0.5257  0.0990
 9096TIP3    H248704   3.320   0.292   1.373  0.1092 -0.2830  0.4167
 9097TIP3   OH248705   6.493   5.498   1.100 -0.1033 -0.0269 -0.0655
 9097TIP3    H148706   6.448   5.445   1.165  0.4409  0.0025  0.3422
 9097TIP3    H248707   6.433   5.501   1.025  0.6463 -2.7947 -0.8665
 9098TIP3   OH248708   3.317   0.043  16.272  0.0360 -0.4499  0.5990
 9098TIP3    H148709   3.315  -0.010  16.192  1.2921 -1.2055  1.0473
 9098TIP3    H248710   3.248   0.108  16.259 -0.1736 -0.9241 -0.8479
 9099TIP3   OH248711   1.197   6.684   6.028  0.1230 -0.3763  0.1992
 9099TIP3    H148712   1.203   6.726   6.114  0.6568  0.2920 -0.1552
 9099TIP3    H248713   1.108   6.703   5.998  0.6105  1.2343 -0.3068
 9100TIP3   OH248714   5.966   1.035   4.288  0.0905 -0.5171  0.1914
 9100TIP3    H148715   5.912   0.986   4.226  0.7526  0.9655 -1.6371
 9100TIP3    H248716   6.056   1.018   4.260  0.4950 -0.9168  1.6328
 9101TIP3   OH248717   1.947   6.520  14.210 -0.1670 -0.3241  0.5437
 9101TIP3    H148718   1.890   6.596  14.220  0.2950  0.5061 -2.1677
 9101TIP3    H248719   1.892   6.455  14.164 -0.0518 -0.9964  1.3330
 9102TIP3   OH248720   5.520   6.437   4.794 -0.3069 -0.5989  0.3492
 9102TIP3    H148721   5.573   6.479   4.727  0.3043 -0.8558  0.6640
 9102TIP3    H248722   5.430   6.461   4.772  0.0613  1.4248  0.9071
 9103TIP3   OH248723   2.549   5.549   0.096 -0.1677 -0.3845  0.3618
 9103TIP3    H148724   2.478   5.522   0.154 -0.3844 -0.3530  0.1100
 9103TIP3    H248725   2.605   5.604   0.151 -1.7448  1.8533 -0.1173
 9104TIP3   OH248726   3.341   0.837   3.389 -0.2056 -0.5001 -0.3106
 9104TIP3    H148727   3.282   0.781   3.439 -1.1446  1.2497  0.6515
 9104TIP3    H248728   3.285   0.907   3.356  1.1784  0.8241  0.0179
 9105TIP3   OH248729   1.647   5.952   6.079 -0.0104  0.3376  0.3060
 9105TIP3    H148730   1.680   6.006   6.150  0.0656 -0.0667  0.5790
 9105TIP3    H248731   1.705   5.971   6.005  0.9855 -0.5373  0.8440
 9106TIP3   OH248732   2.910   5.046   0.884  0.0240  0.2726 -0.0480
 9106TIP3    H148733   2.914   4.952   0.867 -0.6672  0.3794 -0.8594
 9106TIP3    H248734   2.816   5.065   0.889  0.1643  0.8730  0.4127
 9107TIP3   OH248735   4.992   6.156   6.072  0.2416  0.2255 -0.1356
 9107TIP3    H148736   5.078   6.189   6.046  0.2160  0.4874  0.1120
 9107TIP3    H248737   4.993   6.159   6.167 -1.1577  3.1497 -0.1198
 9108TIP3   OH248738   3.186   6.555   2.271  1.0147  1.1619  0.1715
 9108TIP3    H148739   3.125   6.627   2.288 -0.6044 -0.3685  1.3375
 9108TIP3    H248740   3.164   6.525   2.183  0.6347  1.1410  0.2714
 9109TIP3   OH248741   1.529   4.625   2.963  0.2198  0.6652  0.0533
 9109TIP3    H148742   1.471   4.701   2.962 -0.3424  0.2434 -0.6678
 9109TIP3    H248743   1.469   4.550   2.968  0.5823  0.1444 -2.2301
 9110TIP3   OH248744   6.585   2.078  13.407 -0.5994  0.1098  0.4561
 9110TIP3    H148745   6.645   2.126  13.351 -1.8534  0.8318 -0.3244
 9110TIP3    H248746   6.557   2.003  13.355  0.1747 -0.6347  1.0938
 9111TIP3   OH248747   1.470   1.345   5.770 -0.1823 -0.2207  0.4349
 9111TIP3    H148748   1.453   1.354   5.864 -0.8244 -0.2229  0.3219
 9111TIP3    H248749   1.485   1.251   5.757  2.8209  0.0610  0.9973
 9112TIP3   OH248750   3.774   6.108   4.925 -0.3282  0.0099  0.1930
 9112TIP3    H148751   3.818   6.172   4.870 -0.2686 -0.6319 -0.5198
 9112TIP3    H248752   3.683   6.109   4.896 -0.4042  0.0226  0.4240
 9113TIP3   OH248753   1.490   3.907   5.985 -0.2466  0.6694 -0.0209
 9113TIP3    H148754   1.580   3.918   5.954  0.4121 -1.4073  0.9717
 9113TIP3    H248755   1.498   3.891   6.079 -1.3942 -1.8379 -0.2579
 9114TIP3   OH248756   6.705   4.853   3.954 -0.6184  0.1156  0.3418
 9114TIP3    H148757   6.754   4.833   4.034  0.4671  0.1409 -0.3013
 9114TIP3    H248758   6.770   4.888   3.894 -1.1229 -1.2698 -1.0816
 9115TIP3   OH248759   5.742   0.536   1.228  0.1580  0.0529 -0.8710
 9115TIP3    H148760   5.672   0.598   1.208  1.0496  1.7292  0.9296
 9115TIP3    H248761   5.726   0.462   1.169 -3.2168  0.2777 -0.4152
 9116TIP3   OH248762   2.922   5.332  15.629  0.0424 -0.2927  0.5638
 9116TIP3    H148763   2.908   5.239  15.610 -1.2735  0.3833 -2.3582
 9116TIP3    H248764   2.889   5.344  15.718 -1.9925 -2.2198  0.1568
 9117TIP3   OH248765   5.799   5.415  16.240 -0.5288  0.7914  0.3037
 9117TIP3    H148766   5.708   5.391  16.259 -0.5185 -1.8579 -2.2164
 9117TIP3    H248767   5.851   5.345  16.280  0.2719  1.3636  0.2832
 9118TIP3   OH248768   1.311   1.766   5.049 -0.8156 -0.5845  0.2297
 9118TIP3    H148769   1.259   1.835   5.091 -1.0032 -0.1267 -0.7480
 9118TIP3    H248770   1.401   1.793   5.062 -0.8584 -0.5965  0.5823
 9119TIP3   OH248771   2.775   5.502   2.350  0.1299 -0.1594  0.3335
 9119TIP3    H148772   2.720   5.424   2.362 -3.7430  2.2943  0.3695
 9119TIP3    H248773   2.762   5.552   2.431 -0.3238  2.0040 -1.0008
 9120TIP3   OH248774   3.314   1.380  12.370 -0.6608  0.7796  0.0970
 9120TIP3    H148775   3.406   1.400  12.354 -0.7434  0.2205 -1.2149
 9120TIP3    H248776   3.306   1.286  12.350 -1.4696  0.7739  0.3953
 9121TIP3   OH248777   2.776   0.794   0.262 -0.4399 -0.1512  0.3522
 9121TIP3    H148778   2.831   0.814   0.186 -3.4554  1.1383 -1.6821
 9121TIP3    H248779   2.742   0.706   0.245 -0.2184 -0.3411  0.8496
 9122TIP3   OH248780   5.762   0.557   2.559  0.3147  0.1444  0.4639
 9122TIP3    H148781   5.758   0.642   2.516  1.2622  0.3859  0.8452
 9122TIP3    H248782   5.699   0.563   2.631  0.5149  0.5847  0.6015
 9123TIP3   OH248783   6.483   4.945   2.074 -0.7238 -0.1896 -0.2077
 9123TIP3    H148784   6.570   4.939   2.112 -0.8585 -1.7247 -0.0467
 9123TIP3    H248785   6.497   4.974   1.984 -0.3117  2.4261  0.6111
 9124TIP3   OH248786   0.860   4.956   3.880  0.3484 -0.0576 -0.0135
 9124TIP3    H148787   0.840   4.877   3.829  5.0569 -0.8316 -1.1317
 9124TIP3    H248788   0.813   5.026   3.835  0.4818 -1.4688 -2.5609
 9125TIP3   OH248789   0.995   5.696  11.904 -0.6075  0.0670 -0.1800
 9125TIP3    H148790   0.978   5.605  11.929 -0.5977  0.3158  0.7442
 9125TIP3    H248791   1.054   5.729  11.971 -0.0845  0.5736 -0.8738
 9126TIP3   OH248792   2.239   3.032   5.132 -0.0066 -0.6183  0.1385
 9126TIP3    H148793   2.296   3.104   5.159 -2.2201  0.6845  1.6725
 9126TIP3    H248794   2.194   3.065   5.054  0.1593 -0.9901 -0.1153
 9127TIP3   OH248795   5.560   3.694  14.078  0.0097  0.9998  0.1692
 9127TIP3    H148796   5.528   3.627  14.017 -0.1034  1.2742 -0.0789
 9127TIP3    H248797   5.639   3.657  14.116 -0.1404  0.6613  0.1507
 9128TIP3   OH248798   3.881   0.032  17.343 -0.6731  0.5546  0.0541
 9128TIP3    H148799   3.961  -0.008  17.376 -0.2599  0.9835 -0.4164
 9128TIP3    H248800   3.830   0.053  17.421 -0.0966  0.7587  0.3729
 9129TIP3   OH248801   4.586   4.481   3.923 -0.5234 -0.2540  0.0104
 9129TIP3    H148802   4.602   4.498   3.830 -1.4166  2.0215  0.2165
 9129TIP3    H248803   4.620   4.559   3.968 -0.1074 -1.3068  1.6173
 9130TIP3   OH248804   4.387   5.031  16.676  0.1718 -0.0578  0.1612
 9130TIP3    H148805   4.297   5.000  16.664  0.7876 -1.1951 -2.2143
 9130TIP3    H248806   4.422   5.034  16.587  1.7594  2.7225  0.7752
 9131TIP3   OH248807   2.352   1.182  14.174 -0.0600  0.0126 -0.3067
 9131TIP3    H148808   2.315   1.269  14.190 -0.8743 -0.2363 -0.7396
 9131TIP3    H248809   2.397   1.190  14.090  1.6119  0.5320  0.6139
 9132TIP3   OH248810   2.871   3.829   2.700  0.5116  0.1846  0.5247
 9132TIP3    H148811   2.920   3.764   2.649 -1.9852 -0.1242 -1.7776
 9132TIP3    H248812   2.937   3.885   2.738  2.7075 -2.2151  0.5336
 9133TIP3   OH248813   3.885   2.843   4.390 -0.7020  0.2728 -0.1118
 9133TIP3    H148814   3.794   2.818   4.405 -1.2866  1.1474 -1.8538
 9133TIP3    H248815   3.886   2.937   4.404 -0.2134  0.3575 -0.6859
 9134TIP3   OH248816   1.001   3.702  14.961  0.5814 -0.7029  0.0989
 9134TIP3    H148817   0.943   3.772  14.931  2.5167  0.1251 -1.9997
 9134TIP3    H248818   0.952   3.622  14.946 -1.3930  0.0735  1.8523
 9135TIP3   OH248819   4.710   0.557   2.096  0.3033  0.3709  0.1700
 9135TIP3    H148820   4.632   0.502   2.083  1.2772 -0.8753 -0.6747
 9135TIP3    H248821   4.675   0.642   2.121 -1.3113 -0.3379  0.4685
 9136TIP3   OH248822   6.088   2.906  17.158 -0.7614 -0.1405  0.0326
 9136TIP3    H148823   6.150   2.901  17.231 -3.2728 -0.8496  2.2483
 9136TIP3    H248824   6.138   2.949  17.089  1.8826  0.2436  1.9880
 9137TIP3   OH248825   5.151   2.274   1.388 -0.6858  0.4802  0.4791
 9137TIP3    H148826   5.191   2.354   1.423 -1.5434  0.3452  1.8534
 9137TIP3    H248827   5.144   2.216   1.463 -2.6333  0.1838  0.1234
 9138TIP3   OH248828   2.834   0.021   1.514  0.0450  0.1240  0.5876
 9138TIP3    H148829   2.841   0.084   1.586  0.9302 -0.6989  1.2524
 9138TIP3    H248830   2.904  -0.041   1.530 -0.4208 -0.6859 -0.4026
 9139TIP3   OH248831   1.278   2.609  14.769 -0.0580  0.3269 -0.3380
 9139TIP3    H148832   1.253   2.701  14.765 -0.1862  0.2630 -1.1623
 9139TIP3    H248833   1.277   2.588  14.863  0.9770  1.4197 -0.0699
 9140TIP3   OH248834   0.040   2.313   4.657  0.2607  0.4909  0.2223
 9140TIP3    H148835   0.037   2.407   4.642 -0.6419  0.2186 -1.6220
 9140TIP3    H248836  -0.031   2.278   4.604  0.3805 -1.2084  1.1151
 9141TIP3   OH248837   6.026   4.902  16.040  0.5871  0.4009 -0.3250
 9141TIP3    H148838   6.056   4.862  16.121 -1.7710 -0.3017  0.2762
 9141TIP3    H248839   6.064   4.849  15.971  1.1082 -0.1369  0.3677
 9142TIP3   OH248840   6.573   3.189   0.320 -0.1030  0.0467 -0.0131
 9142TIP3    H148841   6.616   3.243   0.254 -3.7099  3.2767 -0.0899
 9142TIP3    H248842   6.526   3.123   0.270 -1.0096  1.0856 -0.5836
 9143TIP3   OH248843   5.517   3.295  15.495 -0.3175  0.1848  0.0458
 9143TIP3    H148844   5.526   3.222  15.434 -0.6198  0.6903 -0.6174
 9143TIP3    H248845   5.493   3.370  15.440 -0.2662  0.7276  0.7426
 9144TIP3   OH248846   2.534   2.616   4.856  0.0730  0.1838 -0.4286
 9144TIP3    H148847   2.469   2.547   4.840 -1.5804  1.5718 -0.0032
 9144TIP3    H248848   2.497   2.694   4.816  1.4306  1.0563 -0.0490
 9145TIP3   OH248849   4.297   6.114   0.641  0.0695 -0.0265 -0.2885
 9145TIP3    H148850   4.331   6.048   0.701  0.5503 -2.0985 -2.6800
 9145TIP3    H248851   4.253   6.178   0.698  0.2165 -1.9800  2.1851
 9146TIP3   OH248852   0.936   5.325  16.714  0.7572 -0.1213 -0.1260
 9146TIP3    H148853   0.961   5.367  16.796  2.8920 -1.0013 -0.2659
 9146TIP3    H248854   0.845   5.299  16.728  0.4962  1.3896  1.2514
 9147TIP3   OH248855   5.780   3.968  13.026 -0.0717  0.2114 -0.1051
 9147TIP3    H148856   5.794   3.985  12.933  0.9744 -0.9313 -0.1785
 9147TIP3    H248857   5.845   4.023  13.070 -0.9115  1.1527  0.0053
 9148TIP3   OH248858   5.708   5.375  13.118  0.2262  0.4718  0.0938
 9148TIP3    H148859   5.658   5.303  13.158  1.7403 -0.3320  0.5959
 9148TIP3    H248860   5.670   5.454  13.156 -3.1793  0.2129 -2.3073
 9149TIP3   OH248861   2.379   6.354   4.614  0.0302 -0.4949  0.5295
 9149TIP3    H148862   2.467   6.331   4.646  0.2791  1.2030  1.1642
 9149TIP3    H248863   2.395   6.413   4.541 -0.5976 -1.2634 -0.2485
 9150TIP3   OH248864   5.935   6.059   6.777  0.0403  0.0785 -0.7194
 9150TIP3    H148865   6.020   6.024   6.803  0.0308  0.3053 -0.3753
 9150TIP3    H248866   5.955   6.135   6.723  0.0641  0.8094  0.2879
 9151TIP3   OH248867   0.337   5.771   6.276 -0.2729 -0.6557  0.2824
 9151TIP3    H148868   0.379   5.854   6.301 -0.1676 -0.9322  1.0421
 9151TIP3    H248869   0.256   5.798   6.231  0.8155 -0.1087 -1.4673
 9152TIP3   OH248870   0.107   2.307   6.143  0.2400  0.1183 -0.4971
 9152TIP3    H148871   0.076   2.308   6.234  1.1709  3.9305 -0.0399
 9152TIP3    H248872   0.152   2.223   6.134 -0.9332 -0.9142  2.1334
 9153TIP3   OH248873   5.112   3.045  15.820 -0.6926  0.2268  0.6107
 9153TIP3    H148874   5.162   2.995  15.886  1.9836 -0.6121 -1.8425
 9153TIP3    H248875   5.047   3.093  15.871  2.2275  0.9672  4.1062
 9154TIP3   OH248876   4.169   1.547   1.896  0.5608  0.0708  0.3050
 9154TIP3    H148877   4.164   1.482   1.967 -0.4626 -1.0964 -0.7781
 9154TIP3    H248878   4.077   1.570   1.879  0.7736  0.1597 -0.7751
 9155TIP3   OH248879   0.920   4.081   5.832 -0.1455  0.0415  0.4393
 9155TIP3    H148880   0.868   4.142   5.884 -0.3921  0.1530  0.0673
 9155TIP3    H248881   0.951   4.133   5.758  0.3330 -0.0760  0.5526
 9156TIP3   OH248882   4.336   2.716  13.210 -0.5856 -0.1048  0.4685
 9156TIP3    H148883   4.413   2.756  13.170 -0.8657 -0.1086 -0.0873
 9156TIP3    H248884   4.281   2.790  13.235 -1.7297 -0.0782 -1.7836
 9157TIP3   OH248885   4.849   0.745  17.080 -0.2261 -0.3327  0.1289
 9157TIP3    H148886   4.792   0.766  17.006 -0.0014 -0.2528 -0.0216
 9157TIP3    H248887   4.888   0.828  17.104 -0.9177 -0.2021  0.8627
 9158TIP3   OH248888   2.343   3.073  15.014  0.3551  0.3935  0.3348
 9158TIP3    H148889   2.329   3.047  15.105  0.3859 -2.8203 -0.4459
 9158TIP3    H248890   2.438   3.069  15.002  0.2722 -0.4458 -0.1222
 9159TIP3   OH248891   1.957   1.053  12.147  0.5346 -0.0402  0.0953
 9159TIP3    H148892   1.998   1.027  12.230  0.9782  0.7300  0.1335
 9159TIP3    H248893   1.966   0.977  12.090 -1.0096 -1.1038  1.1710
 9160TIP3   OH248894   1.079   1.185   4.484 -0.6273 -0.1580  0.1856
 9160TIP3    H148895   1.060   1.119   4.418  0.7201 -1.5257  1.0928
 9160TIP3    H248896   1.126   1.254   4.437 -1.9357  0.1325 -0.7428
 9161TIP3   OH248897   2.548   1.586   2.084 -0.3784 -0.4408  0.4981
 9161TIP3    H148898   2.454   1.605   2.082 -0.7028 -1.9823 -1.4188
 9161TIP3    H248899   2.556   1.498   2.048  1.8570 -0.1392  0.1066
 9162TIP3   OH248900   4.063   2.067   0.576 -0.2715  0.0090 -0.5910
 9162TIP3    H148901   4.094   2.058   0.667 -0.4925  2.7323 -0.1611
 9162TIP3    H248902   3.971   2.041   0.580 -0.3898  0.4961  0.0695
 9163TIP3   OH248903   2.577   2.474  10.388  0.6780 -0.2681 -0.2974
 9163TIP3    H148904   2.634   2.426  10.448  0.3525  2.1734  2.1398
 9163TIP3    H248905   2.495   2.484  10.436  0.3441  1.6541 -1.1728
 9164TIP3   OH248906   3.033   5.342   0.826 -0.0036 -0.6631 -0.5170
 9164TIP3    H148907   3.058   5.296   0.746  0.9613 -1.5997  0.2952
 9164TIP3    H248908   2.977   5.281   0.873 -3.0133  0.9439 -1.7210
 9165TIP3   OH248909   0.847   4.309  16.527  0.0882 -0.1596 -0.1044
 9165TIP3    H148910   0.901   4.343  16.456  0.5812 -0.8963 -0.0985
 9165TIP3    H248911   0.848   4.378  16.594 -0.4985  0.5983 -0.8551
 9166TIP3   OH248912   0.800   2.533   4.768 -0.1186  0.7173  0.1115
 9166TIP3    H148913   0.738   2.571   4.706 -1.5252 -0.6513  0.5886
 9166TIP3    H248914   0.755   2.539   4.853  0.6221  0.1355  0.5582
 9167TIP3   OH248915   5.497   0.806   4.051  0.5725  0.3395  0.0540
 9167TIP3    H148916   5.536   0.836   4.134 -0.7029 -0.5030  1.0072
 9167TIP3    H248917   5.408   0.777   4.076 -0.0465  0.6214 -1.7244
 9168TIP3   OH248918   2.005   1.983   3.520 -0.2269 -0.1380 -0.2295
 9168TIP3    H148919   2.072   1.922   3.487 -2.7404 -2.9075 -0.6684
 9168TIP3    H248920   1.976   2.030   3.442  1.4357  1.4785  0.0451
 9169TIP3   OH248921   1.247   2.811   0.615  0.1248 -0.4086  0.1264
 9169TIP3    H148922   1.296   2.861   0.680 -0.3289  0.2101 -0.0009
 9169TIP3    H248923   1.179   2.767   0.665 -1.4360  1.5804 -0.1390
 9170TIP3   OH248924   0.858   2.007  15.675  0.3209 -0.0059 -0.5927
 9170TIP3    H148925   0.773   2.016  15.718 -0.2164 -1.2435 -1.3688
 9170TIP3    H248926   0.913   1.963  15.740 -0.3738 -1.5052 -0.9764
 9171TIP3   OH248927   3.838   4.410  14.381 -0.1849  0.7800 -0.1048
 9171TIP3    H148928   3.885   4.493  14.372  1.3846 -0.1355 -0.7856
 9171TIP3    H248929   3.790   4.401  14.299 -1.0009  1.3777  0.2954
 9172TIP3   OH248930   6.439   2.245   5.870  0.0175  0.5488  0.2302
 9172TIP3    H148931   6.515   2.220   5.922 -0.8783  1.2595  1.9484
 9172TIP3    H248932   6.392   2.308   5.924 -0.8252  1.5656 -1.5733
 9173TIP3   OH248933   0.611   2.698  15.701  0.3574  0.3982  0.0695
 9173TIP3    H148934   0.676   2.633  15.728  0.6131  0.3377 -0.6716
 9173TIP3    H248935   0.553   2.650  15.641  1.0117  1.0357 -1.1101
 9174TIP3   OH248936   6.505   2.141  15.335  0.1970 -0.4676 -0.0991
 9174TIP3    H148937   6.582   2.197  15.347  0.0612 -0.4081  0.5015
 9174TIP3    H248938   6.479   2.155  15.244  0.0491  0.5925  0.1003
 9175TIP3   OH248939   0.584   0.641  13.905  0.3036  0.3637 -0.2126
 9175TIP3    H148940   0.622   0.723  13.936  0.2374  0.3383 -0.0658
 9175TIP3    H248941   0.529   0.610  13.977 -0.9813  1.0197 -0.8768
 9176TIP3   OH248942   0.936   4.925   2.140  0.7350 -0.0992  0.1454
 9176TIP3    H148943   0.993   5.001   2.130  0.8965 -0.3805 -1.3676
 9176TIP3    H248944   0.903   4.908   2.052 -2.6446  0.7416  1.0764
 9177TIP3   OH248945   4.052   4.052  11.279 -0.7054  0.2237 -0.0842
 9177TIP3    H148946   3.996   3.997  11.223 -1.3585  0.3134  0.4614
 9177TIP3    H248947   4.004   4.135  11.284  0.7419  1.2209 -1.7071
 9178TIP3   OH248948   4.360   1.496   2.993  0.7461 -0.9536 -0.0520
 9178TIP3    H148949   4.265   1.488   2.982  0.4038  1.1105  0.9685
 9178TIP3    H248950   4.387   1.413   3.032 -0.8657 -1.0470  0.9150
 9179TIP3   OH248951   6.148   6.316  11.105 -0.4220 -0.1035 -0.0444
 9179TIP3    H148952   6.178   6.288  11.191 -0.8309 -0.9562 -0.1741
 9179TIP3    H248953   6.223   6.300  11.048 -0.4764 -0.4526 -0.0211
 9180TIP3   OH248954   4.684   0.970   1.252 -0.3500  0.4107 -0.2867
 9180TIP3    H148955   4.725   1.055   1.266  0.1761  0.1320 -0.0609
 9180TIP3    H248956   4.701   0.922   1.334  1.5129 -0.7537 -1.2568
 9181TIP3   OH248957   0.203   4.040  16.893 -0.1141 -0.2559  0.0308
 9181TIP3    H148958   0.200   4.128  16.931  0.3277  0.6408 -1.8980
 9181TIP3    H248959   0.295   4.028  16.868 -0.3190 -0.9631 -0.4077
 9182TIP3   OH248960   5.369   0.381  12.165  0.1893  0.7351 -0.3697
 9182TIP3    H148961   5.387   0.355  12.074  2.3895  0.6961  0.0298
 9182TIP3    H248962   5.420   0.460  12.178 -0.1373  0.7606  0.8491
 9183TIP3   OH248963   3.646   6.281   5.235  0.4828  0.0074  0.1404
 9183TIP3    H148964   3.646   6.377   5.225  1.3352 -0.0429 -0.5292
 9183TIP3    H248965   3.584   6.250   5.169  1.4189  0.0250 -0.7744
 9184TIP3   OH248966   5.976   4.215  14.273  1.1595 -0.7702 -0.0842
 9184TIP3    H148967   5.936   4.135  14.240  0.2870  0.1430 -1.3103
 9184TIP3    H248968   5.915   4.247  14.340  0.9726 -0.5855 -0.3396
 9185TIP3   OH248969   3.244   3.453  13.952  0.0810  0.1927  0.2142
 9185TIP3    H148970   3.318   3.498  13.992 -0.1569  1.1893 -0.4327
 9185TIP3    H248971   3.269   3.444  13.860 -0.6136  0.5436 -0.0073
 9186TIP3   OH248972   1.311   6.225   5.075 -0.8289 -0.6812 -0.2090
 9186TIP3    H148973   1.350   6.170   5.007  0.7277  2.0752 -1.7409
 9186TIP3    H248974   1.225   6.249   5.042 -0.8461 -0.8969 -0.3147
 9187TIP3   OH248975   2.240   5.097   0.728 -0.3301 -0.3190 -0.3766
 9187TIP3    H148976   2.294   5.021   0.704  0.0810 -0.0671 -0.2498
 9187TIP3    H248977   2.190   5.116   0.648  0.0606 -0.3056 -0.6190
 9188TIP3   OH248978   0.839   5.591   4.796 -0.5522  0.8520  0.3889
 9188TIP3    H148979   0.890   5.642   4.859  0.4029  1.0111 -0.4928
 9188TIP3    H248980   0.779   5.654   4.756 -0.2624  1.0187  0.2156
 9189TIP3   OH248981   2.648   6.690  11.425 -0.3227 -0.1081  0.3674
 9189TIP3    H148982   2.689   6.769  11.390  0.3209  0.0213  1.3494
 9189TIP3    H248983   2.720   6.627  11.431  0.2576  0.6655  3.7592
 9190TIP3   OH248984   4.761   5.718  13.798  0.1156  0.1359  0.4335
 9190TIP3    H148985   4.842   5.668  13.787 -0.8117 -1.3749  0.1281
 9190TIP3    H248986   4.780   5.804  13.760  1.5963 -0.1453  0.4702
 9191TIP3   OH248987   1.170   1.644  16.519  0.1921  0.4315 -0.4249
 9191TIP3    H148988   1.185   1.614  16.429  0.4016  0.3519 -0.3635
 9191TIP3    H248989   1.079   1.673  16.519  0.1816  0.4006 -0.6557
 9192TIP3   OH248990   1.800   1.708   5.392  0.8689 -0.3793 -0.2709
 9192TIP3    H148991   1.856   1.774   5.433  1.6716 -0.0420 -1.8390
 9192TIP3    H248992   1.770   1.749   5.310  1.0963 -1.8199 -1.1081
 9193TIP3   OH248993   6.205   1.563   4.842 -0.3177 -0.2697  0.0749
 9193TIP3    H148994   6.281   1.622   4.846  0.3865 -1.2062  0.8233
 9193TIP3    H248995   6.233   1.484   4.887 -1.1408 -1.3243 -1.1909
 9194TIP3   OH248996   0.396   4.625   5.844  0.3440  0.3147 -0.3442
 9194TIP3    H148997   0.430   4.713   5.860 -2.4323  1.3010  0.8904
 9194TIP3    H248998   0.313   4.623   5.893  0.0657 -2.8245 -0.7658
 9195TIP3   OH248999   6.247   1.817  14.489 -0.0117  0.0355 -0.2484
 9195TIP3    H149000   6.267   1.724  14.481 -0.3020 -0.1383  0.8111
 9195TIP3    H249001   6.209   1.826  14.577 -0.0506  1.1418 -0.3575
 9196TIP3   OH249002   6.591   5.377  11.261 -0.7424  0.3188 -0.0425
 9196TIP3    H149003   6.560   5.398  11.173 -1.5817  2.9313  0.7929
 9196TIP3    H249004   6.686   5.384  11.255 -0.5666 -1.8863 -1.2165
 9197TIP3   OH249005   6.395   1.144  16.809 -0.8202 -0.0884  0.8014
 9197TIP3    H149006   6.335   1.109  16.875 -1.0485 -2.8986 -0.7416
 9197TIP3    H249007   6.375   1.095  16.729  1.8153  0.6748 -0.4638
 9198TIP3   OH249008   5.073   5.917   1.139  0.3534 -0.4754 -0.5501
 9198TIP3    H149009   5.010   5.932   1.209  1.5281 -0.2623  0.4944
 9198TIP3    H249010   5.023   5.871   1.072 -0.6192 -1.3408  0.7163
 9199TIP3   OH249011   2.903   1.821  11.307 -0.3694  0.7732  0.4123
 9199TIP3    H149012   2.856   1.794  11.228 -0.7790  2.7906 -0.0921
 9199TIP3    H249013   2.984   1.861  11.274  0.7123 -0.6633  1.1795
 9200TIP3   OH249014   4.908   4.684  16.545 -0.3663 -0.7525  0.4762
 9200TIP3    H149015   4.964   4.686  16.623  1.5685  1.0696 -0.8451
 9200TIP3    H249016   4.920   4.597  16.509  2.4229 -0.1748 -0.2345
 9201TIP3   OH249017   1.763   1.711   3.311 -0.8246 -0.1358  0.2704
 9201TIP3    H149018   1.688   1.767   3.332 -0.1268  1.3491 -0.9928
 9201TIP3    H249019   1.768   1.712   3.216  0.9659  0.0246  0.3291
 9202TIP3   OH249020   0.482   6.308  13.026 -0.3575 -0.6185 -0.0440
 9202TIP3    H149021   0.496   6.397  13.057  0.1694 -1.0557  1.0278
 9202TIP3    H249022   0.570   6.276  13.004 -0.5892 -0.7390 -0.8132
 9203TIP3   OH249023   5.579   3.067  11.132  0.0263  0.1191 -0.0310
 9203TIP3    H149024   5.556   2.977  11.152 -0.8466  0.7507  2.1100
 9203TIP3    H249025   5.498   3.107  11.102 -0.2045  0.7429  1.3284
 9204TIP3   OH249026   5.325   3.275  15.700  0.2693  0.1083  0.1024
 9204TIP3    H149027   5.377   3.260  15.779 -0.5481  1.6848  0.9854
 9204TIP3    H249028   5.389   3.281  15.630  1.2486  1.3747  1.0693
 9205TIP3   OH249029   5.768   1.178  15.013  0.3261  0.1341  0.3766
 9205TIP3    H149030   5.701   1.209  15.073  1.3705  1.0653  1.0943
 9205TIP3    H249031   5.746   1.086  14.998  0.0643 -0.1413  2.2157
 9206TIP3   OH249032   5.251   1.309  12.940  0.1516  0.0027  0.2442
 9206TIP3    H149033   5.193   1.288  13.013  1.6386 -2.9386  0.7175
 9206TIP3    H249034   5.316   1.369  12.977 -0.3214  0.2222  0.7312
 9207TIP3   OH249035   0.147   4.771  11.213  0.6916  0.3858  0.5349
 9207TIP3    H149036   0.120   4.710  11.281  0.2872  0.2483  0.2549
 9207TIP3    H249037   0.185   4.715  11.144 -0.6033  0.3324 -0.1742
 9208TIP3   OH249038   4.326   4.436   2.237  0.1467 -0.4203  0.4656
 9208TIP3    H149039   4.297   4.392   2.317  1.3765 -0.3114  0.9848
 9208TIP3    H249040   4.291   4.381   2.166  0.5661 -1.5246  1.0895
 9209TIP3   OH249041   4.661   2.690   2.282  0.4482 -0.0991  0.4238
 9209TIP3    H149042   4.584   2.664   2.231  0.5244 -0.5750  0.5531
 9209TIP3    H249043   4.627   2.707   2.370  0.4079  0.1871  0.3540
 9210TIP3   OH249044   3.554   1.798  13.668 -0.6815 -0.2206 -0.2661
 9210TIP3    H149045   3.561   1.763  13.756 -0.6236 -0.7235 -0.4653
 9210TIP3    H249046   3.558   1.893  13.679 -0.1806 -0.2959  0.2217
 9211TIP3   OH249047   3.404   1.564  11.179 -0.5121 -0.0184 -0.2059
 9211TIP3    H149048   3.467   1.626  11.142 -1.0296 -0.6137 -2.2464
 9211TIP3    H249049   3.325   1.615  11.194 -0.5169  0.1074 -0.6355
 9212TIP3   OH249050   4.640   0.306  13.193  0.2018  0.4103 -0.3808
 9212TIP3    H149051   4.687   0.250  13.255  0.9643  1.0889 -0.3210
 9212TIP3    H249052   4.612   0.246  13.124  0.6665 -0.1088 -0.1328
 9213TIP3   OH249053   6.566   0.836   0.996  0.1258  0.1533 -0.1962
 9213TIP3    H149054   6.535   0.903   1.057  2.0179  2.5607 -1.7059
 9213TIP3    H249055   6.581   0.883   0.914 -0.1442 -2.5186 -1.9011
 9214TIP3   OH249056   0.309   1.227  17.501  0.2809  0.3568  0.4095
 9214TIP3    H149057   0.225   1.255  17.464 -0.6449 -1.0781  1.3286
 9214TIP3    H249058   0.349   1.307  17.534 -0.2669  1.2061 -0.9396
 9215TIP3   OH249059   5.504   3.087  13.850  0.3852  0.2399  0.5543
 9215TIP3    H149060   5.583   3.112  13.899  0.7976  1.0055 -0.4595
 9215TIP3    H249061   5.433   3.133  13.894  0.6603  0.4168  0.8209
 9216TIP3   OH249062   0.659   1.481  12.777  0.4153 -0.5374  0.2741
 9216TIP3    H149063   0.645   1.388  12.758 -0.7129 -0.1674 -0.9016
 9216TIP3    H249064   0.587   1.525  12.732  0.5886  0.8697  1.3029
 9217TIP3   OH249065   3.528   5.587  16.524  0.7990  0.4982 -0.4441
 9217TIP3    H149066   3.470   5.514  16.501  1.4671 -0.0091 -0.5378
 9217TIP3    H249067   3.473   5.665  16.514  0.0715  0.0101 -0.3230
 9218TIP3   OH249068   1.982   4.908  17.273 -0.3136  0.1322  0.4412
 9218TIP3    H149069   1.947   4.851  17.204 -0.7483  0.1191  0.6631
 9218TIP3    H249070   1.944   4.994  17.254  0.9279  0.5328 -0.3239
 9219TIP3   OH249071   5.150   2.929  14.209 -0.1490 -0.3513  0.2870
 9219TIP3    H149072   5.177   2.893  14.124 -1.1754 -0.4249 -0.0174
 9219TIP3    H249073   5.232   2.935  14.259  0.9074  1.9763 -1.5193
 9220TIP3   OH249074   0.133   1.557  17.367  0.0193  0.3598 -0.2057
 9220TIP3    H149075   0.222   1.522  17.362 -0.2096 -0.0446 -3.0924
 9220TIP3    H249076   0.081   1.484  17.401  0.8339  0.8806  2.3876
 9221TIP3   OH249077   2.362   3.539   0.433 -0.9317 -0.0366 -0.3258
 9221TIP3    H149078   2.439   3.484   0.415  0.5593  1.0937  2.0347
 9221TIP3    H249079   2.323   3.500   0.511 -1.4832  0.6555 -0.2469
 9222TIP3   OH249080   1.653   1.633   0.027  0.1055  0.0942 -0.4371
 9222TIP3    H149081   1.691   1.616  -0.059 -0.0823 -1.4001 -0.2530
 9222TIP3    H249082   1.711   1.588   0.088  0.2764  1.2148  0.2276
 9223TIP3   OH249083   2.206   4.253  13.199 -0.1837 -0.2180 -0.1248
 9223TIP3    H149084   2.142   4.236  13.268  1.0905  0.1519  1.2015
 9223TIP3    H249085   2.208   4.172  13.147 -0.2475 -0.9963  1.0461
 9224TIP3   OH249086   4.432   0.703   3.535  0.0995 -0.3338  0.3054
 9224TIP3    H149087   4.489   0.696   3.612  1.8297 -0.5606 -0.9554
 9224TIP3    H249088   4.352   0.743   3.569 -0.1860 -2.6619  2.7243
 9225TIP3   OH249089   1.248   3.111  13.554 -0.1050 -0.2052  0.1284
 9225TIP3    H149090   1.321   3.173  13.557 -0.3005  0.0067  0.7963
 9225TIP3    H249091   1.277   3.043  13.493 -0.0757  0.7626 -0.9669
 9226TIP3   OH249092   5.871   5.589  16.645 -0.6205  0.1870  0.1853
 9226TIP3    H149093   5.962   5.567  16.624  0.3609  3.4292  0.4795
 9226TIP3    H249094   5.833   5.507  16.677  1.4486 -1.8576 -2.2080
 9227TIP3   OH249095   5.972   4.488  14.166  0.4615  0.1136  0.1925
 9227TIP3    H149096   5.994   4.396  14.184  0.0349 -0.4718 -1.9157
 9227TIP3    H249097   6.010   4.504  14.079  0.8078  2.0567  0.6709
 9228TIP3   OH249098   1.684   1.416   2.143 -0.0011 -0.4722  0.0572
 9228TIP3    H149099   1.606   1.361   2.140  0.4384 -1.0796 -0.7609
 9228TIP3    H249100   1.654   1.499   2.180 -0.9050 -0.8878  0.2849
 9229TIP3   OH249101   2.972   3.782   3.450 -0.5355  0.0266  0.8558
 9229TIP3    H149102   2.969   3.687   3.452  2.1347 -0.2277 -1.3402
 9229TIP3    H249103   3.065   3.804   3.455 -0.9890  2.4395  0.1896
 9230TIP3   OH249104   2.475   2.085   5.546  0.1676 -0.0662 -0.2174
 9230TIP3    H149105   2.547   2.128   5.499  1.0393  0.9213  1.9206
 9230TIP3    H249106   2.514   2.055   5.627 -1.4321 -1.2020  0.1663
 9231TIP3   OH249107   2.148   4.180   5.267  0.5681 -0.2596 -0.0674
 9231TIP3    H149108   2.241   4.163   5.259  1.0422  1.3473  1.2998
 9231TIP3    H249109   2.135   4.197   5.361 -1.3443 -1.6643 -0.0172
 9232TIP3   OH249110   4.060   3.356   6.447  0.1182  0.2262  0.2841
 9232TIP3    H149111   4.073   3.294   6.375 -0.3858  0.4257  0.0158
 9232TIP3    H249112   4.043   3.439   6.404  1.9247  0.8249  0.6340
 9233TIP3   OH249113   0.052   4.403  15.464 -0.2873  0.9469  0.5510
 9233TIP3    H149114  -0.031   4.440  15.496 -1.7870 -0.6080 -1.2520
 9233TIP3    H249115   0.025   4.327  15.412  2.1786  1.2467 -1.3468
 9234TIP3   OH249116   5.460   5.892   4.309  0.3676 -0.2691  0.0447
 9234TIP3    H149117   5.430   5.805   4.285  0.7196 -0.2882 -0.3460
 9234TIP3    H249118   5.554   5.882   4.323  0.4993  0.1424 -0.4928
 9235TIP3   OH249119   4.939   3.787  12.373 -0.2389  0.1689 -0.5811
 9235TIP3    H149120   4.924   3.782  12.278  3.3758 -0.0578 -1.2937
 9235TIP3    H249121   4.942   3.881  12.391  1.4823  0.2934 -1.2673
 9236TIP3   OH249122   3.380   6.695   2.956  0.2808  0.7772  0.1336
 9236TIP3    H149123   3.403   6.721   3.045  0.6237  0.8265  0.0317
 9236TIP3    H249124   3.457   6.718   2.904  0.6589 -0.5534  0.0583
 9237TIP3   OH249125   6.279   6.444  12.133 -0.2170 -0.0941 -0.0643
 9237TIP3    H149126   6.358   6.454  12.080 -0.4669 -1.8977 -0.8362
 9237TIP3    H249127   6.305   6.470  12.221  1.7461 -2.2909  0.0841
 9238TIP3   OH249128   0.752   4.669   4.707  0.1886 -0.2725  0.1137
 9238TIP3    H149129   0.754   4.731   4.634  0.6758 -0.4759 -0.0551
 9238TIP3    H249130   0.716   4.589   4.669 -1.2582  0.1592  0.5418
 9239TIP3   OH249131   0.892   6.151   0.405  0.6889  0.2989  0.3380
 9239TIP3    H149132   0.927   6.228   0.359 -0.7438  0.7262 -0.0777
 9239TIP3    H249133   0.919   6.164   0.496  2.8780 -0.1550 -0.1846
 9240TIP3   OH249134   4.048   2.243  16.558 -0.2516 -0.0311 -0.3549
 9240TIP3    H149135   4.048   2.242  16.462 -1.3183 -1.1155 -0.3648
 9240TIP3    H249136   4.093   2.325  16.581 -0.0561  0.2849 -1.7757
 9241TIP3   OH249137   5.281   1.420   2.998 -0.0063  0.1141  0.2070
 9241TIP3    H149138   5.303   1.327   3.001  0.7508  0.2829  0.0557
 9241TIP3    H249139   5.287   1.450   3.088 -0.6256 -0.0576  0.3144
 9242TIP3   OH249140   2.010   5.321  14.363 -0.1567 -0.0197  0.0936
 9242TIP3    H149141   2.030   5.369  14.282 -0.3716  0.7328  0.4712
 9242TIP3    H249142   1.916   5.336  14.376 -0.5742 -1.8367 -0.5913
 9243TIP3   OH249143   6.351   4.775  11.427 -0.2075 -0.0007 -0.1077
 9243TIP3    H149144   6.411   4.765  11.353  0.8518  0.8231  0.6219
 9243TIP3    H249145   6.305   4.857  11.410  0.1163  0.2456  0.2002
 9244TIP3   OH249146   2.354   6.081   2.181 -0.2138  0.9886 -1.0097
 9244TIP3    H149147   2.285   6.143   2.155 -1.1805 -0.2273 -1.4201
 9244TIP3    H249148   2.391   6.050   2.098 -1.5849 -0.9920 -0.9525
 9245TIP3   OH249149   3.165   4.748  13.997  0.0645  0.4134 -0.2780
 9245TIP3    H149150   3.250   4.780  13.965 -1.4225  1.6315 -3.3565
 9245TIP3    H249151   3.133   4.820  14.052  1.1203 -0.2385  1.2846
 9246TIP3   OH249152   1.805   4.607  12.273  0.0794  0.1031  0.4660
 9246TIP3    H149153   1.767   4.531  12.316 -0.6262  0.9554  1.4058
 9246TIP3    H249154   1.777   4.601  12.182  0.2521 -0.8804  0.4720
 9247TIP3   OH249155   6.140   4.103  14.672  0.3014  0.1549  0.3522
 9247TIP3    H149156   6.208   4.171  14.672  1.3352 -0.7745  2.8597
 9247TIP3    H249157   6.121   4.088  14.764 -2.2694 -0.7041 -0.2459
 9248TIP3   OH249158   1.541   5.900  11.220  0.1454  0.0269 -0.0388
 9248TIP3    H149159   1.458   5.935  11.249  0.3216  2.5371 -2.1904
 9248TIP3    H249160   1.518   5.831  11.158 -0.2735 -0.4040  0.5880
 9249TIP3   OH249161   4.702   6.706  13.657 -0.0329  0.0865  0.4166
 9249TIP3    H149162   4.763   6.713  13.730  3.1462 -0.4483 -1.9334
 9249TIP3    H249163   4.733   6.772  13.594 -0.9175 -1.2199 -1.4930
 9250TIP3   OH249164   3.427   4.907   2.097  0.3469  0.0529  0.1876
 9250TIP3    H149165   3.465   4.842   2.038 -0.5440 -2.3029  2.0335
 9250TIP3    H249166   3.502   4.959   2.126  1.1719 -0.4132 -1.0195
 9251TIP3   OH249167   6.273   3.623   0.237 -0.2362 -0.1336  0.0330
 9251TIP3    H149168   6.266   3.613   0.332 -1.5128  2.1628  0.2582
 9251TIP3    H249169   6.277   3.534   0.203  1.3447 -1.0123  2.2847
 9252TIP3   OH249170   4.742   1.533  16.096  0.1184  0.7128 -0.2814
 9252TIP3    H149171   4.801   1.460  16.114  0.2213  1.1076  1.0843
 9252TIP3    H249172   4.783   1.580  16.024  0.3378 -0.2448 -0.7991
 9253TIP3   OH249173   1.987   3.982   2.104 -0.2698  0.4660 -0.4217
 9253TIP3    H149174   1.898   3.947   2.112 -0.7755  1.9852  1.1162
 9253TIP3    H249175   1.976   4.077   2.107  1.3768  0.6936 -0.7458
 9254TIP3   OH249176   0.354   2.816  16.660  0.3796 -0.0351 -0.0321
 9254TIP3    H149177   0.276   2.791  16.609  0.4145  0.9810 -0.6171
 9254TIP3    H249178   0.327   2.806  16.751 -0.0327 -0.8690 -0.2307
 9255TIP3   OH249179   3.858   1.748   4.806  0.4472  0.4391 -0.2137
 9255TIP3    H149180   3.813   1.750   4.722 -0.8035  1.1412  0.4474
 9255TIP3    H249181   3.908   1.666   4.805 -1.8104 -1.0019 -0.4737
 9256TIP3   OH249182   1.999   3.429  11.148  0.4068 -0.5651 -0.0852
 9256TIP3    H149183   1.949   3.406  11.071 -0.1322 -0.8405  0.3389
 9256TIP3    H249184   2.034   3.516  11.129  0.4463 -0.7130 -0.7108
 9257TIP3   OH249185   6.402   2.693   1.529  0.0349  0.8496 -0.1667
 9257TIP3    H149186   6.450   2.772   1.552 -1.2058  1.2897  1.0326
 9257TIP3    H249187   6.466   2.622   1.541  0.8338  1.5628 -0.1592
 9258TIP3   OH249188   1.044   4.474   4.020 -0.3614 -0.6977 -0.3327
 9258TIP3    H149189   1.121   4.513   4.061 -1.0106 -0.5387  0.7516
 9258TIP3    H249190   1.055   4.380   4.036 -0.2307 -0.7072 -0.4712
 9259TIP3   OH249191   2.282   3.962   2.699  0.0923 -0.4882  0.5665
 9259TIP3    H149192   2.247   3.888   2.649  2.5605 -2.2635  1.2450
 9259TIP3    H249193   2.287   3.929   2.789 -1.0820  1.4367  1.3805
 9260TIP3   OH249194   1.869   1.643   3.810 -0.0149 -0.4363  0.3093
 9260TIP3    H149195   1.791   1.596   3.839 -0.6356  1.0611  1.1999
 9260TIP3    H249196   1.839   1.694   3.735  0.2139 -0.1837  0.3878
 9261TIP3   OH249197   2.066   3.101   1.200 -0.4960 -0.4034 -0.3576
 9261TIP3    H149198   2.083   3.068   1.288 -0.2645  0.0093 -0.2405
 9261TIP3    H249199   2.005   3.038   1.161 -1.9792  0.3225  0.7020
 9262TIP3   OH249200   2.744   3.643  14.836  0.3076  0.0387  0.0663
 9262TIP3    H149201   2.675   3.684  14.888  0.5444 -0.9335  1.1868
 9262TIP3    H249202   2.825   3.675  14.875  0.4964  0.2657 -0.5052
 9263TIP3   OH249203   4.086   1.177  15.413  0.3987  0.3115  0.0399
 9263TIP3    H149204   4.092   1.144  15.503  1.9138 -1.4251 -0.6328
 9263TIP3    H249205   4.077   1.098  15.359  2.7125  1.0325 -1.5433
 9264TIP3   OH249206   0.764   5.215   5.269  0.3291 -0.3815  0.0957
 9264TIP3    H149207   0.718   5.219   5.353 -0.5297 -0.9727 -0.3384
 9264TIP3    H249208   0.857   5.208   5.293  0.0932 -0.5115  0.9986
 9265TIP3   OH249209   2.558   1.830  11.195  0.2480  0.3397 -0.0674
 9265TIP3    H149210   2.594   1.814  11.108 -0.9082 -0.5855 -0.4028
 9265TIP3    H249211   2.532   1.922  11.194 -1.0423 -0.0052 -1.2108
 9266TIP3   OH249212   3.306   5.215   1.062  0.4176  0.3287 -0.1149
 9266TIP3    H149213   3.287   5.156   0.990 -1.5758  0.2999  0.3877
 9266TIP3    H249214   3.389   5.184   1.097 -0.9775 -2.7985  0.7269
 9267TIP3   OH249215   6.311   5.381   5.527  0.4069 -0.2381  0.1924
 9267TIP3    H149216   6.221   5.359   5.552  0.2755 -1.0603 -0.9411
 9267TIP3    H249217   6.366   5.332   5.588  0.0837 -1.2857 -0.3331
 9268TIP3   OH249218   2.021   6.150  16.842 -0.2998  0.4756 -0.3443
 9268TIP3    H149219   2.089   6.114  16.898 -1.8360 -1.8957  0.1573
 9268TIP3    H249220   2.058   6.149  16.754 -0.2152 -2.5612 -0.3714
 9269TIP3   OH249221   3.475   6.712  11.346 -0.8124 -0.0599 -0.3203
 9269TIP3    H149222   3.472   6.661  11.265 -0.9326 -2.4394  1.0810
 9269TIP3    H249223   3.553   6.681  11.392 -1.2091  0.6031  0.8535
 9270TIP3   OH249224   4.862   5.284  13.165  0.3516  0.4245  0.0531
 9270TIP3    H149225   4.920   5.283  13.089 -1.8885  0.4596 -1.7510
 9270TIP3    H249226   4.862   5.375  13.194 -1.3582  1.2191 -2.1132
 9271TIP3   OH249227   6.558   5.233  15.560 -0.4565  0.3558 -0.4519
 9271TIP3    H149228   6.481   5.213  15.614 -0.5061 -0.8585 -0.9438
 9271TIP3    H249229   6.569   5.156  15.504  0.8629  0.6961 -0.6969
 9272TIP3   OH249230   1.161   4.837  12.940  0.2989  0.4745 -0.0442
 9272TIP3    H149231   1.129   4.898  12.874 -0.0774 -0.9066 -1.1938
 9272TIP3    H249232   1.112   4.860  13.019 -1.5709  0.1711 -1.0628
 9273TIP3   OH249233   3.654   5.660  11.668  0.2730  0.1166  0.3610
 9273TIP3    H149234   3.726   5.691  11.723  0.4176 -0.3079  0.4174
 9273TIP3    H249235   3.659   5.714  11.589 -0.6600  1.5520  1.2186
 9274TIP3   OH249236   4.600   0.485   2.900  0.0592 -0.4991 -0.3759
 9274TIP3    H149237   4.630   0.394   2.899 -1.7755 -1.1863  1.0004
 9274TIP3    H249238   4.638   0.523   2.821  2.0329 -2.0457 -0.2575
 9275TIP3   OH249239   2.955   1.783   4.081 -0.5346 -0.6055 -0.4869
 9275TIP3    H149240   3.033   1.798   4.133 -1.1958 -0.9829  0.6451
 9275TIP3    H249241   2.967   1.837   4.003 -0.0454  0.8748  0.5865
 9276TIP3   OH249242   1.832   5.623  14.215  0.4877  0.2677  0.4023
 9276TIP3    H149243   1.916   5.604  14.174  0.1811  0.1408 -0.1881
 9276TIP3    H249244   1.816   5.715  14.197  0.3637  0.2171  0.2404
 9277TIP3   OH249245   1.463   3.666   0.791  0.1190  0.5277 -0.4454
 9277TIP3    H149246   1.537   3.711   0.750 -0.4293  1.4656 -0.4213
 9277TIP3    H249247   1.411   3.735   0.830  0.1320 -0.2672  1.0467
 9278TIP3   OH249248   4.465   4.205  15.888 -0.5526 -0.0196 -0.5804
 9278TIP3    H149249   4.391   4.252  15.849  0.0148  0.2269 -1.3840
 9278TIP3    H249250   4.522   4.183  15.814  1.5233  2.1390  0.2465
 9279TIP3   OH249251   3.529   1.152   1.503 -0.1217 -0.5700 -0.0951
 9279TIP3    H149252   3.467   1.139   1.432  1.6383 -1.6297 -1.5352
 9279TIP3    H249253   3.496   1.228   1.551 -1.8272 -0.3506 -1.5218
 9280TIP3   OH249254   1.751   2.149   3.637 -0.2569  0.5398  0.0716
 9280TIP3    H149255   1.816   2.082   3.656  2.3181  2.9187  0.3265
 9280TIP3    H249256   1.738   2.144   3.542  2.6897  1.8678 -0.5258
 9281TIP3   OH249257   2.270   4.593  15.409 -0.3672 -0.2517 -0.1227
 9281TIP3    H149258   2.231   4.665  15.359 -1.4281 -0.1049  0.8617
 9281TIP3    H249259   2.207   4.576  15.480  1.7446  0.5495  2.0794
 9282TIP3   OH249260   5.842   3.229  14.521  0.2425  0.2354  0.4672
 9282TIP3    H149261   5.907   3.281  14.474 -1.0563 -0.6558 -2.6062
 9282TIP3    H249262   5.893   3.172  14.578  2.1211  0.2214 -1.1068
 9283TIP3   OH249263   3.608   6.506  13.364 -0.2650  0.6409 -0.2875
 9283TIP3    H149264   3.526   6.490  13.316  0.6194  0.5540 -1.8216
 9283TIP3    H249265   3.668   6.539  13.298  1.1546  0.0709  0.6799
 9284TIP3   OH249266   5.864   5.169   0.867 -0.6440 -0.1183 -0.1971
 9284TIP3    H149267   5.802   5.175   0.794 -0.6903 -1.5049 -0.2910
 9284TIP3    H249268   5.950   5.167   0.825 -0.6577 -0.6191 -0.2103
 9285TIP3   OH249269   1.205   1.329  12.335 -0.2806 -0.2668 -0.6330
 9285TIP3    H149270   1.196   1.272  12.412 -1.8795 -0.5258 -0.9877
 9285TIP3    H249271   1.283   1.296  12.290  1.5870  0.7938  1.5954
 9286TIP3   OH249272   5.981   2.135   0.748  0.4920  1.0684 -0.7648
 9286TIP3    H149273   6.071   2.134   0.782  0.6473  0.2472 -1.1727
 9286TIP3    H249274   5.968   2.226   0.720  1.5398  1.0009 -1.5523
 9287TIP3   OH249275   1.589   0.472  11.623  0.1316  0.3150 -0.8224
 9287TIP3    H149276   1.617   0.513  11.705 -1.0084  0.3190 -0.4164
 9287TIP3    H249277   1.662   0.487  11.563  0.1336  2.1802 -0.4305
 9288TIP3   OH249278   0.185   2.724  13.805 -0.1778 -0.1122  0.3484
 9288TIP3    H149279   0.257   2.731  13.743  0.6802  0.3026  1.3545
 9288TIP3    H249280   0.181   2.630  13.827 -1.4830 -0.5241 -1.4277
 9289TIP3   OH249281   0.104   1.527  13.329 -0.2864 -0.5666  0.7951
 9289TIP3    H149282   0.125   1.613  13.292 -0.8902  0.2572  2.2789
 9289TIP3    H249283   0.177   1.507  13.387 -0.3085 -0.8978  0.7118
 9290TIP3   OH249284   3.393   4.195   3.672  0.4333 -0.3786 -0.1819
 9290TIP3    H149285   3.320   4.258   3.667  0.7410 -0.0172 -0.1281
 9290TIP3    H249286   3.351   4.112   3.694  0.0669 -0.1133  0.1416
 9291TIP3   OH249287   2.153   0.109  15.530  0.0916 -0.6338  0.3090
 9291TIP3    H149288   2.238   0.115  15.574  0.0042 -1.2383  0.5740
 9291TIP3    H249289   2.096   0.166  15.582  0.4181  0.0660 -0.0881
 9292TIP3   OH249290   1.990   5.342  13.899 -0.0515 -0.1816 -0.1640
 9292TIP3    H149291   1.937   5.267  13.925 -0.1552  0.0492  0.3140
 9292TIP3    H249292   1.943   5.381  13.826 -0.1314 -0.4378 -0.2479
 9293TIP3   OH249293   3.464   3.111   6.097 -0.0906  0.1579  0.0326
 9293TIP3    H149294   3.505   3.136   6.015 -0.0118 -0.3182 -0.0792
 9293TIP3    H249295   3.414   3.188   6.124  1.4348  1.0075  0.5360
 9294TIP3   OH249296   1.767   2.782  13.113 -0.0192 -0.6195 -1.0331
 9294TIP3    H149297   1.771   2.752  13.204 -0.2694 -1.6921 -1.3736
 9294TIP3    H249298   1.857   2.773  13.081  1.4573  4.4999  0.5190
 9295TIP3   OH249299   4.415   0.683   0.547  0.2187  0.0718  0.3670
 9295TIP3    H149300   4.327   0.649   0.564  0.3068  0.1492  1.0323
 9295TIP3    H249301   4.411   0.775   0.573  0.5398  0.0319  0.5736
 9296TIP3   OH249302   6.214   2.902   2.122  0.5841  0.1737 -0.1145
 9296TIP3    H149303   6.131   2.899   2.074  0.2724  0.5438  0.3961
 9296TIP3    H249304   6.210   2.826   2.180  1.3923 -0.8555 -1.3483
 9297TIP3   OH249305   2.240   4.645   0.932 -0.3732 -0.7486  0.1062
 9297TIP3    H149306   2.183   4.712   0.971  1.2764  1.9658 -1.8162
 9297TIP3    H249307   2.183   4.597   0.872 -1.3025 -0.0819  0.4382
 9298TIP3   OH249308   2.333   2.016  12.553 -0.7848 -0.4489  0.1870
 9298TIP3    H149309   2.271   1.977  12.490 -1.4209 -1.5749  1.4543
 9298TIP3    H249310   2.335   1.954  12.626  1.3965 -0.1275  0.4665
 9299TIP3   OH249311   0.697   5.420  12.147  0.2788  0.7715 -0.5131
 9299TIP3    H149312   0.612   5.380  12.129  0.2063  0.8393 -0.3240
 9299TIP3    H249313   0.718   5.393  12.236  0.9484 -0.1194 -0.9284
 9300TIP3   OH249314   6.312   1.730   1.912 -0.3633 -0.5583  0.0973
 9300TIP3    H149315   6.294   1.812   1.959  1.1721  0.7195 -1.4217
 9300TIP3    H249316   6.226   1.690   1.900 -1.0130  0.1735  1.9933
 9301TIP3   OH249317   1.365   3.462  17.171  0.8533  0.3100 -0.3106
 9301TIP3    H149318   1.306   3.507  17.110  1.3714  0.4957 -0.6889
 9301TIP3    H249319   1.378   3.524  17.242  2.3533  1.2116 -1.3079
 9302TIP3   OH249320   0.852   5.653   1.896  0.0773  0.2743  0.3059
 9302TIP3    H149321   0.815   5.595   1.963 -0.8703  1.1977  0.6048
 9302TIP3    H249322   0.921   5.701   1.941 -0.6921  1.0381  0.6879
 9303TIP3   OH249323   0.433   2.301   5.137  0.2822  0.2799 -0.2797
 9303TIP3    H149324   0.417   2.349   5.056 -0.0169  2.1538  0.8336
 9303TIP3    H249325   0.352   2.311   5.187  0.2899 -1.2463  0.0762
 9304TIP3   OH249326   0.681   4.767  16.005 -0.0879 -0.2376 -0.2781
 9304TIP3    H149327   0.699   4.754  15.912 -0.6386 -1.3950 -0.2332
 9304TIP3    H249328   0.677   4.679  16.042 -1.2377  0.1396  0.5776
 9305TIP3   OH249329   6.270   2.432  15.083  0.2142 -0.5934 -0.3113
 9305TIP3    H149330   6.274   2.430  15.179 -0.5669 -0.7475 -0.2705
 9305TIP3    H249331   6.338   2.371  15.055  0.1223 -0.9216  0.1580
 9306TIP3   OH249332   1.760   6.296  14.812  0.1594  0.3465 -0.6175
 9306TIP3    H149333   1.708   6.238  14.868  0.2842  1.3169  0.5396
 9306TIP3    H249334   1.695   6.348  14.765  0.0492  1.3182  0.5696
 9307TIP3   OH249335   3.874   3.117   4.371  0.3017  0.1154 -0.0212
 9307TIP3    H149336   3.835   3.187   4.318  1.4629  0.7836 -0.0284
 9307TIP3    H249337   3.967   3.140   4.376  0.7652 -1.5892 -0.2508
 9308TIP3   OH249338   3.688   5.577   5.695  0.1314  0.1111  0.4275
 9308TIP3    H149339   3.777   5.544   5.686 -0.0420 -0.4438  0.6541
 9308TIP3    H249340   3.683   5.609   5.785  0.1090  0.1599  0.4086
 9309TIP3   OH249341   3.183   5.047   4.334 -0.0898 -0.1190  0.6596
 9309TIP3    H149342   3.253   5.047   4.269 -0.9402  1.4097 -0.3200
 9309TIP3    H249343   3.135   5.129   4.318 -2.2376 -1.1937  1.1248
 9310TIP3   OH249344   1.303   4.574   5.953 -0.0259  0.4881 -0.4443
 9310TIP3    H149345   1.297   4.517   6.029 -0.2996  0.8005 -0.2251
 9310TIP3    H249346   1.359   4.646   5.982 -0.9218  1.1064 -0.2106
 9311TIP3   OH249347   3.474   5.270  12.402  0.3291 -0.2731 -0.2350
 9311TIP3    H149348   3.476   5.270  12.306 -0.5902  0.0190 -0.2665
 9311TIP3    H249349   3.383   5.248  12.424  0.7383 -1.2175  0.5838
 9312TIP3   OH249350   1.159   1.264   4.741  0.3761  0.2743 -0.1300
 9312TIP3    H149351   1.127   1.212   4.814  2.0669  1.2033  1.3610
 9312TIP3    H249352   1.114   1.229   4.664  0.3927 -2.4232  0.9830
 9313TIP3   OH249353   1.302   0.141  14.365 -0.1820  0.4673 -0.0770
 9313TIP3    H149354   1.387   0.168  14.399 -0.3627  0.7842  0.1337
 9313TIP3    H249355   1.317   0.124  14.273  0.2865 -0.2722  0.1309
 9314TIP3   OH249356   6.610   5.173   1.068 -0.5527 -0.1851  0.5106
 9314TIP3    H149357   6.537   5.124   1.106  0.6636 -1.2368  1.5804
 9314TIP3    H249358   6.587   5.265   1.081 -1.1683 -0.5090  1.8660
 9315TIP3   OH249359   0.904   1.542  16.724 -0.4248 -0.4542  0.2385
 9315TIP3    H149360   0.901   1.451  16.695  3.1513 -0.1809 -1.5101
 9315TIP3    H249361   0.888   1.593  16.645  0.0561  0.4209  0.6974
 9316TIP3   OH249362   5.260   6.004  16.147  0.0081  0.3871  0.1411
 9316TIP3    H149363   5.356   6.006  16.150  0.0013  0.2673  0.5979
 9316TIP3    H249364   5.237   5.912  16.157 -0.1550  0.4103 -0.0094
 9317TIP3   OH249365   3.475   1.689   3.476 -0.1176 -0.4639  0.1642
 9317TIP3    H149366   3.380   1.686   3.487  0.0511 -0.6357  1.8056
 9317TIP3    H249367   3.509   1.642   3.552  1.3378  1.3490  0.6913
 9318TIP3   OH249368   0.015   2.644  16.303 -0.3098 -0.7691  0.0621
 9318TIP3    H149369   0.053   2.683  16.224 -1.2693  0.6355  0.2668
 9318TIP3    H249370   0.040   2.551  16.298  0.0154 -0.6170 -1.6519
 9319TIP3   OH249371   1.793   5.899  13.260  0.1403  0.9523  0.3854
 9319TIP3    H149372   1.764   5.809  13.277  3.3952 -0.3548 -0.3386
 9319TIP3    H249373   1.751   5.922  13.177 -0.6336  0.0676  0.5191
 9320TIP3   OH249374   4.641   3.022   5.534  0.2773  0.4801 -0.3237
 9320TIP3    H149375   4.603   2.960   5.472 -0.8406  1.1814 -0.3805
 9320TIP3    H249376   4.585   3.100   5.527  0.9655  1.0776  0.5540
 9321TIP3   OH249377   2.587   1.328  13.083 -0.0995 -0.3094 -0.7537
 9321TIP3    H149378   2.678   1.299  13.084 -0.5547 -1.7937 -0.1051
 9321TIP3    H249379   2.540   1.264  13.137 -1.0837  1.9417  1.2899
 9322TIP3   OH249380   5.075   0.287  14.482 -0.0183  0.5329  0.3603
 9322TIP3    H149381   5.095   0.371  14.523  0.5829  0.7746 -0.4029
 9322TIP3    H249382   5.058   0.309  14.390 -2.3820  0.1511  0.6298
 9323TIP3   OH249383   0.069   4.120  14.724  0.5511  0.3331  0.0420
 9323TIP3    H149384   0.026   4.056  14.667  0.6970  1.3225 -1.2226
 9323TIP3    H249385   0.145   4.150  14.673 -0.2337  2.4516  0.0161
 9324TIP3   OH249386   6.730   5.220   4.816  0.1453 -0.4763 -0.2136
 9324TIP3    H149387   6.730   5.272   4.735 -3.5796  0.1079  0.0033
 9324TIP3    H249388   6.782   5.272   4.877  0.1942  0.7761 -1.2585
 9325TIP3   OH249389   5.860   4.801  13.517  0.0846  0.5242  0.6962
 9325TIP3    H149390   5.802   4.751  13.574  1.3260 -0.2490  1.3250
 9325TIP3    H249391   5.943   4.804  13.564  1.5823 -1.2970 -1.6340
 9326TIP3   OH249392   5.928   0.867   2.727 -0.2384 -0.1668  0.2795
 9326TIP3    H149393   5.955   0.882   2.636  2.3129  1.5706  1.2187
 9326TIP3    H249394   5.832   0.864   2.723 -0.2869  1.3986 -2.2580
 9327TIP3   OH249395   5.041   0.916   5.449 -0.2282 -0.4099  0.7607
 9327TIP3    H149396   5.003   0.850   5.507  0.4863 -0.1227  1.5826
 9327TIP3    H249397   5.028   0.999   5.496 -0.1477 -0.0986  0.2429
 9328TIP3   OH249398   1.636   2.881  16.042  0.4544  0.3785  0.6072
 9328TIP3    H149399   1.707   2.874  15.977  0.5092 -0.9176  0.7813
 9328TIP3    H249400   1.629   2.975  16.058  1.1933  0.6462 -0.4484
 9329TIP3   OH249401   1.911   5.831   2.969 -0.0002  0.0103  0.3661
 9329TIP3    H149402   1.923   5.897   2.901 -0.9090  0.6763  0.8312
 9329TIP3    H249403   1.997   5.788   2.976 -0.0713 -0.5500 -1.6454
 9330TIP3   OH249404   5.557   2.371   2.489 -0.2649 -0.1908  0.0206
 9330TIP3    H149405   5.647   2.346   2.466 -0.5491  0.0875 -1.5035
 9330TIP3    H249406   5.504   2.336   2.418 -1.1555  1.2094 -0.0423
 9331TIP3   OH249407   0.196   0.943   0.559  0.3867  0.4818  1.0255
 9331TIP3    H149408   0.219   0.988   0.478  2.9856 -1.4022  0.5713
 9331TIP3    H249409   0.268   0.962   0.619 -0.3576  0.0103  2.1041
 9332TIP3   OH249410   1.633   4.850  12.853 -0.4033  0.1364  0.0183
 9332TIP3    H149411   1.631   4.756  12.872 -2.7242 -0.4891 -2.5895
 9332TIP3    H249412   1.651   4.892  12.937  0.6059 -2.6189  1.2684
 9333TIP3   OH249413   0.523   0.102  13.037  0.5262 -0.1577 -0.3131
 9333TIP3    H149414   0.524   0.016  13.079 -0.8123 -0.4975 -0.9022
 9333TIP3    H249415   0.463   0.091  12.963 -1.4010  1.8070  0.8211
 9334TIP3   OH249416   4.314   5.015  13.208  0.0397  0.2022 -0.2809
 9334TIP3    H149417   4.293   5.000  13.116 -1.0199  3.0787 -0.6235
 9334TIP3    H249418   4.236   5.059  13.243  0.8038  0.0386  1.7441
 9335TIP3   OH249419   5.722   3.556  11.043  0.4963  0.3768  0.1039
 9335TIP3    H149420   5.799   3.534  10.991 -0.7193 -0.6263 -1.3680
 9335TIP3    H249421   5.713   3.484  11.105  0.7184  0.4826  0.2606
 9336TIP3   OH249422   4.708   6.569  14.816 -0.0152  0.1215 -0.2278
 9336TIP3    H149423   4.754   6.485  14.816 -0.2150 -0.0042  1.0056
 9336TIP3    H249424   4.623   6.549  14.777 -0.1923 -0.3377  0.3734
 9337TIP3   OH249425   6.275   1.702  16.270  0.0570  0.0554 -0.8358
 9337TIP3    H149426   6.301   1.775  16.214  0.3103  0.5512 -0.0846
 9337TIP3    H249427   6.322   1.717  16.352  0.5962 -1.2748 -0.8718
 9338TIP3   OH249428   3.482   4.438  17.351  0.0224  0.1869 -0.2778
 9338TIP3    H149429   3.418   4.374  17.320 -0.1833  0.5492 -0.6095
 9338TIP3    H249430   3.539   4.453  17.276  0.0333  0.4382 -0.2195
 9339TIP3   OH249431   6.708   1.787  13.484  0.3769  0.2052  0.5977
 9339TIP3    H149432   6.781   1.847  13.472  1.0034 -0.6296  0.0919
 9339TIP3    H249433   6.656   1.795  13.404  0.6294 -0.1390  0.3950
 9340TIP3   OH249434   0.668   4.549  17.048 -0.3257 -0.3052 -0.1624
 9340TIP3    H149435   0.707   4.464  17.025 -0.6863 -0.7920  0.9583
 9340TIP3    H249436   0.721   4.580  17.121 -0.4234  0.2661 -0.3334
 9341TIP3   OH249437   5.817   4.209  17.218 -0.7269 -0.7215  0.6222
 9341TIP3    H149438   5.873   4.155  17.273  0.4183  0.3993  0.6043
 9341TIP3    H249439   5.865   4.217  17.136 -1.2997 -0.3972  0.3083
 9342TIP3   OH249440   1.684   2.269   2.352  0.0442  0.4432  0.1777
 9342TIP3    H149441   1.648   2.340   2.406  0.1906  0.9445 -0.3638
 9342TIP3    H249442   1.608   2.235   2.305  0.0900  0.7527 -0.1273
 9343TIP3   OH249443   3.632   0.688   3.940  0.4845  0.1153  0.6171
 9343TIP3    H149444   3.636   0.605   3.987 -2.8970 -0.7535 -0.2942
 9343TIP3    H249445   3.566   0.673   3.872  0.7583  3.1385 -0.4597
 9344TIP3   OH249446   6.221   0.400   3.914 -0.0947  0.4863  0.5145
 9344TIP3    H149447   6.169   0.473   3.880  0.4830  0.4826 -0.4030
 9344TIP3    H249448   6.312   0.426   3.899  0.1120 -0.5481 -0.1049
 9345TIP3   OH249449   1.640   5.475  12.675  0.4138 -1.0237  0.7004
 9345TIP3    H149450   1.719   5.529  12.684 -1.0319  1.0283  1.6133
 9345TIP3    H249451   1.616   5.452  12.765 -1.5997  0.8058  0.7000
 9346TIP3   OH249452   4.144   2.653  14.222  0.4104 -0.3317  0.5467
 9346TIP3    H149453   4.141   2.647  14.318 -0.0776 -2.2350  0.4433
 9346TIP3    H249454   4.227   2.613  14.198  0.7342  0.5365  0.1763
 9347TIP3   OH249455   2.070   3.720  11.116 -0.5421 -0.5292 -0.0180
 9347TIP3    H149456   2.000   3.780  11.141  0.0405  1.2221 -2.2741
 9347TIP3    H249457   2.151   3.768  11.133 -0.0583 -0.7126 -1.5936
 9348TIP3   OH249458   0.357   4.269  15.120 -0.0503 -0.6129 -0.1974
 9348TIP3    H149459   0.332   4.231  15.205  0.9822 -0.1764  0.3239
 9348TIP3    H249460   0.329   4.204  15.056 -2.6459 -0.0884  0.2868
 9349TIP3   OH249461   2.888   1.337   1.208  0.0455  0.3940  0.4095
 9349TIP3    H149462   2.794   1.355   1.212 -0.2185 -0.8243 -0.0678
 9349TIP3    H249463   2.912   1.359   1.118  0.2200  0.6696  0.5212
 9350TIP3   OH249464   2.628   0.420  11.524  0.1076  0.0257 -0.4111
 9350TIP3    H149465   2.638   0.389  11.434  0.0452 -0.6397 -0.1999
 9350TIP3    H249466   2.692   0.368  11.574  1.4205  1.6401 -0.3341
 9351TIP3   OH249467   3.724   6.250   3.434 -0.2878  0.1554 -0.2597
 9351TIP3    H149468   3.678   6.206   3.363  0.3823  1.4391 -1.5461
 9351TIP3    H249469   3.811   6.269   3.398  0.4551 -0.1369  1.2972
 9352TIP3   OH249470   0.073   4.748  15.516 -0.1639  0.2166  0.0486
 9352TIP3    H149471   0.142   4.798  15.558  0.4074 -0.1447 -0.4379
 9352TIP3    H249472   0.059   4.673  15.574  1.5338 -0.9791 -0.9973
 9353TIP3   OH249473   1.229   0.470  14.368 -0.5676  0.3825 -0.3461
 9353TIP3    H149474   1.207   0.397  14.310  0.4239 -0.5912  0.4686
 9353TIP3    H249475   1.297   0.519  14.320 -0.2647 -0.0046 -0.3143
 9354TIP3   OH249476   1.218   2.522  15.550 -0.0246  0.6965 -0.2643
 9354TIP3    H149477   1.210   2.523  15.455 -1.3494  0.2010 -0.1727
 9354TIP3    H249478   1.276   2.448  15.568  0.4083  0.9249 -0.6833
 9355TIP3   OH249479   2.872   6.302   4.909  0.5697  0.2873  0.7517
 9355TIP3    H149480   2.889   6.215   4.874 -1.9621  1.0092 -2.7493
 9355TIP3    H249481   2.949   6.354   4.883 -0.8156  0.5845 -3.5542
 9356TIP3   OH249482   0.039   3.182   3.528 -0.3462  0.2800  0.1406
 9356TIP3    H149483  -0.007   3.233   3.596 -1.1617 -0.9486  0.5415
 9356TIP3    H249484   0.052   3.244   3.457 -0.7888  1.2119  0.8426
 9357TIP3   OH249485   2.508   4.745   3.979  0.2704  0.4500  0.1131
 9357TIP3    H149486   2.477   4.835   3.988  0.6971  0.6381 -0.2085
 9357TIP3    H249487   2.581   4.752   3.917 -0.2700 -0.2468 -0.6287
 9358TIP3   OH249488   5.284   0.445  15.950  0.0724  0.4090  0.3211
 9358TIP3    H149489   5.369   0.486  15.937  0.6494 -0.8703 -0.1029
 9358TIP3    H249490   5.251   0.429  15.862 -0.6090  0.8804  0.4847
 9359TIP3   OH249491   3.735   6.099  17.254  0.2838 -0.3510 -0.0761
 9359TIP3    H149492   3.767   6.154  17.183  0.2507  1.5437  1.3160
 9359TIP3    H249493   3.686   6.029  17.210  0.5551  0.5550 -1.9081
 9360TIP3   OH249494   3.279   4.214   6.144  0.2971  0.4995 -0.1571
 9360TIP3    H149495   3.349   4.148   6.147  0.0301  0.1277 -1.2652
 9360TIP3    H249496   3.220   4.189   6.215  0.8227  0.2794  0.2143
 9361TIP3   OH249497   1.074   0.592  15.362  0.2205  0.2860  0.0835
 9361TIP3    H149498   1.046   0.513  15.317  0.0257  1.0496 -1.1721
 9361TIP3    H249499   1.109   0.648  15.293  0.3315  1.3110  0.9469
 9362TIP3   OH249500   4.429   5.297  10.783  0.2080 -0.1507  0.2549
 9362TIP3    H149501   4.497   5.237  10.751  0.6301  0.7614 -0.6154
 9362TIP3    H249502   4.451   5.381  10.743 -0.7810  0.4251  0.8905
 9363TIP3   OH249503   2.281   5.768  13.332  0.2305  0.1947  1.0247
 9363TIP3    H149504   2.217   5.701  13.311  4.2225 -3.3445 -1.3251
 9363TIP3    H249505   2.320   5.740  13.415 -1.6320  2.8365  2.9598
 9364TIP3   OH249506   4.542   2.928   3.782 -0.2746  0.2390 -0.5008
 9364TIP3    H149507   4.498   2.847   3.756  1.1082 -0.3459 -1.1152
 9364TIP3    H249508   4.623   2.928   3.732  0.0697  1.6743  0.0165
 9365TIP3   OH249509   4.369   1.349   0.976 -0.3351 -0.1320 -0.2435
 9365TIP3    H149510   4.410   1.433   0.999 -0.9039  0.4891 -1.4349
 9365TIP3    H249511   4.443   1.288   0.969  0.0968  0.2783  0.5098
 9366TIP3   OH249512   0.053   1.909   2.953 -0.6363 -0.1195 -0.5084
 9366TIP3    H149513   0.003   1.973   2.904 -1.0155  0.2236  0.3107
 9366TIP3    H249514  -0.012   1.845   2.982 -0.3035 -0.7272 -1.0851
 9367TIP3   OH249515   4.531   2.830  12.069  0.3802  0.5432  0.1665
 9367TIP3    H149516   4.528   2.917  12.108  3.2174  1.3847 -1.2172
 9367TIP3    H249517   4.512   2.770  12.141 -1.5173  2.2269  1.1825
 9368TIP3   OH249518   3.604   6.257  15.604 -0.7566  0.1955 -0.5012
 9368TIP3    H149519   3.516   6.238  15.637  0.7324 -3.6920  1.9894
 9368TIP3    H249520   3.611   6.208  15.523 -0.7627  0.1404 -0.4682
 9369TIP3   OH249521   1.286   1.423   5.475 -0.2996 -0.3361  0.4111
 9369TIP3    H149522   1.243   1.452   5.555  0.4753 -0.1632  0.7825
 9369TIP3    H249523   1.242   1.341   5.452 -0.0349 -0.7916  1.4505
 9370TIP3   OH249524   0.486   4.287   0.763 -0.0391  0.3413  0.1500
 9370TIP3    H149525   0.520   4.363   0.811 -0.4724  0.7006 -0.0976
 9370TIP3    H249526   0.449   4.324   0.683  1.4310 -0.3406 -0.8841
 9371TIP3   OH249527   0.063   0.682  12.920 -0.5543 -0.1105  0.0368
 9371TIP3    H149528   0.093   0.732  12.996 -0.6218 -1.2142  0.8011
 9371TIP3    H249529   0.142   0.644  12.883 -0.4236  0.9674 -0.8927
 9372TIP3   OH249530   6.524   4.895  16.080  0.3012  0.5452 -0.1199
 9372TIP3    H149531   6.540   4.930  15.993  2.2245 -0.2211 -0.1089
 9372TIP3    H249532   6.457   4.827  16.067  1.9662 -0.9388 -1.3598
 9373TIP3   OH249533   1.835   5.008   6.593 -0.1650  0.4159  0.5768
 9373TIP3    H149534   1.776   4.961   6.653  0.4107 -2.0919 -0.6973
 9373TIP3    H249535   1.917   4.958   6.596  0.9665  2.1812  0.1582
 9374TIP3   OH249536   0.398   3.022   3.913  0.0291 -0.0265 -0.2484
 9374TIP3    H149537   0.390   2.951   3.850 -0.9355  1.3586 -1.7766
 9374TIP3    H249538   0.364   2.986   3.995  3.0096 -2.4686  0.1047
 9375TIP3   OH249539   3.691   6.305   3.151  0.2999 -0.0935 -0.0782
 9375TIP3    H149540   3.619   6.256   3.113 -1.5152  2.3489 -0.0549
 9375TIP3    H249541   3.760   6.303   3.085 -1.7065  1.6429 -2.4217
 9376TIP3   OH249542   4.156   3.324  17.012 -0.4281 -0.3578 -0.2584
 9376TIP3    H149543   4.141   3.410  16.973  0.2238 -0.3275 -0.4518
 9376TIP3    H249544   4.213   3.279  16.951  1.6451  0.1404  1.2195
 9377TIP3   OH249545   3.755   0.957  13.015 -0.1082 -0.3855 -0.2341
 9377TIP3    H149546   3.778   1.021  12.948 -0.6891  1.4242  1.2196
 9377TIP3    H249547   3.827   0.964  13.079 -0.8641 -0.1692  0.6054
 9378TIP3   OH249548   3.121   0.967   4.417 -0.2145  0.3277  0.3400
 9378TIP3    H149549   3.163   0.955   4.332 -0.9660  0.5267 -0.0676
 9378TIP3    H249550   3.029   0.982   4.396 -1.0996 -2.9873  1.3122
 9379TIP3   OH249551   6.226   1.834   5.179 -0.4535  0.0858 -0.2478
 9379TIP3    H149552   6.215   1.739   5.171 -1.7365 -0.0792  2.5875
 9379TIP3    H249553   6.287   1.845   5.252 -1.2435  1.4370  0.2310
 9380TIP3   OH249554   3.735   0.117   0.051  1.0309  0.0809  0.4753
 9380TIP3    H149555   3.741   0.169   0.130 -0.5033  0.3517  0.4545
 9380TIP3    H249556   3.714   0.029   0.081  2.4276 -0.2752  0.4520
 9381TIP3   OH249557   0.902   6.628  13.857 -0.0450  0.0340 -0.6200
 9381TIP3    H149558   0.965   6.689  13.818  0.2013  0.5058  0.4851
 9381TIP3    H249559   0.944   6.542  13.849  1.0674  0.4239  0.7093
 9382TIP3   OH249560   2.226   1.296   5.921 -0.6529  0.4906  0.2285
 9382TIP3    H149561   2.225   1.296   5.826  2.3283  1.4577  0.1033
 9382TIP3    H249562   2.220   1.203   5.944 -2.3601  0.2964 -0.7898
 9383TIP3   OH249563   2.618   0.975   0.711 -0.2762 -0.5704  0.3557
 9383TIP3    H149564   2.642   1.030   0.636 -2.0949  0.9581  0.7981
 9383TIP3    H249565   2.655   1.020   0.787 -1.1726 -0.3151  0.6566
 9384TIP3   OH249566   1.969   1.766  12.163  0.1864 -0.5132 -0.0308
 9384TIP3    H149567   1.913   1.827  12.212 -0.6551  0.0742 -1.6661
 9384TIP3    H249568   1.909   1.722  12.102  1.2986 -0.7932 -0.9472
 9385TIP3   OH249569   4.495   0.137  13.485  0.2124 -0.1140  0.0940
 9385TIP3    H149570   4.579   0.182  13.493 -0.3041  0.6645  1.4318
 9385TIP3    H249571   4.430   0.207  13.485 -0.5586 -0.7891  1.4326
 9386TIP3   OH249572   4.639   5.736   4.668  0.6321 -0.3253 -0.1133
 9386TIP3    H149573   4.627   5.666   4.732 -1.2431  0.2249  0.1900
 9386TIP3    H249574   4.581   5.712   4.595 -1.3412  1.6475  0.6784
 9387TIP3   OH249575   4.120   4.462   4.126 -0.0326  0.2606 -0.1198
 9387TIP3    H149576   4.188   4.458   4.193 -2.6521 -1.8480  2.7026
 9387TIP3    H249577   4.103   4.556   4.114  3.3309  0.8618 -1.0679
 9388TIP3   OH249578   3.643   0.923   1.953  0.3071 -0.0817  0.1130
 9388TIP3    H149579   3.600   0.838   1.962 -0.4235 -0.0089 -2.1764
 9388TIP3    H249580   3.621   0.952   1.865  2.1867  1.5933  0.1308
 9389TIP3   OH249581   3.633   0.306   6.042 -0.0676  0.2245 -0.3241
 9389TIP3    H149582   3.675   0.337   6.122  1.4675  0.3567 -1.1521
 9389TIP3    H249583   3.701   0.310   5.975 -0.3469 -2.8812 -0.9746
 9390TIP3   OH249584   4.175   6.173  17.346 -0.8293 -0.2704 -0.8917
 9390TIP3    H149585   4.086   6.208  17.335 -0.5673  0.7001 -0.1206
 9390TIP3    H249586   4.232   6.239  17.307 -0.2799  0.5148  1.0754
 9391TIP3   OH249587   1.108   3.099  15.936 -0.2844 -0.2304 -0.1333
 9391TIP3    H149588   1.112   3.144  16.021 -0.1776 -1.1339  0.3467
 9391TIP3    H249589   1.173   3.029  15.943  1.0162  0.7660 -1.6193
 9392TIP3   OH249590   1.588   0.032   2.929 -0.7058  0.1894 -0.4645
 9392TIP3    H149591   1.510   0.040   2.874 -1.2214  1.8711  0.4319
 9392TIP3    H249592   1.578   0.100   2.995  0.8479 -0.4910  0.5415
 9393TIP3   OH249593   3.181   5.528   4.706 -0.0197  0.2364  0.1980
 9393TIP3    H149594   3.134   5.456   4.665  1.8041 -0.5306 -0.6752
 9393TIP3    H249595   3.227   5.488   4.780 -0.3388  0.8658  0.7474
 9394TIP3   OH249596   2.271   5.729  16.483  0.4817  0.7253 -0.1783
 9394TIP3    H149597   2.219   5.703  16.559  2.1073 -2.1157  0.1077
 9394TIP3    H249598   2.345   5.777  16.519  2.8427 -3.0911  0.5869
 9395TIP3   OH249599   1.144   5.696  12.604  0.0165  0.2471  0.4620
 9395TIP3    H149600   1.186   5.770  12.649 -0.7889  0.0436  1.5889
 9395TIP3    H249601   1.178   5.618  12.647 -0.2625  0.0163  0.2748
 9396TIP3   OH249602   4.717   3.161  15.496 -0.4573  0.9100  0.5413
 9396TIP3    H149603   4.734   3.247  15.534  0.1798  1.6636 -1.3086
 9396TIP3    H249604   4.662   3.180  15.419 -0.6524 -0.3942  0.3403
 9397TIP3   OH249605   6.326   3.122   4.672 -0.1327 -0.2219  0.8271
 9397TIP3    H149606   6.242   3.111   4.718 -0.6529  1.9725  0.5421
 9397TIP3    H249607   6.382   3.167   4.735  0.7245 -1.3334  0.8779
 9398TIP3   OH249608   2.927   3.305  16.400  0.0154 -0.1637  0.0229
 9398TIP3    H149609   2.877   3.286  16.479  0.0882  1.8738  0.6012
 9398TIP3    H249610   2.861   3.322  16.333 -0.0758  1.0015  0.3981
 9399TIP3   OH249611   2.708   5.824  17.378 -0.4293 -0.0836 -0.3117
 9399TIP3    H149612   2.710   5.729  17.372  1.0211 -0.0787 -0.4313
 9399TIP3    H249613   2.681   5.853  17.291 -0.8854 -0.3842 -0.2713
 9400TIP3   OH249614   1.757   5.408  14.414 -0.0698 -0.0220 -0.1194
 9400TIP3    H149615   1.747   5.497  14.379  3.0553  0.9392  1.1277
 9400TIP3    H249616   1.734   5.417  14.506 -1.1261 -0.8918 -0.2777
 9401TIP3   OH249617   2.332   1.393   0.544 -0.1041  0.2235 -0.6566
 9401TIP3    H149618   2.279   1.399   0.624  1.8576  1.3057  0.6573
 9401TIP3    H249619   2.418   1.363   0.575  1.6374  3.5252 -1.8138
 9402TIP3   OH249620   0.900   1.796   4.590 -0.4475  0.3979  0.6509
 9402TIP3    H149621   0.919   1.719   4.537  0.0059 -0.2395  1.6996
 9402TIP3    H249622   0.870   1.761   4.674 -2.2575  1.3740  0.4746
 9403TIP3   OH249623   0.525   6.205  16.062 -0.7282  0.4373  0.2108
 9403TIP3    H149624   0.466   6.167  16.127  0.7880 -2.1990  0.1881
 9403TIP3    H249625   0.608   6.214  16.108 -0.0166 -0.0786 -0.9413
 9404TIP3   OH249626   6.130   5.011   1.615  0.0577 -0.6766  0.1922
 9404TIP3    H149627   6.157   5.017   1.707  0.0701 -1.1974  0.2292
 9404TIP3    H249628   6.041   4.975   1.619 -0.9378  1.5989  0.1023
 9405TIP3   OH249629   3.474   3.621  13.682  0.5753 -0.0271  0.0542
 9405TIP3    H149630   3.546   3.564  13.654  0.6996  0.3523 -0.4047
 9405TIP3    H249631   3.395   3.577  13.650  0.5120 -0.9904  1.4768
 9406TIP3   OH249632   1.838   5.493   0.303  0.3080  0.2981  0.0930
 9406TIP3    H149633   1.755   5.461   0.269 -1.4417  1.9165  2.5020
 9406TIP3    H249634   1.877   5.417   0.347  0.4079 -0.5963 -1.4648
 9407TIP3   OH249635   4.999   6.644   0.440  0.4231 -0.0637 -0.0077
 9407TIP3    H149636   4.914   6.662   0.401  0.6298 -1.2447 -1.0592
 9407TIP3    H249637   5.051   6.722   0.422 -0.7648  1.1923  1.7158
 9408TIP3   OH249638   2.758   3.563   3.758  0.5471  0.0875  0.2567
 9408TIP3    H149639   2.814   3.589   3.831  0.5047 -0.3881  0.4622
 9408TIP3    H249640   2.726   3.646   3.721 -0.5868  0.3224  1.6794
 9409TIP3   OH249641   1.832   4.563  16.326  0.0689 -0.5582  0.2415
 9409TIP3    H149642   1.764   4.592  16.387 -0.6237 -3.1521  0.8092
 9409TIP3    H249643   1.906   4.623  16.342 -0.0600 -1.1086  3.7033
 9410TIP3   OH249644   3.132   1.329  10.548 -0.8168  0.3147 -1.1912
 9410TIP3    H149645   3.160   1.412  10.509 -1.7493  0.8380 -0.7681
 9410TIP3    H249646   3.042   1.344  10.575 -0.8439 -0.6903 -0.6762
 9411TIP3   OH249647   3.687   4.979  12.066 -0.3907 -0.0595  0.4659
 9411TIP3    H149648   3.744   5.033  12.121  0.6946 -0.5301 -0.1617
 9411TIP3    H249649   3.694   4.891  12.103 -2.8441  0.2921  2.0389
 9412TIP3   OH249650   2.723   0.644   4.434  0.0336 -0.5246  0.2215
 9412TIP3    H149651   2.812   0.679   4.443 -0.8963  2.4104 -0.6827
 9412TIP3    H249652   2.688   0.644   4.523  0.4320 -0.0777  0.3871
 9413TIP3   OH249653   3.354   5.969  15.450  0.7199  0.1387 -0.2990
 9413TIP3    H149654   3.374   6.021  15.528 -2.5885  0.7225  0.3209
 9413TIP3    H249655   3.371   5.879  15.477 -0.8284  0.2772  1.3901
 9414TIP3   OH249656   3.762   0.032   3.845 -0.5366  0.3573 -0.4153
 9414TIP3    H149657   3.815   0.110   3.860 -1.1759  0.7248  0.0144
 9414TIP3    H249658   3.696   0.060   3.782  0.1477 -0.2769 -1.4463
 9415TIP3   OH249659   5.044   1.383  11.169 -0.6825  1.0226 -0.6708
 9415TIP3    H149660   5.001   1.467  11.151  1.3514  2.5419  0.9100
 9415TIP3    H249661   5.098   1.366  11.092 -0.7540  1.4107 -0.8080
 9416TIP3   OH249662   3.429   6.263   2.187 -0.1689 -0.0247 -0.5796
 9416TIP3    H149663   3.521   6.289   2.181 -0.1532 -0.2445 -1.4732
 9416TIP3    H249664   3.394   6.278   2.099 -0.7833 -0.6804 -0.4598
 9417TIP3   OH249665   3.522   4.162  15.846  0.1571 -0.0365 -0.6491
 9417TIP3    H149666   3.434   4.128  15.829 -0.3093  1.3736 -1.2076
 9417TIP3    H249667   3.573   4.134  15.770 -0.3498  0.8911 -1.3589
 9418TIP3   OH249668   0.678   2.929  12.449 -0.1336 -0.5521  0.7793
 9418TIP3    H149669   0.593   2.951  12.488  0.4253 -0.7314  2.1734
 9418TIP3    H249670   0.705   3.008  12.404 -0.2725  0.1019  1.8044
 9419TIP3   OH249671   0.997   2.213   6.015 -0.5937 -0.0236 -0.1135
 9419TIP3    H149672   0.934   2.284   6.003  0.6954  1.1896  0.0598
 9419TIP3    H249673   0.980   2.180   6.103 -1.1310  0.1265 -0.1567
 9420TIP3   OH249674   4.972   0.456   2.164  0.1007 -0.0206 -0.5499
 9420TIP3    H149675   4.961   0.368   2.127 -0.4869  0.3141 -1.1953
 9420TIP3    H249676   4.888   0.499   2.148 -0.3803 -0.0294  1.6805
 9421TIP3   OH249677   5.717   3.314  13.676  0.4005 -0.3244  0.5545
 9421TIP3    H149678   5.796   3.340  13.628 -0.2702 -0.3917 -0.6324
 9421TIP3    H249679   5.665   3.395  13.681  0.2245 -0.4466  0.6824
 9422TIP3   OH249680   4.023   3.115   5.438  0.0997 -0.0714 -0.7306
 9422TIP3    H149681   4.050   3.147   5.352 -0.6402 -1.2368 -1.4172
 9422TIP3    H249682   4.067   3.031   5.447 -0.1594 -0.1455 -0.1421
 9423TIP3   OH249683   0.086   0.973   4.295 -0.4702 -0.3527  0.2283
 9423TIP3    H149684   0.058   0.933   4.213 -1.2965  1.2705 -0.3216
 9423TIP3    H249685   0.182   0.974   4.290 -0.4690  2.8462 -2.4002
 9424TIP3   OH249686   2.328   5.802   3.186 -0.4295  0.4909  0.2239
 9424TIP3    H149687   2.280   5.773   3.109 -0.9271  0.4022  0.5629
 9424TIP3    H249688   2.282   5.762   3.260 -1.8937  3.0604  0.8247
 9425TIP3   OH249689   3.673   0.541   1.858 -0.2015 -0.2415 -0.2408
 9425TIP3    H149690   3.614   0.472   1.827 -1.0979 -0.0532  0.9682
 9425TIP3    H249691   3.617   0.598   1.910  0.3676  1.8042 -1.7459
 9426TIP3   OH249692   3.079   5.557   2.363 -0.4983  0.8049  0.2747
 9426TIP3    H149693   3.095   5.480   2.309  1.2861 -0.0342  1.8512
 9426TIP3    H249694   3.073   5.630   2.301 -0.2123 -0.3300 -1.1289
 9427TIP3   OH249695   4.716   4.685   3.215 -0.2809 -0.0692 -0.1561
 9427TIP3    H149696   4.732   4.738   3.137 -1.0796  0.3079 -0.0780
 9427TIP3    H249697   4.627   4.708   3.241 -1.3432 -2.6512 -1.0903
 9428TIP3   OH249698   4.230   5.893   4.348 -0.0165  0.5543  0.0698
 9428TIP3    H149699   4.190   5.876   4.433 -2.1734 -0.7886 -1.0906
 9428TIP3    H249700   4.155   5.895   4.287  1.5377  0.0464 -1.9768
 9429TIP3   OH249701   1.731   3.461  15.830  0.0385 -0.2401  0.2440
 9429TIP3    H149702   1.701   3.483  15.742 -1.0330  2.5945  1.1847
 9429TIP3    H249703   1.685   3.381  15.853 -1.7429  0.4310 -0.8360
 9430TIP3   OH249704   0.331   2.966   1.803 -0.0998 -0.3898  0.3592
 9430TIP3    H149705   0.362   2.938   1.717 -0.8845  0.4438 -0.2111
 9430TIP3    H249706   0.404   3.017   1.840 -0.3129  0.5527 -0.4737
 9431TIP3   OH249707   2.745   5.161   6.861 -0.4627  0.0882 -0.0462
 9431TIP3    H149708   2.699   5.080   6.838  1.1772 -0.5377 -1.2653
 9431TIP3    H249709   2.688   5.231   6.827 -1.6219 -0.5394  0.5299
 9432TIP3   OH249710   6.455   5.303  12.059 -0.0023 -0.0255  0.4140
 9432TIP3    H149711   6.445   5.353  12.139  0.7229  0.4925  0.1902
 9432TIP3    H249712   6.534   5.337  12.018  0.4432 -1.2540  0.1897
 9433TIP3   OH249713   2.700   5.223   0.084  0.2985  0.1334 -0.6971
 9433TIP3    H149714   2.668   5.250   0.170  2.1940 -1.5109  0.6323
 9433TIP3    H249715   2.751   5.297   0.052  0.3720  0.3973  0.0321
 9434TIP3   OH249716   1.992   0.848   5.785 -0.4273  0.1391  0.7471
 9434TIP3    H149717   1.897   0.852   5.778 -0.3287  0.4599 -0.6656
 9434TIP3    H249718   2.024   0.874   5.699  0.9162 -1.5637  0.6695
 9435TIP3   OH249719   0.055   6.574  12.319  0.7990  0.5070  0.2432
 9435TIP3    H149720   0.067   6.595  12.227  0.1988  0.9784  0.2660
 9435TIP3    H249721   0.068   6.479  12.324  1.0786  0.5166 -0.2833
 9436TIP3   OH249722   0.154   5.811  14.383 -0.2748  0.6612 -0.2504
 9436TIP3    H149723   0.113   5.725  14.396 -1.5014  0.8307 -2.4912
 9436TIP3    H249724   0.090   5.873  14.418 -0.3044  0.7496 -0.4587
 9437TIP3   OH249725   2.775   5.318  11.873 -0.0673 -0.3447 -0.5005
 9437TIP3    H149726   2.828   5.391  11.904 -2.9157  0.2915  3.7245
 9437TIP3    H249727   2.824   5.240  11.899 -0.0764  0.2188  1.3867
 9438TIP3   OH249728   2.342   0.639  13.151 -0.2856 -0.2185 -0.3816
 9438TIP3    H149729   2.266   0.587  13.126 -0.0845 -0.5644 -0.2763
 9438TIP3    H249730   2.407   0.575  13.180 -0.1240  0.1055 -0.0199
 9439TIP3   OH249731   1.646   3.750   5.725 -0.3142 -0.1368 -0.6195
 9439TIP3    H149732   1.603   3.806   5.661  2.8650  2.8482 -0.4156
 9439TIP3    H249733   1.717   3.708   5.676  1.0060  0.7509  0.4675
 9440TIP3   OH249734   4.102   5.669  14.339  0.3001 -0.1467 -0.5007
 9440TIP3    H149735   4.165   5.710  14.399 -0.1317  0.7856 -0.6623
 9440TIP3    H249736   4.122   5.707  14.254 -0.1329 -0.2581 -0.6548
 9441TIP3   OH249737   3.252   1.609  12.764  0.0480 -0.1419 -0.1893
 9441TIP3    H149738   3.264   1.692  12.809  1.6395 -1.2244  1.4789
 9441TIP3    H249739   3.266   1.630  12.671  0.5856  1.3958  0.2148
 9442TIP3   OH249740   1.537   6.296  12.790 -0.1168  0.1763  0.1494
 9442TIP3    H149741   1.542   6.341  12.706  2.4354 -0.4482 -0.1123
 9442TIP3    H249742   1.520   6.204  12.767 -1.3559  0.3132  0.4564
 9443TIP3   OH249743   4.042   4.627  14.840  0.4458 -0.0812 -0.2745
 9443TIP3    H149744   3.966   4.666  14.797 -0.2984 -1.6337 -0.4200
 9443TIP3    H249745   4.021   4.631  14.934  0.0548 -0.7141 -0.3258
 9444TIP3   OH249746   1.492   2.305   4.423  0.7376 -0.5120 -0.2345
 9444TIP3    H149747   1.399   2.281   4.421  0.2768  1.1237 -0.0216
 9444TIP3    H249748   1.511   2.336   4.335  0.1346  2.2784  0.5148
 9445TIP3   OH249749   3.163   6.597  11.238  0.1010 -0.5591  0.2874
 9445TIP3    H149750   3.199   6.686  11.244  0.5279 -0.7356  0.3352
 9445TIP3    H249751   3.074   6.610  11.204  0.5576 -0.1976 -0.8160
 9446TIP3   OH249752   6.042   0.844   4.537  0.1139 -0.0035 -0.2017
 9446TIP3    H149753   6.008   0.775   4.594  0.3036  0.6771  0.7641
 9446TIP3    H249754   6.024   0.813   4.448 -3.5205  0.5129  0.1927
 9447TIP3   OH249755   0.783   3.577  13.763  0.7189  0.0273 -0.0151
 9447TIP3    H149756   0.842   3.632  13.814  1.3458 -0.0590 -0.6317
 9447TIP3    H249757   0.700   3.625  13.764  1.2379  0.9797 -0.4884
 9448TIP3   OH249758   4.073   5.097  11.825 -0.4729 -0.7350  0.4815
 9448TIP3    H149759   4.117   5.148  11.757  1.2456 -2.7175  0.0153
 9448TIP3    H249760   3.989   5.072  11.785 -0.7005  0.4280  0.1776
 9449TIP3   OH249761   3.086   1.090   0.307  0.2664 -0.4241 -0.1093
 9449TIP3    H149762   3.056   1.024   0.369  0.3148  1.3463  1.9043
 9449TIP3    H249763   3.131   1.156   0.361  2.2912  0.1332 -2.2742
 9450TIP3   OH249764   2.592   0.310  17.081 -0.4193 -0.3273 -0.0656
 9450TIP3    H149765   2.593   0.312  17.177 -1.5206 -0.3054 -0.0347
 9450TIP3    H249766   2.646   0.384  17.054 -1.5851  0.7914  0.5657
 9451TIP3   OH249767   4.193   3.074   1.753  0.9058  0.2643 -0.0299
 9451TIP3    H149768   4.146   2.992   1.743 -1.0431  1.2557  0.3959
 9451TIP3    H249769   4.280   3.057   1.718 -0.0503 -1.4116 -1.7446
 9452TIP3   OH249770   5.036   4.143   2.631 -0.2250  0.6178  0.2994
 9452TIP3    H149771   5.021   4.092   2.711  2.3870 -1.0615 -0.1793
 9452TIP3    H249772   5.022   4.234   2.659  1.7016  0.2172  3.0414
 9453TIP3   OH249773   6.058   3.128  14.657  0.6957  0.6454  1.1402
 9453TIP3    H149774   6.005   3.119  14.736 -2.8345  1.8810 -0.8390
 9453TIP3    H249775   6.072   3.039  14.627 -0.4357  0.2512  1.6982
 9454TIP3   OH249776   2.993   6.089  11.495  1.0844 -0.1755 -0.3379
 9454TIP3    H149777   3.057   6.153  11.524  0.8432  0.7747 -1.8083
 9454TIP3    H249778   3.044   6.019  11.455  1.2916 -0.3880  0.2926
 9455TIP3   OH249779   4.041   3.632   3.511 -0.0030 -0.2849 -0.3385
 9455TIP3    H149780   3.956   3.677   3.507 -0.2097 -0.5608  0.6665
 9455TIP3    H249781   4.040   3.573   3.435 -0.9821 -0.7399  0.0044
 9456TIP3   OH249782   4.407   2.360   0.744  0.1359 -0.1177  0.3713
 9456TIP3    H149783   4.403   2.280   0.691 -0.7296 -0.5081  1.0042
 9456TIP3    H249784   4.316   2.378   0.767  0.4629  0.2730  1.3968
 9457TIP3   OH249785   3.108   5.948   5.480  0.5077  0.2240  0.1903
 9457TIP3    H149786   3.087   5.944   5.573 -1.2791 -1.9023 -0.2239
 9457TIP3    H249787   3.104   5.858   5.450  1.5424  0.7908 -1.8877
 9458TIP3   OH249788   5.666   6.469   2.493 -0.3087 -0.3297  0.3951
 9458TIP3    H149789   5.649   6.403   2.426 -1.3436  1.4797 -1.2404
 9458TIP3    H249790   5.761   6.468   2.504  0.0994  0.4010 -2.3517
 9459TIP3   OH249791   4.432   1.514  13.126 -0.0483 -0.1164  0.0619
 9459TIP3    H149792   4.480   1.431  13.129  1.0713  0.5263  0.8360
 9459TIP3    H249793   4.391   1.515  13.040  0.6734 -1.0650 -0.3174
 9460TIP3   OH249794   6.242   0.824   5.894  0.5361  0.4392 -0.4741
 9460TIP3    H149795   6.326   0.849   5.930 -0.4885  0.7792  1.8306
 9460TIP3    H249796   6.219   0.743   5.939 -0.7906  0.8567 -0.3438
 9461TIP3   OH249797   0.367   0.356  13.872  0.6257 -0.7166  0.5195
 9461TIP3    H149798   0.300   0.291  13.891 -2.9432  1.8802 -1.7551
 9461TIP3    H249799   0.366   0.414  13.948  0.6191 -0.9400  0.6907
 9462TIP3   OH249800   3.195   6.633   2.587  0.3420  0.1273 -0.5623
 9462TIP3    H149801   3.175   6.557   2.642  1.8151 -1.1937 -1.7556
 9462TIP3    H249802   3.115   6.648   2.536 -0.3533  0.1299  0.4903
 9463TIP3   OH249803   0.677   0.230  14.302  0.3107 -0.5390  0.1884
 9463TIP3    H149804   0.701   0.304  14.247  0.9595 -1.2070 -0.4527
 9463TIP3    H249805   0.755   0.215  14.356 -0.1545 -0.1758  0.9802
 9464TIP3   OH249806   6.719   3.112  12.745  0.3767  0.7182 -0.4782
 9464TIP3    H149807   6.643   3.097  12.689  1.4837 -3.2506 -1.2892
 9464TIP3    H249808   6.793   3.118  12.684  1.1481  0.4974  0.4098
 9465TIP3   OH249809   3.952   4.182   5.343 -0.3589 -0.6870  0.3180
 9465TIP3    H149810   3.883   4.238   5.310 -2.3219 -1.6411  2.4912
 9465TIP3    H249811   3.907   4.119   5.400  2.2064 -1.8551  1.2347
 9466TIP3   OH249812   5.886   5.905   2.187  0.0215 -0.0512 -0.5126
 9466TIP3    H149813   5.830   5.861   2.123 -1.1757  0.6788  0.0016
 9466TIP3    H249814   5.825   5.950   2.245  1.0312 -1.0402  1.4213
 9467TIP3   OH249815   0.754   5.723   5.115  0.1617  0.0104  0.0633
 9467TIP3    H149816   0.792   5.643   5.079 -1.4876 -0.5567 -0.5021
 9467TIP3    H249817   0.673   5.694   5.157 -0.1997  1.3113  0.3000
 9468TIP3   OH249818   2.111   0.151   5.766 -0.0054  0.8631 -0.4590
 9468TIP3    H149819   2.159   0.077   5.729 -0.4656  0.7713 -0.8912
 9468TIP3    H249820   2.030   0.112   5.800  0.4036  0.9454  0.6548
 9469TIP3   OH249821   6.628   5.882  12.204 -0.0824  0.0755 -0.6330
 9469TIP3    H149822   6.706   5.863  12.255  0.8994  0.8126 -1.8027
 9469TIP3    H249823   6.563   5.818  12.234  0.8936 -0.4129  0.4997
 9470TIP3   OH249824   3.167   3.896   2.677 -0.3370 -0.3758  0.0658
 9470TIP3    H149825   3.260   3.911   2.663 -0.6505  1.0607 -0.6841
 9470TIP3    H249826   3.145   3.951   2.752 -0.6258 -0.5045  0.0751
 9471TIP3   OH249827   3.361   0.404  17.073  0.2495 -0.6241 -0.3267
 9471TIP3    H149828   3.271   0.371  17.073 -0.5014  1.1817  1.8694
 9471TIP3    H249829   3.383   0.416  17.166  2.5973 -0.5732 -0.8230
 9472TIP3   OH249830   1.210   5.066   2.298  0.2219 -0.2752  0.0602
 9472TIP3    H149831   1.276   5.104   2.240  1.0747 -1.7877 -0.0257
 9472TIP3    H249832   1.142   5.133   2.305  1.0918  0.7595 -1.0067
 9473TIP3   OH249833   3.068   6.576   0.943  0.1204 -1.0439  0.4734
 9473TIP3    H149834   2.984   6.565   0.898  0.4756 -0.2225 -0.4348
 9473TIP3    H249835   3.090   6.668   0.929  0.5729 -0.9296  1.7940
 9474TIP3   OH249836   4.079   2.736  15.620 -0.0748 -0.1863 -0.2292
 9474TIP3    H149837   4.028   2.655  15.618 -0.6024  0.1417 -0.2461
 9474TIP3    H249838   4.124   2.733  15.704 -1.7318  0.4785  0.7452
 9475TIP3   OH249839   5.435   1.574  13.475 -0.6983  0.5681 -0.0552
 9475TIP3    H149840   5.494   1.503  13.450 -0.6323  0.4678  0.3790
 9475TIP3    H249841   5.492   1.642  13.509 -0.6192  1.4889 -1.9503
 9476TIP3   OH249842   2.038   4.207   2.529 -0.3702 -0.2904 -0.4145
 9476TIP3    H149843   1.946   4.216   2.505 -0.1950 -0.7792 -1.3244
 9476TIP3    H249844   2.064   4.123   2.491  0.6442  0.1991 -0.8272
 9477TIP3   OH249845   3.506   3.166  13.426 -0.2779 -0.4524 -0.2081
 9477TIP3    H149846   3.602   3.172  13.424 -0.3538  2.2055 -2.2316
 9477TIP3    H249847   3.486   3.088  13.375  0.8076 -0.1185 -1.1980
 9478TIP3   OH249848   0.729   5.613   0.718 -0.4359  0.3457  0.1839
 9478TIP3    H149849   0.722   5.636   0.811  0.3096  0.0564  0.3235
 9478TIP3    H249850   0.689   5.526   0.712  0.5231 -0.1327  0.4621
 9479TIP3   OH249851   1.306   1.235  11.745 -0.2304 -0.5446  0.5363
 9479TIP3    H149852   1.300   1.299  11.675  0.2295 -0.7380  0.3179
 9479TIP3    H249853   1.261   1.276  11.819 -1.2711 -0.6010 -0.0521
 9480TIP3   OH249854   4.857   6.013   0.085 -0.4691 -0.5677 -0.3139
 9480TIP3    H149855   4.881   5.974   0.170 -1.9525 -0.2155  0.2945
 9480TIP3    H249856   4.784   5.960   0.054 -1.5478  0.7728 -0.1781
 9481TIP3   OH249857   3.036   6.490   6.460 -0.2739  0.1221 -0.0125
 9481TIP3    H149858   3.071   6.489   6.371 -0.1475 -1.1201  0.0288
 9481TIP3    H249859   3.112   6.472   6.516 -0.6084 -0.5810  0.2295
 9482TIP3   OH249860   3.091   4.926   1.250  0.5219  0.1057 -0.0421
 9482TIP3    H149861   3.119   4.985   1.321 -0.9029  0.0649  0.5783
 9482TIP3    H249862   2.997   4.941   1.242  0.2322 -1.6218 -0.2989
 9483TIP3   OH249863   1.015   4.239  15.973 -0.7661 -0.2752  0.2898
 9483TIP3    H149864   0.953   4.272  15.908 -0.9663 -0.5273  0.3476
 9483TIP3    H249865   1.046   4.316  16.019 -0.2051 -0.0365 -0.4735
 9484TIP3   OH249866   2.873   3.750   4.283  0.0083 -0.4928 -0.4125
 9484TIP3    H149867   2.827   3.803   4.347 -0.7327 -0.7824 -0.6982
 9484TIP3    H249868   2.805   3.699   4.240  0.6140 -1.0875 -0.6954
 9485TIP3   OH249869   2.131   3.647  11.615  0.1720 -0.2925 -0.5007
 9485TIP3    H149870   2.075   3.607  11.548  2.0576 -1.4676 -1.4701
 9485TIP3    H249871   2.219   3.644  11.577  0.9289  1.4367  0.9773
 9486TIP3   OH249872   2.538   0.815   1.505  0.2253  0.6119 -0.0235
 9486TIP3    H149873   2.468   0.790   1.566 -0.1309  4.2386  1.2926
 9486TIP3    H249874   2.602   0.860   1.559  3.0031 -1.3356 -1.4622
 9487TIP3   OH249875   2.938   6.048  10.537 -0.3279 -0.0229  0.1916
 9487TIP3    H149876   2.956   6.130  10.492  1.3217  1.0848  2.6452
 9487TIP3    H249877   2.843   6.039  10.535 -0.3922  0.5689 -2.3330
 9488TIP3   OH249878   2.972   1.173  14.644 -0.2543  0.1140  0.7276
 9488TIP3    H149879   3.006   1.246  14.592  0.0250  0.0874  0.8700
 9488TIP3    H249880   3.044   1.111  14.649 -1.2180 -1.2754 -1.3770
 9489TIP3   OH249881   2.951   0.188  11.174  0.3464 -0.7732 -0.3743
 9489TIP3    H149882   3.028   0.224  11.130  0.9286 -0.1535  1.0948
 9489TIP3    H249883   2.971   0.095  11.183  0.9665 -0.6042  0.0711
 9490TIP3   OH249884   6.046   2.825  16.096 -0.1212  0.2564  0.8034
 9490TIP3    H149885   6.003   2.740  16.097 -0.9395  0.6648  1.4096
 9490TIP3    H249886   6.062   2.843  16.004 -1.8824  0.3978  0.4967
 9491TIP3   OH249887   3.680   6.383  12.692 -0.1962  0.1797  0.2368
 9491TIP3    H149888   3.717   6.359  12.607 -0.6460 -1.2980  0.4195
 9491TIP3    H249889   3.751   6.364  12.754 -0.2088  0.2815  0.2804
 9492TIP3   OH249890   4.237   0.695  11.979 -0.3094 -0.2529 -0.1611
 9492TIP3    H149891   4.204   0.709  11.890 -2.1662  0.5825  0.6132
 9492TIP3    H249892   4.297   0.769  11.994  0.9060 -1.0086 -1.0732
 9493TIP3   OH249893   0.764   3.795  11.893  0.6346  0.5107  0.2512
 9493TIP3    H149894   0.716   3.728  11.943  1.3800 -0.3987 -0.2293
 9493TIP3    H249895   0.768   3.870  11.953 -1.1159  0.5243  0.4194
 9494TIP3   OH249896   4.478   3.675  17.343 -0.2774 -0.5018 -0.4785
 9494TIP3    H149897   4.435   3.680  17.258 -1.8308  0.0657  0.3046
 9494TIP3    H249898   4.407   3.673  17.406  0.8274 -1.6062  0.8067
 9495TIP3   OH249899   4.045   2.440   3.660  0.0742 -0.5255 -0.3216
 9495TIP3    H149900   4.057   2.345   3.660 -0.2100 -0.5659 -0.7206
 9495TIP3    H249901   4.082   2.469   3.576  0.7619 -0.2010  0.0863
 9496TIP3   OH249902   3.339   3.800  14.524  0.5052  0.1337 -0.1452
 9496TIP3    H149903   3.414   3.743  14.544 -0.2103 -1.1859 -1.1048
 9496TIP3    H249904   3.278   3.785  14.597  0.2148 -0.5448 -0.5150
 9497TIP3   OH249905   3.461   0.674   5.411 -0.0783  0.1291 -0.0255
 9497TIP3    H149906   3.468   0.690   5.505 -0.6405 -0.7443  0.1788
 9497TIP3    H249907   3.367   0.677   5.393  0.0513  0.6351 -0.6220
 9498TIP3   OH249908   4.129   0.843  14.311 -0.1069  0.1506  0.3037
 9498TIP3    H149909   4.138   0.938  14.320 -0.7677  0.2783 -0.2660
 9498TIP3    H249910   4.058   0.820  14.370 -0.5933  0.1536 -0.2781
 9499TIP3   OH249911   3.205   1.417  14.935 -0.0100  0.5224  0.7040
 9499TIP3    H149912   3.188   1.474  14.860 -0.4190 -0.3058  0.1445
 9499TIP3    H249913   3.118   1.399  14.971 -0.1966 -1.7728 -0.6785
 9500TIP3   OH249914   4.397   2.564  13.448  0.2215  0.1503  0.0431
 9500TIP3    H149915   4.349   2.482  13.434 -0.8614  0.7509  0.1531
 9500TIP3    H249916   4.387   2.612  13.366 -1.8633  1.5129  1.0187
 9501TIP3   OH249917   3.034   1.975   2.540 -0.1951 -0.2743 -0.3083
 9501TIP3    H149918   3.118   1.946   2.575  0.4485 -0.7187 -2.0736
 9501TIP3    H249919   2.996   2.030   2.608 -0.0433 -2.7423  1.8991
 9502TIP3   OH249920   1.914   5.597  15.716  0.0123 -0.7686  0.2516
 9502TIP3    H149921   1.853   5.545  15.664  0.4200  0.2957 -1.3797
 9502TIP3    H249922   1.927   5.677  15.664  1.7577 -0.3985  1.1881
 9503TIP3   OH249923   3.767   6.275  16.548 -0.4636 -0.3176 -0.2685
 9503TIP3    H149924   3.793   6.361  16.582 -0.0577  0.0549 -1.4643
 9503TIP3    H249925   3.771   6.285  16.452  0.5335 -1.9490 -0.4272
 9504TIP3   OH249926   5.350   5.618  16.797 -0.7290  0.4479  0.1971
 9504TIP3    H149927   5.380   5.651  16.882 -0.0723 -0.8332  0.4925
 9504TIP3    H249928   5.409   5.545  16.778  0.2370  1.7350 -2.1713
 9505TIP3   OH249929   4.649   2.660   0.169 -0.3037 -0.4387  0.1164
 9505TIP3    H149930   4.602   2.728   0.217 -0.1297 -0.9390  1.0180
 9505TIP3    H249931   4.680   2.704   0.090 -1.2789  0.1993  0.0656
 9506TIP3   OH249932   3.499   1.768  12.436 -0.0492  0.0255  0.3562
 9506TIP3    H149933   3.535   1.825  12.369 -1.9411  0.6407 -0.2166
 9506TIP3    H249934   3.540   1.797  12.517  0.7898  0.5983 -0.2512
 9507TIP3   OH249935   5.339   3.363  14.566  0.3952 -0.6450  0.0539
 9507TIP3    H149936   5.417   3.388  14.616 -0.2219  1.4925  0.0069
 9507TIP3    H249937   5.374   3.336  14.481  1.2493 -2.0622  0.8011
 9508TIP3   OH249938   1.526   0.900   3.515  0.4674 -0.1468 -0.3908
 9508TIP3    H149939   1.438   0.934   3.500 -0.7378 -1.2477  3.1239
 9508TIP3    H249940   1.531   0.821   3.461  0.8252  1.8268 -3.4764
 9509TIP3   OH249941   2.349   4.058  16.190 -0.6717  0.0535  0.1104
 9509TIP3    H149942   2.266   4.098  16.164 -0.4808 -0.2572 -1.0323
 9509TIP3    H249943   2.334   3.964  16.184 -0.2132 -0.0058 -0.2406
 9510TIP3   OH249944   5.264   5.321   3.739  0.1482  0.0569  0.0756
 9510TIP3    H149945   5.347   5.359   3.769  0.3409 -1.3559  1.4557
 9510TIP3    H249946   5.285   5.279   3.656  0.4966  0.8386 -0.2383
 9511TIP3   OH249947   5.588   0.050  11.354 -0.2376  0.4161  0.2473
 9511TIP3    H149948   5.612   0.139  11.379 -0.6127  0.9410 -1.1726
 9511TIP3    H249949   5.539   0.060  11.272  0.9071 -1.1932 -0.6947
 9512TIP3   OH249950   4.874   3.470   2.984 -0.4118 -0.2124 -0.2404
 9512TIP3    H149951   4.953   3.501   3.027  0.3721 -0.5083 -1.4325
 9512TIP3    H249952   4.870   3.519   2.902 -1.2837 -0.4352 -0.3409
 9513TIP3   OH249953   5.176   2.763  14.896 -0.1180 -0.0344 -0.1105
 9513TIP3    H149954   5.124   2.683  14.908 -1.8465  0.9159 -0.8175
 9513TIP3    H249955   5.114   2.834  14.913  0.6911  1.1875 -1.9565
 9514TIP3   OH249956   5.740   0.060  12.500  0.1658  0.4015 -0.2667
 9514TIP3    H149957   5.822   0.061  12.450 -0.5079 -1.0256 -1.5059
 9514TIP3    H249958   5.695   0.141  12.474  0.3767  0.2785 -1.0521
 9515TIP3   OH249959   3.605   3.197   3.234 -0.2741 -0.1891 -0.1192
 9515TIP3    H149960   3.570   3.261   3.296  0.5157 -1.6218  1.9211
 9515TIP3    H249961   3.699   3.214   3.232  0.2061 -2.2187  1.7261
 9516TIP3   OH249962   4.399   5.007   1.929 -0.1808  0.3161 -0.1100
 9516TIP3    H149963   4.359   5.043   2.008  0.7636 -1.4934  1.2532
 9516TIP3    H249964   4.328   4.962   1.884 -0.3098 -0.3768  0.7697
 9517TIP3   OH249965   0.323   5.022   5.193 -0.3301  0.0195 -0.2663
 9517TIP3    H149966   0.235   5.051   5.217 -0.4624 -1.1016  0.7280
 9517TIP3    H249967   0.319   5.006   5.099 -0.7455  1.4179 -0.5070
 9518TIP3   OH249968   2.295   2.272  15.992 -0.6137 -0.1874  0.2814
 9518TIP3    H149969   2.311   2.192  16.042  1.9487 -0.8108 -1.2797
 9518TIP3    H249970   2.320   2.343  16.051  0.8471 -0.8114  0.4662
 9519TIP3   OH249971   4.854   3.967   0.094 -0.9194 -0.8080  0.5432
 9519TIP3    H149972   4.827   4.009   0.176 -0.9205 -0.8732  0.5759
 9519TIP3    H249973   4.774   3.963   0.042 -0.7233  0.1523  0.1338
 9520TIP3   OH249974   4.191   3.932   3.523  0.2761 -0.1471 -0.4843
 9520TIP3    H149975   4.156   3.967   3.441  0.5843 -1.2654 -1.1218
 9520TIP3    H249976   4.149   3.846   3.531  1.1443 -0.5429 -0.0854
 9521TIP3   OH249977   2.756   3.917   4.535  0.1353  0.3597  0.4854
 9521TIP3    H149978   2.730   3.921   4.626  1.1497  0.1268  0.8000
 9521TIP3    H249979   2.682   3.954   4.487 -1.0544 -0.9234  1.2582
 9522TIP3   OH249980   5.556   0.225   2.070  0.4894  0.4880  0.5863
 9522TIP3    H149981   5.495   0.245   2.000  0.5368  0.6707  0.5955
 9522TIP3    H249982   5.632   0.188   2.026 -0.7077 -2.4382  0.7798
 9523TIP3   OH249983   5.775   5.565  14.621 -0.0788 -0.3282  0.2496
 9523TIP3    H149984   5.805   5.477  14.644  1.6695  0.0628 -0.3453
 9523TIP3    H249985   5.738   5.555  14.533 -2.8350 -1.0186  1.4036
 9524TIP3   OH249986   0.682   2.691  13.010  0.5596 -0.1225  0.4861
 9524TIP3    H149987   0.663   2.660  12.922  1.0781 -2.0753  1.0133
 9524TIP3    H249988   0.765   2.648  13.033  0.2423  0.0509  2.0630
 9525TIP3   OH249989   1.322   1.355  17.433  0.0977 -0.1269  0.6380
 9525TIP3    H149990   1.383   1.395  17.495  0.5397  0.5328 -0.2156
 9525TIP3    H249991   1.359   1.373  17.347 -0.7237 -0.6846  0.1586
 9526TIP3   OH249992   3.274   0.021  11.667  0.2735 -0.0635  0.1227
 9526TIP3    H149993   3.361  -0.014  11.687 -0.1991 -0.6218  1.3229
 9526TIP3    H249994   3.233   0.032  11.753 -0.6306  0.7606 -0.3965
 9527TIP3   OH249995   5.894   1.868   0.320 -0.1988 -0.0587 -0.0512
 9527TIP3    H149996   5.956   1.796   0.311  0.5632  0.3767  1.3176
 9527TIP3    H249997   5.842   1.845   0.397  0.1517  0.8803  0.4959
 9528TIP3   OH249998   5.860   3.982  14.186  0.4024  0.0824  0.4766
 9528TIP3    H149999   5.780   3.956  14.230  0.1187  1.0537  0.5676
 9528TIP3    H250000   5.864   3.928  14.107 -0.6336  0.4107  0.1920
 9529TIP3   OH250001   4.641   5.109  12.496  0.0756 -0.5016  0.0335
 9529TIP3    H150002   4.630   5.058  12.416  1.1547  2.1669 -1.9941
 9529TIP3    H250003   4.554   5.146  12.513  0.3356  1.0148 -1.5696
 9530TIP3   OH250004   3.729   6.197   1.490 -0.1135  0.4650  0.1256
 9530TIP3    H150005   3.752   6.255   1.563 -3.0638  0.9953  0.7657
 9530TIP3    H250006   3.706   6.114   1.531 -0.0671  0.2038 -0.3721
 9531TIP3   OH250007   3.472   0.441   5.249 -0.2694 -0.2702 -0.0606
 9531TIP3    H150008   3.415   0.366   5.266  1.0754 -1.3768 -0.3039
 9531TIP3    H250009   3.453   0.502   5.321 -2.9161  0.1579 -0.9996
 9532TIP3   OH250010   5.006   3.928   4.373  0.4540 -0.6269 -0.4267
 9532TIP3    H150011   5.013   3.982   4.294 -0.4282 -1.5178 -1.1277
 9532TIP3    H250012   5.084   3.872   4.371  1.1934  0.3393  0.1252
 9533TIP3   OH250013   1.339   3.046  11.678  0.4878  0.1815 -0.5406
 9533TIP3    H150014   1.249   3.056  11.708  0.6974 -1.3614  0.7407
 9533TIP3    H250015   1.336   2.972  11.617  0.9829 -0.2756 -0.0164
 9534TIP3   OH250016   2.693   6.080  15.611 -0.1458  0.5628 -0.1325
 9534TIP3    H150017   2.688   5.986  15.626  0.2463  0.6671  0.6946
 9534TIP3    H250018   2.625   6.097  15.545 -0.7205 -0.1908  0.2470
 9535TIP3   OH250019   5.681   2.894  16.451  0.2202  0.0498  0.3436
 9535TIP3    H150020   5.685   2.835  16.376 -2.9506  0.2816 -0.1345
 9535TIP3    H250021   5.722   2.844  16.522  1.7165 -0.8441 -1.0604
 9536TIP3   OH250022   4.233   5.888  12.116  0.5293  0.2657 -0.8293
 9536TIP3    H150023   4.198   5.800  12.103  0.8242  0.0870 -0.4176
 9536TIP3    H250024   4.242   5.924  12.028  1.2231 -0.4287 -1.0432
 9537TIP3   OH250025   3.992   6.423   3.515 -0.7186  0.2883 -0.4090
 9537TIP3    H150026   3.946   6.451   3.594 -1.4681 -0.8125 -0.4341
 9537TIP3    H250027   4.042   6.346   3.543  0.1734  0.7509 -0.6760
 9538TIP3   OH250028   3.338   5.961   0.703 -0.0084 -0.1698 -0.1773
 9538TIP3    H150029   3.368   5.907   0.629  0.7733  2.5903 -2.0083
 9538TIP3    H250030   3.243   5.953   0.702  0.0562 -1.0137 -0.7920
 9539TIP3   OH250031   1.178   2.396  15.062 -0.1381  0.0783 -0.0707
 9539TIP3    H150032   1.118   2.423  14.993 -1.5136  0.0647  1.0610
 9539TIP3    H250033   1.156   2.304  15.078 -2.0642  0.8567  2.4429
 9540TIP3   OH250034   2.760   6.006   1.202  0.3515  0.4143 -0.7032
 9540TIP3    H150035   2.677   5.959   1.198 -0.0891  1.1121 -0.1848
 9540TIP3    H250036   2.826   5.938   1.215  0.2233 -0.4491 -3.7425
 9541TIP3   OH250037   2.393   0.643   2.166 -0.0998  0.3334  0.2782
 9541TIP3    H150038   2.476   0.645   2.118  0.6925 -0.1535  1.5659
 9541TIP3    H250039   2.419   0.637   2.258 -1.5715  0.9744  0.7640
 9542TIP3   OH250040   5.357   3.523   3.477  0.5019  0.7727  0.5504
 9542TIP3    H150041   5.324   3.435   3.495 -0.7672  0.4829 -2.4823
 9542TIP3    H250042   5.450   3.510   3.455  1.1330  0.7009  2.9513
 9543TIP3   OH250043   4.351   6.560  12.811  0.5489  0.6336 -0.4169
 9543TIP3    H150044   4.257   6.571  12.815  0.5793  0.8057 -0.1844
 9543TIP3    H250045   4.366   6.510  12.730  0.2676  0.6660 -0.4894
 9544TIP3   OH250046   4.609   1.945   5.568  0.2376 -0.6887  0.2181
 9544TIP3    H150047   4.514   1.948   5.554  0.3174  0.2882 -0.1521
 9544TIP3    H250048   4.625   2.004   5.642  0.6052 -0.5294  0.0141
 9545TIP3   OH250049   0.416   4.680   2.660 -0.2967  0.3344 -0.1952
 9545TIP3    H150050   0.390   4.751   2.601 -0.2596  0.9771  0.5493
 9545TIP3    H250051   0.505   4.658   2.634 -0.7221 -0.2612 -1.2071
 9546TIP3   OH250052   0.208   3.032  11.468  0.1374  0.1286  0.9732
 9546TIP3    H150053   0.209   2.938  11.484 -2.1667 -0.5341 -1.8570
 9546TIP3    H250054   0.297   3.052  11.439  0.5897 -1.2317  1.3206
 9547TIP3   OH250055   0.891   5.300   1.090 -0.7337  0.1506 -0.3019
 9547TIP3    H150056   0.932   5.349   1.161  0.4281 -1.5863  0.2750
 9547TIP3    H250057   0.865   5.217   1.129  0.2008 -0.9698 -1.9353
 9548TIP3   OH250058   0.713   3.764   3.903 -0.1335  0.4572 -0.8141
 9548TIP3    H150059   0.657   3.824   3.853 -1.5443  0.0718  0.2579
 9548TIP3    H250060   0.653   3.697   3.936  0.9944 -0.0598  0.2369
 9549TIP3   OH250061   2.630   1.187   0.331 -0.1897 -0.1272 -0.0664
 9549TIP3    H150062   2.673   1.111   0.368 -1.4063 -0.1316  1.4251
 9549TIP3    H250063   2.651   1.259   0.391  2.2216  1.1661 -2.2320
 9550TIP3   OH250064   0.286   1.920  12.591 -0.1946 -0.3434  0.2413
 9550TIP3    H150065   0.270   1.863  12.515  1.2387  0.5091 -0.7463
 9550TIP3    H250066   0.203   1.920  12.638 -0.6143 -2.2432 -0.3952
 9551TIP3   OH250067   5.113   1.209  17.258  0.2893  0.5092 -0.7270
 9551TIP3    H150068   5.149   1.197  17.170 -0.5988 -0.6591 -0.9529
 9551TIP3    H250069   5.169   1.154  17.314 -0.9825 -1.2259 -1.0626
 9552TIP3   OH250070   4.257   0.071  14.741 -0.0339  0.2099 -0.6891
 9552TIP3    H150071   4.283   0.099  14.653  1.1711  1.1059 -0.0786
 9552TIP3    H250072   4.336   0.083  14.794 -0.6519 -0.6020  0.4574
 9553TIP3   OH250073   3.591   4.659  13.953  0.5144 -0.2772  0.1145
 9553TIP3    H150074   3.511   4.613  13.927  0.4964  0.1468 -0.5850
 9553TIP3    H250075   3.652   4.644  13.882  0.3137  1.2648 -0.4291
 9554TIP3   OH250076   0.141   0.549  13.761  0.0171 -0.3350  0.1807
 9554TIP3    H150077   0.203   0.615  13.730  0.5226 -0.3249  1.1946
 9554TIP3    H250078   0.173   0.467  13.723  0.0254 -0.1698 -0.1746
 9555TIP3   OH250079   3.538   2.593   6.865  0.2140  0.4025 -0.0553
 9555TIP3    H150080   3.575   2.610   6.778  0.8437 -0.9344 -0.0734
 9555TIP3    H250081   3.488   2.672   6.886 -0.8574  0.3226 -2.0987
 9556TIP3   OH250082   6.435   6.460   3.235 -0.4017  0.9115 -0.0386
 9556TIP3    H150083   6.468   6.506   3.158 -1.9305  1.7875 -0.1883
 9556TIP3    H250084   6.422   6.528   3.300 -1.4809  0.5301  0.1622
 9557TIP3   OH250085   3.389   4.593  15.994  0.1029 -0.1450  0.2277
 9557TIP3    H150086   3.471   4.552  16.022 -0.5143 -1.5628  0.0700
 9557TIP3    H250087   3.405   4.622  15.905  0.5031 -0.2275  0.2720
 9558TIP3   OH250088   2.618   0.989  13.589  0.1583  0.4225 -0.4685
 9558TIP3    H150089   2.591   1.002  13.680  1.1922  0.4462 -0.1435
 9558TIP3    H250090   2.641   0.897  13.584  0.1923  0.4432 -0.6788
 9559TIP3   OH250091   6.131   0.939  14.241 -0.1927  0.3969  0.3335
 9559TIP3    H150092   6.214   0.976  14.210 -0.5157  1.7021  0.9436
 9559TIP3    H250093   6.153   0.897  14.324 -0.2597  1.4166  0.8841
 9560TIP3   OH250094   5.251   5.626   4.503  0.4430 -0.7146 -0.0303
 9560TIP3    H150095   5.296   5.562   4.558  0.5428 -0.2141  0.4744
 9560TIP3    H250096   5.267   5.710   4.545  1.6294 -0.1439 -1.5513
 9561TIP3   OH250097   5.074   5.646   2.781  0.2563 -0.0206  0.2141
 9561TIP3    H150098   5.093   5.580   2.847 -0.6052  0.1384  0.6285
 9561TIP3    H250099   4.997   5.692   2.813  0.5885  0.9155 -0.2762
 9562TIP3   OH250100   4.765   3.088   2.352 -0.4392  0.2539 -0.4206
 9562TIP3    H150101   4.785   3.013   2.295  0.4775 -0.6131  0.9736
 9562TIP3    H250102   4.829   3.082   2.422 -0.3342  2.3911 -0.2694
 9563TIP3   OH250103   6.094   4.312   3.923 -0.1205 -0.8198 -0.3233
 9563TIP3    H150104   6.139   4.303   3.839  0.2114  1.5971 -0.4537
 9563TIP3    H250105   6.131   4.242   3.978  1.3221 -1.0073 -1.4762
 9564TIP3   OH250106   2.544   6.279  15.758  0.1800  0.2497  0.5249
 9564TIP3    H150107   2.568   6.187  15.751 -0.1079  0.1584  0.7267
 9564TIP3    H250108   2.449   6.278  15.772  0.2873  0.5420  1.3294
 9565TIP3   OH250109   3.517   2.954  12.912  0.4524  0.1649  0.3642
 9565TIP3    H150110   3.476   3.038  12.893  0.2495  0.0853  0.4507
 9565TIP3    H250111   3.567   2.969  12.993  0.0346  0.0752  0.6411
 9566TIP3   OH250112   6.090   5.122   5.417  0.5064  0.6116  0.6286
 9566TIP3    H150113   5.995   5.133   5.414  0.4581  0.1259  0.3812
 9566TIP3    H250114   6.124   5.195   5.363  0.3954  2.1043  2.4765
 9567TIP3   OH250115   5.719   2.926  14.845 -0.5136  0.0095 -0.5274
 9567TIP3    H150116   5.669   2.987  14.899 -0.6494 -0.2995 -0.3008
 9567TIP3    H250117   5.810   2.951  14.857 -0.6097  0.5771 -0.9416
 9568TIP3   OH250118   6.439   1.199   3.681  0.1301  0.4315 -0.2482
 9568TIP3    H150119   6.376   1.137   3.644 -0.0510  1.3175 -1.4825
 9568TIP3    H250120   6.488   1.232   3.605  0.9465  1.0010  0.5089
 9569TIP3   OH250121   2.986   1.522  13.479 -0.0010  0.2439 -0.1667
 9569TIP3    H150122   2.906   1.499  13.526  0.1555  0.2435  0.1011
 9569TIP3    H250123   3.024   1.438  13.452 -0.5208  0.2694 -1.0243
 9570TIP3   OH250124   4.523   0.821  17.164 -0.1638 -0.2588  0.4504
 9570TIP3    H150125   4.562   0.824  17.077 -2.6652 -0.1904 -0.7416
 9570TIP3    H250126   4.503   0.728  17.178 -1.4210 -0.0436  0.1485
 9571TIP3   OH250127   0.717   5.625  15.719  0.1472 -0.0620 -0.3292
 9571TIP3    H150128   0.657   5.630  15.644  0.1498  0.6159 -0.2876
 9571TIP3    H250129   0.768   5.705  15.715  2.3802 -1.4434 -1.4507
 9572TIP3   OH250130   4.477   0.679  14.966  0.1132  0.3156 -0.6600
 9572TIP3    H150131   4.404   0.709  14.913  0.1870 -1.3229 -1.7500
 9572TIP3    H250132   4.481   0.585  14.951  2.1532  0.2921 -0.2588
 9573TIP3   OH250133   2.491   3.202  17.067 -0.4542 -0.6411 -0.4240
 9573TIP3    H150134   2.527   3.262  17.132 -0.5417 -0.3948 -0.6017
 9573TIP3    H250135   2.470   3.123  17.117 -1.0652 -0.2434 -0.0395
 9574TIP3   OH250136   6.674   0.420   1.887  0.7895  0.1435 -0.0434
 9574TIP3    H150137   6.667   0.510   1.919 -1.9086  0.8795 -2.2499
 9574TIP3    H250138   6.584   0.391   1.880  1.5416 -2.1407 -1.0169
 9575TIP3   OH250139   6.634   6.188  11.862 -0.2958  0.5247 -0.4074
 9575TIP3    H150140   6.548   6.190  11.905 -0.3565 -1.4038 -0.3581
 9575TIP3    H250141   6.682   6.118  11.907  0.5490  0.1673 -1.7895
 9576TIP3   OH250142   0.729   6.341  12.863 -0.1662 -0.2533  0.5930
 9576TIP3    H150143   0.764   6.279  12.799 -1.8970 -1.8025  1.0492
 9576TIP3    H250144   0.804   6.365  12.917  0.5561 -2.0601  0.4626
 9577TIP3   OH250145   4.535   1.886  14.175  0.2760  0.0065  0.7875
 9577TIP3    H150146   4.571   1.842  14.252  0.5185  1.7193  1.7075
 9577TIP3    H250147   4.577   1.842  14.101 -0.3894 -2.0705  1.5626
 9578TIP3   OH250148   2.275   1.533  12.161  0.3959 -0.2215 -0.0257
 9578TIP3    H150149   2.198   1.532  12.218 -0.2019 -0.3625 -0.8140
 9578TIP3    H250150   2.287   1.626  12.138 -0.8993 -0.4046 -1.6548
 9579TIP3   OH250151   6.034   1.911   1.023 -0.2390  0.1877  0.3673
 9579TIP3    H150152   6.001   1.903   0.934  0.2447  0.2152  0.1816
 9579TIP3    H250153   5.974   1.972   1.066 -1.6255 -1.3007  0.6409
 9580TIP3   OH250154   4.282   0.251  12.051 -1.0184 -1.0296  0.6260
 9580TIP3    H150155   4.211   0.244  12.115 -1.9424  0.7281 -0.1360
 9580TIP3    H250156   4.237   0.267  11.968  0.2071 -2.1139 -0.2856
 9581TIP3   OH250157   1.983   4.741   1.771 -0.1636  0.5332  0.0734
 9581TIP3    H150158   2.020   4.686   1.702 -0.2222  0.7275 -0.1140
 9581TIP3    H250159   1.888   4.735   1.757 -0.1415  1.3002 -0.4293
 9582TIP3   OH250160   2.219   6.195  12.435 -0.1203 -0.0847  0.4518
 9582TIP3    H150161   2.252   6.227  12.519 -2.3315  3.0587  0.2918
 9582TIP3    H250162   2.124   6.207  12.441 -0.5786 -2.0109 -1.6726
 9583TIP3   OH250163   5.806   0.101   3.960 -0.2067 -0.2230  0.8758
 9583TIP3    H150164   5.813   0.007   3.946 -0.9369 -0.0981 -0.5199
 9583TIP3    H250165   5.883   0.138   3.916 -0.1743 -0.1252  1.0110
 9584TIP3   OH250166   2.151   4.011  11.758 -0.2402  0.1766  0.4066
 9584TIP3    H150167   2.110   4.047  11.679  2.2599  2.2004 -0.0875
 9584TIP3    H250168   2.132   4.075  11.826  1.2300  0.6905  0.3731
 9585TIP3   OH250169   2.057   0.488  15.520  0.5657  0.3637  0.3247
 9585TIP3    H150170   2.016   0.445  15.445 -0.4009  2.1753 -0.2458
 9585TIP3    H250171   2.130   0.431  15.543 -0.4648 -1.4064 -0.5528
 9586TIP3   OH250172   3.822   4.878   2.249 -0.4700  0.2567 -0.2907
 9586TIP3    H150173   3.832   4.842   2.338  0.0159 -0.5734 -0.6656
 9586TIP3    H250174   3.788   4.966   2.263 -3.5517 -0.9200  0.6506
 9587TIP3   OH250175   1.045   0.600  11.769  0.3338 -0.4154 -0.6660
 9587TIP3    H150176   1.016   0.533  11.706 -1.6816 -0.7714  0.5551
 9587TIP3    H250177   1.095   0.551  11.835  0.7376 -0.3430 -0.9092
 9588TIP3   OH250178   3.868   6.385  15.561 -0.4876 -0.1094 -0.2214
 9588TIP3    H150179   3.872   6.467  15.512 -0.6283  0.6794  1.0211
 9588TIP3    H250180   3.877   6.317  15.495  0.6970  0.9141 -1.1860
 9589TIP3   OH250181   3.293   4.915  11.623  0.4004  0.1864  0.4205
 9589TIP3    H150182   3.266   5.007  11.623  1.0700  0.3893  0.4871
 9589TIP3    H250183   3.287   4.888  11.714 -0.3395 -0.0078  0.3211
 9590TIP3   OH250184   0.414   1.393   1.401 -0.2329 -1.2874 -0.5001
 9590TIP3    H150185   0.350   1.454   1.438  1.2692 -0.1580  0.3962
 9590TIP3    H250186   0.391   1.308   1.437  0.9732 -0.3026  2.9866
 9591TIP3   OH250187   3.510   0.248   1.004  0.1610  0.0530 -0.1298
 9591TIP3    H150188   3.563   0.222   0.928 -2.2228  0.9747 -2.2650
 9591TIP3    H250189   3.474   0.166   1.037 -1.7868 -0.1499 -2.4825
 9592TIP3   OH250190   5.566   5.093  13.675 -0.3268 -0.4858  0.1620
 9592TIP3    H150191   5.594   5.132  13.758 -0.0873  1.5212 -0.8090
 9592TIP3    H250192   5.493   5.036  13.699 -0.5561  0.3948  1.7025
 9593TIP3   OH250193   3.990   4.390   4.750  0.0298  0.9879 -0.5572
 9593TIP3    H150194   3.935   4.468   4.758 -0.8038  0.5304 -1.5882
 9593TIP3    H250195   3.983   4.347   4.835 -1.5948  0.7107 -0.8025
 9594TIP3   OH250196   5.456   3.937   3.289  0.6924  0.1152 -0.1663
 9594TIP3    H150197   5.444   4.032   3.286 -0.4828 -0.0202 -3.4960
 9594TIP3    H250198   5.367   3.902   3.281  1.1197 -1.3122  0.9777
 9595TIP3   OH250199   1.844   2.146  12.878  0.4603  0.1274  0.1092
 9595TIP3    H150200   1.762   2.185  12.849  0.1753 -0.2949  0.3375
 9595TIP3    H250201   1.818   2.078  12.941  1.0172  0.4239  0.6757
 9596TIP3   OH250202   5.815   3.971   3.849 -0.4187  0.3663 -0.2599
 9596TIP3    H150203   5.850   3.988   3.761 -0.4933 -0.3463 -0.4377
 9596TIP3    H250204   5.891   3.941   3.899 -0.8294 -1.6768 -0.7855
 9597TIP3   OH250205   0.261   2.211  17.203 -0.1314  0.1773  0.2242
 9597TIP3    H150206   0.324   2.199  17.131  2.5943 -0.0269  2.4374
 9597TIP3    H250207   0.232   2.122  17.224 -0.2773  0.1543 -0.0673
 9598TIP3   OH250208   3.492   5.476  11.297  0.4053 -0.1839  0.1458
 9598TIP3    H150209   3.431   5.541  11.263  0.5566  0.0206  0.2676
 9598TIP3    H250210   3.578   5.505  11.267  0.1519 -2.6963 -3.7382
 9599TIP3   OH250211   4.234   6.628   2.335 -0.2940 -0.4442 -0.1406
 9599TIP3    H150212   4.177   6.603   2.408  0.4533 -0.3190  0.5065
 9599TIP3    H250213   4.305   6.563   2.338  0.3646  0.2722  0.0031
 9600TIP3   OH250214   3.676   3.309  12.131 -0.4089 -0.2345 -0.7819
 9600TIP3    H150215   3.726   3.242  12.086  0.5671 -0.5873  0.7352
 9600TIP3    H250216   3.733   3.385  12.134 -0.4264 -0.2399 -0.0999
 9601TIP3   OH250217   3.843   2.442  11.914 -0.1115 -0.2606 -0.3869
 9601TIP3    H150218   3.792   2.514  11.950 -2.2040 -1.4753 -0.8017
 9601TIP3    H250219   3.793   2.363  11.935 -0.1767 -1.2501 -3.6887
 9602TIP3   OH250220   3.276   0.675  11.592 -0.3035  0.7494 -0.1233
 9602TIP3    H150221   3.306   0.592  11.555 -1.6708 -0.4232  1.2757
 9602TIP3    H250222   3.318   0.681  11.677  1.2306  2.4550 -0.9126
 9603TIP3   OH250223   2.391   4.689   2.179 -0.4386  0.0641  0.1526
 9603TIP3    H150224   2.398   4.614   2.120 -0.5537  0.2621 -0.1135
 9603TIP3    H250225   2.428   4.762   2.129 -0.0188  0.1202  0.5326
 9604TIP3   OH250226   1.417   2.757  11.834  0.1760  0.2590 -0.3647
 9604TIP3    H150227   1.421   2.832  11.774  0.5140  0.2739 -0.3269
 9604TIP3    H250228   1.331   2.718  11.818 -1.0205  2.0327  1.2643
 9605TIP3   OH250229   4.237   6.195  16.720  0.4896  0.3409  0.4094
 9605TIP3    H150230   4.324   6.164  16.743 -0.9725 -3.3779  1.7146
 9605TIP3    H250231   4.193   6.210  16.804  0.2690  3.8983 -0.1911
 9606TIP3   OH250232   4.912   0.843   3.574  0.2641 -0.0191 -0.0966
 9606TIP3    H150233   4.985   0.824   3.633  1.1237 -0.3394 -1.2274
 9606TIP3    H250234   4.952   0.849   3.488 -0.7760  1.7684 -0.5030
 9607TIP3   OH250235   5.127   2.961   2.697 -0.3585 -0.1258  0.0960
 9607TIP3    H150236   5.103   3.028   2.761 -1.3186  0.8263 -1.2145
 9607TIP3    H250237   5.216   2.984   2.670 -0.2547 -0.0653  0.4805
 9608TIP3   OH250238   2.060   4.337  14.787 -0.3903  0.4601 -0.5660
 9608TIP3    H150239   2.010   4.398  14.840  0.1118  0.1285  0.2973
 9608TIP3    H250240   2.140   4.384  14.763 -0.2803  0.3506 -0.4131
 9609TIP3   OH250241   4.064   3.074  13.106  0.0292 -0.1289  0.0571
 9609TIP3    H150242   4.101   3.162  13.107 -0.8695  0.2544  0.4493
 9609TIP3    H250243   4.046   3.056  13.013 -0.4713  0.3951  0.0518
 9610TIP3   OH250244   4.969   2.959   0.037  0.0930 -0.2367 -0.1543
 9610TIP3    H150245   4.881   2.923   0.027 -0.2595  1.0389 -2.1990
 9610TIP3    H250246   5.011   2.943  -0.047  0.9486  1.3977 -0.0778
 9611TIP3   OH250247   1.898   6.287   6.129  0.0765  0.3519 -0.8326
 9611TIP3    H150248   1.967   6.350   6.109 -1.0733  1.2105 -2.3779
 9611TIP3    H250249   1.834   6.298   6.057 -2.0837  0.2321  0.9545
 9612TIP3   OH250250   5.914   1.899   1.855  0.2114  0.2929 -0.2635
 9612TIP3    H150251   5.870   1.971   1.812 -0.6579  0.6105  1.0923
 9612TIP3    H250252   5.983   1.941   1.907  0.9006 -0.0347 -0.8894
 9613TIP3   OH250253   3.661   3.969   0.795 -0.6910 -0.2084 -0.1145
 9613TIP3    H150254   3.668   4.021   0.875 -2.7382 -3.8522  2.7400
 9613TIP3    H250255   3.739   3.914   0.795 -0.6831 -0.1993 -0.6512
 9614TIP3   OH250256   0.944   5.601  16.063 -0.0294 -0.5196  0.0941
 9614TIP3    H150257   1.031   5.634  16.039  0.9750 -3.0073  0.0012
 9614TIP3    H250258   0.929   5.636  16.151  1.1004 -0.0608  0.1287
 9615TIP3   OH250259   3.434   5.729  11.842  0.2287  0.4167  0.8113
 9615TIP3    H150260   3.458   5.748  11.933  1.1403  0.1914  0.6255
 9615TIP3    H250261   3.507   5.676  11.809 -0.1427  0.4228 -0.0243
 9616TIP3   OH250262   0.711   5.108  15.928 -0.1640 -0.9332 -0.5120
 9616TIP3    H150263   0.706   5.161  15.848  1.8869  1.4502  0.7947
 9616TIP3    H250264   0.620   5.099  15.957 -0.6502  1.5562 -1.0693
 9617TIP3   OH250265   6.330   2.394  12.874 -0.6503  0.1947  0.4452
 9617TIP3    H150266   6.379   2.474  12.857 -1.2469  0.3207 -0.8089
 9617TIP3    H250267   6.276   2.381  12.796 -0.4886 -1.4926  0.5579
 9618TIP3   OH250268   1.920   5.736  15.476 -0.3929  0.2218  0.3141
 9618TIP3    H150269   1.995   5.678  15.481 -0.7013 -0.0902  1.8151
 9618TIP3    H250270   1.951   5.812  15.426 -0.9514 -2.5968 -5.0151
 9619TIP3   OH250271   4.652   5.763   0.235 -0.3030 -0.4060  0.4357
 9619TIP3    H150272   4.669   5.673   0.207  1.7971 -0.0359  0.3548
 9619TIP3    H250273   4.622   5.808   0.156 -1.0957 -0.9536  0.4151
 9620TIP3   OH250274   4.578   3.121   5.212  0.3787 -0.4123  0.4662
 9620TIP3    H150275   4.548   3.033   5.189 -0.4337  0.3096 -1.3937
 9620TIP3    H250276   4.665   3.127   5.174 -0.6401  0.4893 -1.9127
 9621TIP3   OH250277   2.280   1.259  15.004 -0.0375 -0.2516  0.0332
 9621TIP3    H150278   2.334   1.323  15.051 -2.2182  1.3831  0.4688
 9621TIP3    H250279   2.335   1.181  14.999  2.2534  1.2207  0.6287
 9622TIP3   OH250280   3.668   3.917   0.029 -0.0415 -0.1393  0.6053
 9622TIP3    H150281   3.610   3.991   0.006 -1.4111 -1.3027  0.1586
 9622TIP3    H250282   3.714   3.897  -0.053  0.0026 -0.0719  0.6126
 9623TIP3   OH250283   4.052   5.230  17.500 -0.2587  0.3250 -0.0780
 9623TIP3    H150284   3.964   5.267  17.506 -1.0619 -1.6943  1.9314
 9623TIP3    H250285   4.039   5.135  17.499  1.8499 -0.0317 -1.7643
 9624TIP3   OH250286   6.256   0.114  12.567  0.3940 -0.1585 -0.0561
 9624TIP3    H150287   6.286   0.191  12.615 -0.6165  0.9546 -1.1512
 9624TIP3    H250288   6.302   0.041  12.609 -0.1998  0.7668  2.4049
 9625TIP3   OH250289   6.027   0.059  10.865  0.0703  0.3553  0.1429
 9625TIP3    H150290   6.036  -0.036  10.869 -0.4573  0.3116  0.4763
 9625TIP3    H250291   6.098   0.088  10.808 -0.2747 -0.3163 -0.6376
 9626TIP3   OH250292   3.591   1.231   0.474  0.1987 -0.0742 -0.5235
 9626TIP3    H150293   3.674   1.279   0.482 -0.3215  0.7913 -0.2074
 9626TIP3    H250294   3.596   1.189   0.388  1.5329 -1.1531  0.0331
 9627TIP3   OH250295   3.398   2.026  11.546 -0.1783 -0.0165  0.1800
 9627TIP3    H150296   3.456   1.963  11.503  1.6940  0.8649  1.3220
 9627TIP3    H250297   3.358   2.074  11.474  2.9232  1.4684 -0.7083
 9628TIP3   OH250298   0.281   6.106  16.271 -0.1289  0.0558  0.0326
 9628TIP3    H150299   0.251   6.068  16.353  0.0193 -0.6038 -0.2089
 9628TIP3    H250300   0.284   6.200  16.287 -1.9327  0.1211  0.1876
 9629TIP3   OH250301   2.533   3.351  15.601 -0.1717 -0.4759 -0.4053
 9629TIP3    H150302   2.523   3.287  15.671 -1.1579 -1.1275 -1.1108
 9629TIP3    H250303   2.444   3.367  15.569  0.2245 -0.0025 -1.3380
 9630TIP3   OH250304   4.539   6.293  15.317  0.0133 -0.0310 -0.0596
 9630TIP3    H150305   4.557   6.334  15.233 -0.0790  1.4603  0.6127
 9630TIP3    H250306   4.514   6.365  15.374 -0.7676 -1.1113  1.0271
 9631TIP3   OH250307   5.670   5.086   5.719 -0.3964 -0.7579  0.7430
 9631TIP3    H150308   5.607   5.058   5.652  0.4428 -1.3735  0.1872
 9631TIP3    H250309   5.669   5.182   5.714 -1.8786 -0.7188  1.3128
 9632TIP3   OH250310   3.979   0.745   3.327 -0.5864  0.1276  0.1594
 9632TIP3    H150311   3.898   0.792   3.304  0.4099  2.6083  1.3404
 9632TIP3    H250312   3.953   0.687   3.398 -1.4073  0.6477  0.3037
 9633TIP3   OH250313   1.686   2.242   1.661  0.5627 -0.0100 -0.3522
 9633TIP3    H150314   1.656   2.163   1.706 -0.8681  0.9005  0.4105
 9633TIP3    H250315   1.725   2.295   1.730 -2.1330  1.6378  0.0746
 9634TIP3   OH250316   0.637   2.266   1.444  0.1428 -0.2511 -0.1847
 9634TIP3    H150317   0.631   2.175   1.473  1.6439 -0.3093  0.0487
 9634TIP3    H250318   0.584   2.315   1.506  0.6644 -0.7768  0.6950
 9635TIP3   OH250319   6.483   3.432   5.609 -0.1688 -0.1683  0.3243
 9635TIP3    H150320   6.423   3.378   5.558  1.2622 -1.6389  0.0969
 9635TIP3    H250321   6.477   3.398   5.698 -0.5750  0.5114  0.5632
 9636TIP3   OH250322   5.200   5.623  14.472 -0.1145  0.5871 -0.6158
 9636TIP3    H150323   5.244   5.619  14.387  1.8037 -1.0962  0.3783
 9636TIP3    H250324   5.246   5.691  14.520  0.6550 -0.3392 -0.0022
 9637TIP3   OH250325   4.902   2.167   0.724 -0.7154 -1.0302  0.3240
 9637TIP3    H150326   4.839   2.218   0.673  2.8787  1.0893 -2.4527
 9637TIP3    H250327   4.941   2.106   0.662  2.1810  0.0147  0.9434
 9638TIP3   OH250328   4.417   4.582   5.382 -0.3421 -0.6282 -0.3148
 9638TIP3    H150329   4.364   4.547   5.454  0.1229 -2.7069 -0.9042
 9638TIP3    H250330   4.484   4.515   5.367  0.5699  0.5197 -1.6116
 9639TIP3   OH250331   1.699   0.956  11.782  0.4812  0.0972  0.1861
 9639TIP3    H150332   1.604   0.955  11.770  0.4375  0.2218  0.5293
 9639TIP3    H250333   1.715   0.904  11.860  0.5630  1.3610  1.0398
 9640TIP3   OH250334   5.188   4.991   2.259 -0.2180  0.6690  0.9053
 9640TIP3    H150335   5.170   4.919   2.199 -0.7214  0.8705  0.8056
 9640TIP3    H250336   5.138   4.969   2.338  0.5124  0.3607  1.2881
 9641TIP3   OH250337   1.571   4.857  12.029 -0.0745 -0.2910  0.0676
 9641TIP3    H150338   1.596   4.780  11.978 -1.2452  0.0412 -1.0406
 9641TIP3    H250339   1.648   4.875  12.083  0.7708 -1.3408 -0.7359
 9642TIP3   OH250340   5.698   3.378  15.719  0.0716  0.4031 -0.0025
 9642TIP3    H150341   5.673   3.455  15.770  0.5546 -1.1194  2.7308
 9642TIP3    H250342   5.623   3.364  15.660 -1.6131  0.9714  1.8794
 9643TIP3   OH250343   2.372   1.936   2.927 -0.1954 -0.0660 -0.2617
 9643TIP3    H150344   2.327   1.968   3.005  1.4605  0.0432  0.6969
 9643TIP3    H250345   2.307   1.882   2.882 -1.1441 -0.2739  1.2876
 9644TIP3   OH250346   2.508   1.528  14.233 -0.4110 -0.4514  0.1775
 9644TIP3    H150347   2.557   1.547  14.153  1.8764 -0.8514  1.4037
 9644TIP3    H250348   2.545   1.587  14.298 -0.8701 -1.4719  1.4033
 9645TIP3   OH250349   4.576   5.302  15.446  0.0009  0.0051  0.0422
 9645TIP3    H150350   4.529   5.220  15.460 -0.6434  0.4678  0.7029
 9645TIP3    H250351   4.601   5.300  15.354  2.8309 -2.3840  0.6955
 9646TIP3   OH250352   3.928   4.131   4.604  0.2156  0.5150  0.1937
 9646TIP3    H150353   3.981   4.140   4.525 -1.7358  1.5189 -1.0892
 9646TIP3    H250354   3.965   4.195   4.665  1.6623 -0.1847  0.0969
 9647TIP3   OH250355   6.361   3.256  16.626  0.3075 -0.3414 -0.4325
 9647TIP3    H150356   6.301   3.281  16.696  0.9604 -0.2854  0.1062
 9647TIP3    H250357   6.439   3.310  16.639  2.0771 -3.0646  1.2222
 9648TIP3   OH250358   4.084   5.004   3.451  0.6525 -0.0683  0.2949
 9648TIP3    H150359   4.024   4.951   3.503 -1.6621  2.1014  0.0345
 9648TIP3    H250360   4.161   5.014   3.505 -0.3275 -0.6721  1.8636
 9649TIP3   OH250361   0.182   4.250  13.788 -1.0107  0.4056 -0.0286
 9649TIP3    H150362   0.103   4.302  13.800 -0.2090  1.1945  2.2595
 9649TIP3    H250363   0.168   4.171  13.840 -0.2403  0.6349  0.5473
 9650TIP3   OH250364   4.180   6.489  15.418  0.4123 -0.3109  0.5527
 9650TIP3    H150365   4.152   6.440  15.341 -0.9251 -0.9104  1.3932
 9650TIP3    H250366   4.108   6.549  15.436  1.3688  0.9148  0.4657
 9651TIP3   OH250367   2.819   0.716   2.763  0.2129  0.0393  0.2871
 9651TIP3    H150368   2.807   0.626   2.792  0.3759 -0.0741  0.0063
 9651TIP3    H250369   2.774   0.769   2.829  1.8456 -0.1183  1.5920
 9652TIP3   OH250370   1.449   3.328   0.553 -0.2721 -0.2682 -0.2203
 9652TIP3    H150371   1.423   3.237   0.566  0.7709 -0.4062  1.2430
 9652TIP3    H250372   1.377   3.367   0.504 -0.2895 -2.1078 -1.7756
 9653TIP3   OH250373   6.556   2.067   0.292 -0.0891 -0.6496 -0.5882
 9653TIP3    H150374   6.531   2.114   0.372 -0.5145 -1.3526 -0.2962
 9653TIP3    H250375   6.651   2.077   0.287 -0.1564  0.1655 -0.4930
 9654TIP3   OH250376   2.644   4.169   1.935 -0.2989 -0.0205  0.3944
 9654TIP3    H150377   2.735   4.168   1.966 -0.5078 -0.0287  1.0220
 9654TIP3    H250378   2.599   4.106   1.991 -0.3320 -1.3558 -1.0707
 9655TIP3   OH250379   1.958   2.427  12.072 -0.4657 -0.5568  0.3650
 9655TIP3    H150380   1.869   2.407  12.042 -0.7197 -1.8117  1.8344
 9655TIP3    H250381   2.010   2.351  12.044  0.1816  0.1625 -0.4736
 9656TIP3   OH250382   2.835   5.495   0.006 -0.3266 -0.2389 -0.4177
 9656TIP3    H150383   2.775   5.543   0.063  0.1743 -0.0140 -0.0749
 9656TIP3    H250384   2.820   5.532  -0.081 -1.0415 -0.5330 -0.4196
 9657TIP3   OH250385   1.085   2.244  15.369  0.6178 -0.1344 -0.8692
 9657TIP3    H150386   1.019   2.241  15.300  1.5060 -0.2409 -1.7439
 9657TIP3    H250387   1.062   2.320  15.422 -1.2278 -1.1942 -0.0755
 9658TIP3   OH250388   3.780   2.441  15.333  0.1111  0.1037 -0.2085
 9658TIP3    H150389   3.686   2.453  15.343  0.1778 -0.4597  1.4071
 9658TIP3    H250390   3.815   2.531  15.327 -0.4043  0.3757  0.6789
 9659TIP3   OH250391   2.647   1.981   2.901 -0.0176  0.1634 -0.2625
 9659TIP3    H150392   2.555   1.956   2.899 -0.5056  1.9264 -1.8998
 9659TIP3    H250393   2.659   2.020   2.988 -1.1156  0.9593 -0.4552
 9660TIP3   OH250394   3.977   0.849   1.088 -0.6426  0.8063 -0.2589
 9660TIP3    H150395   3.988   0.804   1.172  1.6779  0.0821 -0.8811
 9660TIP3    H250396   3.897   0.811   1.051  1.0944 -2.8467 -0.6822
 9661TIP3   OH250397   4.474   2.535   4.008 -0.6399 -0.3242 -0.5914
 9661TIP3    H150398   4.527   2.466   3.967 -0.0597 -0.7047  0.7463
 9661TIP3    H250399   4.468   2.508   4.100  2.7368  3.2333  0.9300
 9662TIP3   OH250400   5.661   4.478   6.104 -0.4501  0.1988 -0.1133
 9662TIP3    H150401   5.587   4.486   6.044  0.1434  1.4727 -0.7204
 9662TIP3    H250402   5.707   4.562   6.098 -0.4231  0.4285  2.2380
 9663TIP3   OH250403   6.488   1.659   1.697 -0.6899  0.3437  0.3702
 9663TIP3    H150404   6.409   1.687   1.743 -0.3786  0.3080  0.9477
 9663TIP3    H250405   6.498   1.567   1.721 -0.2768  0.4448  0.6067
 9664TIP3   OH250406   4.534   1.513   2.674  0.1752 -0.5747  0.0659
 9664TIP3    H150407   4.443   1.484   2.665 -0.1832  0.0849  1.3229
 9664TIP3    H250408   4.531   1.608   2.669  0.7678 -0.5353  0.2896
 9665TIP3   OH250409   4.367   2.950   0.957  0.4783 -0.2502  0.5991
 9665TIP3    H150410   4.358   2.861   0.922  1.7182 -1.3253  2.7584
 9665TIP3    H250411   4.444   2.986   0.912  0.1643 -0.3773 -0.0492
 9666TIP3   OH250412   2.798   0.982   2.437 -0.1228 -0.2046  0.2182
 9666TIP3    H150413   2.856   1.046   2.478  2.3662 -2.1335 -0.0823
 9666TIP3    H250414   2.721   1.033   2.411  0.6329  2.1557  2.1799
 9667TIP3   OH250415   5.330   5.405  11.251 -0.2262  0.2478  0.3696
 9667TIP3    H150416   5.267   5.476  11.240 -1.3626 -0.7960 -0.0982
 9667TIP3    H250417   5.290   5.330  11.208  2.2584  0.0194 -1.8215
 9668TIP3   OH250418   1.679   2.154   0.684 -0.2277 -0.2151 -0.3054
 9668TIP3    H150419   1.651   2.218   0.619 -2.0140 -0.5385  0.0930
 9668TIP3    H250420   1.711   2.080   0.633 -2.8973 -1.0412 -0.9584
 9669TIP3   OH250421   2.899   3.450   1.138 -0.3950  0.3530  0.3540
 9669TIP3    H150422   2.924   3.422   1.050 -0.2213  1.0814  0.1660
 9669TIP3    H250423   2.819   3.401   1.157 -0.2587 -0.0458 -0.0736
 9670TIP3   OH250424   5.773   3.499   4.618  0.5740 -0.4092  0.2354
 9670TIP3    H150425   5.770   3.568   4.684 -1.5424 -0.9654  0.7772
 9670TIP3    H250426   5.715   3.431   4.652  1.2742 -1.7272 -1.1031
 9671TIP3   OH250427   2.699   3.426   4.389  0.1319 -0.4165  0.5888
 9671TIP3    H150428   2.759   3.351   4.389  1.4801  0.5739 -1.2937
 9671TIP3    H250429   2.725   3.477   4.312 -1.2249  1.6182  1.4102
 9672TIP3   OH250430   3.713   0.009   3.442  0.2720 -0.4424 -0.1366
 9672TIP3    H150431   3.806  -0.011   3.436  0.4296  0.6283 -1.9693
 9672TIP3    H250432   3.669  -0.075   3.425  0.8723 -1.0023  0.9760
 9673TIP3   OH250433   2.559   5.282  13.264 -0.2865 -0.1897  0.0396
 9673TIP3    H150434   2.613   5.204  13.276 -1.4332 -1.1080 -0.5302
 9673TIP3    H250435   2.469   5.248  13.262 -0.6927  0.5794 -3.8319
 9674TIP3   OH250436   3.734   4.041   3.516 -0.3502 -0.2410  0.5535
 9674TIP3    H150437   3.704   4.047   3.607 -1.3875  1.0574  0.1677
 9674TIP3    H250438   3.799   4.111   3.507  0.9186 -1.3720  0.6874
 9675TIP3   OH250439   3.680   6.436  16.983 -0.1842 -0.1206  0.0994
 9675TIP3    H150440   3.598   6.475  16.954  0.0216 -1.1423 -2.0727
 9675TIP3    H250441   3.746   6.502  16.962  0.1006 -1.2168 -3.0780
 9676TIP3   OH250442   0.794   1.863   6.252 -0.3450 -0.1097  0.0293
 9676TIP3    H150443   0.718   1.880   6.308  0.7890  0.9371  1.2960
 9676TIP3    H250444   0.843   1.945   6.250 -0.6357  0.1305 -3.0772
 9677TIP3   OH250445   1.092   5.497  12.878  0.0391  0.1625  0.1102
 9677TIP3    H150446   1.159   5.429  12.879 -0.4641 -0.3371  0.5464
 9677TIP3    H250447   1.124   5.564  12.939  0.1660 -0.0455  0.2724
 9678TIP3   OH250448   1.082   6.127  15.328 -0.5094 -0.2404 -0.1284
 9678TIP3    H150449   1.169   6.108  15.363 -0.1693  0.6353 -0.4717
 9678TIP3    H250450   1.097   6.155  15.238 -1.1193  0.1231 -0.1311
 9679TIP3   OH250451   2.180   3.093  16.956  0.2659 -0.1943 -0.1714
 9679TIP3    H150452   2.113   3.124  16.895 -0.2733 -0.9540  0.0041
 9679TIP3    H250453   2.142   3.107  17.042  0.0348 -1.2126 -0.0842
 9680TIP3   OH250454   0.991   3.972  15.872  0.4742  0.0297 -1.0908
 9680TIP3    H150455   1.070   3.935  15.833  2.3970  0.3633  2.1019
 9680TIP3    H250456   1.011   4.064  15.885 -0.8003  0.3120 -0.9810
 9681TIP3   OH250457   1.028   5.026   0.589 -0.4593  0.3329  0.4861
 9681TIP3    H150458   0.976   5.022   0.670 -1.3897 -2.9375 -0.1333
 9681TIP3    H250459   0.963   5.013   0.519  0.6395  0.7164 -0.6315
 9682TIP3   OH250460   4.816   0.256   3.590 -0.0364 -0.4953  0.6106
 9682TIP3    H150461   4.791   0.190   3.656 -2.7681  0.2802  0.4685
 9682TIP3    H250462   4.853   0.328   3.641  3.8740 -2.3236  0.7101
 9683TIP3   OH250463   2.554   1.599   5.780 -0.0603  0.0416 -0.0371
 9683TIP3    H150464   2.644   1.573   5.799  0.0484  0.8283  0.6022
 9683TIP3    H250465   2.509   1.594   5.864 -0.9697 -1.6295 -0.5919
 9684TIP3   OH250466   5.031   4.637  15.565 -0.3405 -0.4284  0.0556
 9684TIP3    H150467   5.037   4.664  15.657  0.2868 -1.1784  0.2564
 9684TIP3    H250468   5.090   4.696  15.519 -0.8399  0.1062  0.0936
 9685TIP3   OH250469   4.821   6.631  11.309 -0.5311 -0.2524 -0.2360
 9685TIP3    H150470   4.809   6.688  11.386 -3.7731 -1.2075  0.1051
 9685TIP3    H250471   4.816   6.691  11.235  0.9063  0.4524  0.1857
 9686TIP3   OH250472   1.737   4.297  11.467  0.3087  0.1299  0.1816
 9686TIP3    H150473   1.734   4.252  11.383 -0.6171  0.7403 -0.1258
 9686TIP3    H250474   1.825   4.280  11.501  0.3241 -1.0112 -0.4112
 9687TIP3   OH250475   0.860   4.693  17.209  0.6280 -0.0162 -0.2515
 9687TIP3    H150476   0.950   4.727  17.210  0.4274  0.5263  0.1008
 9687TIP3    H250477   0.806   4.769  17.189  0.2306 -0.3027 -0.2822
 9688TIP3   OH250478   0.182   4.130   6.184 -0.5827  0.1684  0.0929
 9688TIP3    H150479   0.246   4.097   6.247 -0.0401 -1.9827 -1.4633
 9688TIP3    H250480   0.224   4.116   6.099 -1.2846  2.9710 -0.7960
 9689TIP3   OH250481   6.382   6.512  12.413 -0.3303  0.0493 -0.5123
 9689TIP3    H150482   6.448   6.577  12.385  0.7607 -1.2562 -1.1060
 9689TIP3    H250483   6.365   6.533  12.504  1.2888  0.1525 -0.1956
 9690TIP3   OH250484   3.557   6.104   5.444 -0.2619 -0.8107 -0.3010
 9690TIP3    H150485   3.472   6.127   5.481 -0.4058 -0.7652 -0.6549
 9690TIP3    H250486   3.562   6.153   5.362  0.7818  0.4352  0.4754
 9691TIP3   OH250487   0.101   3.390  16.594  0.2410 -0.3107  0.1734
 9691TIP3    H150488   0.162   3.395  16.667 -1.0378 -0.8479  1.3190
 9691TIP3    H250489   0.157   3.379  16.517  1.8432  3.1160  0.6179
 9692TIP3   OH250490   3.209   2.389  12.553 -0.4005 -0.5771  0.0603
 9692TIP3    H150491   3.152   2.345  12.616 -0.0605  0.8054  1.4243
 9692TIP3    H250492   3.154   2.406  12.477 -1.7391  0.3746  1.1940
 9693TIP3   OH250493   4.097   6.144  13.355 -0.2788  0.6535 -0.3359
 9693TIP3    H150494   4.095   6.069  13.414  2.4075  1.4871  0.9947
 9693TIP3    H250495   4.160   6.119  13.287 -1.2571  0.7872 -1.3301
 9694TIP3   OH250496   5.847   4.495   2.461 -0.0560  0.5549  0.2086
 9694TIP3    H150497   5.756   4.509   2.437  0.3275  1.0834 -0.9846
 9694TIP3    H250498   5.860   4.400   2.453 -0.1771  0.6241 -0.8128
 9695TIP3   OH250499   1.474   1.153   5.367  0.0399  0.0473  0.3024
 9695TIP3    H150500   1.385   1.151   5.401 -0.3386 -0.6830 -0.6718
 9695TIP3    H250501   1.478   1.079   5.306  2.0513 -1.4363  2.0922
 9696TIP3   OH250502   1.696   5.100  17.421  0.0463  0.5617 -0.3354
 9696TIP3    H150503   1.705   5.005  17.417 -0.0759  0.5853 -1.4485
 9696TIP3    H250504   1.741   5.132  17.343 -0.6112  1.3603 -0.4102
 9697TIP3   OH250505   6.424   2.605  13.090  0.3364  0.4899 -0.0119
 9697TIP3    H150506   6.520   2.597  13.087  0.4943  2.1180 -0.5192
 9697TIP3    H250507   6.400   2.574  13.177  1.6678  2.6733  1.2552
 9698TIP3   OH250508   6.587   0.369   0.035  0.1333 -0.3381 -0.2354
 9698TIP3    H150509   6.558   0.460   0.046 -0.8891 -0.8824  2.2741
 9698TIP3    H250510   6.517   0.327  -0.015 -1.6981 -0.7110  2.4296
 9699TIP3   OH250511   2.669   3.005   3.283 -0.2328  0.5213  0.1694
 9699TIP3    H150512   2.620   3.026   3.363 -0.1097 -1.2703  0.7700
 9699TIP3    H250513   2.644   3.073   3.221 -3.4579 -0.2292  0.4690
 9700TIP3   OH250514   3.856   5.233   6.597  0.5946  0.2028 -0.7513
 9700TIP3    H150515   3.778   5.178   6.591 -0.5834  1.7472 -0.2670
 9700TIP3    H250516   3.828   5.309   6.647  1.5760  2.1778 -2.9817
 9701TIP3   OH250517   4.591   4.142   0.358 -0.0408  0.6608  0.0857
 9701TIP3    H150518   4.658   4.074   0.363  0.0127  0.6238 -0.9778
 9701TIP3    H250519   4.579   4.170   0.449 -1.3315 -1.9923  0.8339
 9702TIP3   OH250520   2.580   6.158   0.770 -0.3548 -0.4031 -1.3035
 9702TIP3    H150521   2.591   6.066   0.745 -1.1438 -1.3643  1.5111
 9702TIP3    H250522   2.669   6.193   0.772  0.2034 -1.7945 -0.2366
 9703TIP3   OH250523   4.495   4.479   3.245 -0.0319  0.3234  0.2534
 9703TIP3    H150524   4.460   4.567   3.263 -0.0352  0.9064 -2.1531
 9703TIP3    H250525   4.587   4.493   3.226  0.3475 -0.4609  1.4144
 9704TIP3   OH250526   4.251   4.667   0.707  0.0037  0.5743  0.0678
 9704TIP3    H150527   4.339   4.629   0.705  0.0259  0.6643 -1.8656
 9704TIP3    H250528   4.266   4.762   0.713  0.1226  0.7199 -1.8981
 9705TIP3   OH250529   2.791   2.659  16.523  0.0486 -0.1948  0.0556
 9705TIP3    H150530   2.720   2.600  16.549 -0.3696  0.4836  0.4917
 9705TIP3    H250531   2.868   2.623  16.567  0.2923 -1.7706 -1.5791
 9706TIP3   OH250532   0.899   1.406   4.603  0.3693  0.4600 -0.2910
 9706TIP3    H150533   0.943   1.339   4.551 -0.0346  1.3760 -1.8934
 9706TIP3    H250534   0.888   1.479   4.543  1.2714  2.2014  1.5539
 9707TIP3   OH250535   1.789   4.591   3.115 -0.4488  0.0638  0.0607
 9707TIP3    H150536   1.708   4.568   3.069  0.2002  1.9327 -2.2290
 9707TIP3    H250537   1.859   4.567   3.054  0.7211 -0.8014  1.6725
 9708TIP3   OH250538   4.277   5.956  17.073  0.1438  0.5434  0.1262
 9708TIP3    H150539   4.275   5.873  17.121 -0.2506  0.3595 -0.2019
 9708TIP3    H250540   4.216   5.943  17.001 -1.6897  1.8669  1.3241
 9709TIP3   OH250541   2.200   3.062  11.333 -0.0294  0.3991 -0.4444
 9709TIP3    H150542   2.192   2.969  11.310 -1.5267  0.0190  1.3740
 9709TIP3    H250543   2.224   3.105  11.251  0.4938 -1.5469 -1.3843
 9710TIP3   OH250544   5.375   2.916   0.092  0.3987  0.5748  0.1979
 9710TIP3    H150545   5.290   2.902   0.135 -0.0622  1.5072 -0.3612
 9710TIP3    H250546   5.418   2.831   0.096  0.1738  0.5057  2.0425
 9711TIP3   OH250547   3.197   5.782  17.021  0.5129  0.1436  0.2130
 9711TIP3    H150548   3.287   5.783  16.988  0.4132  2.9972 -0.2104
 9711TIP3    H250549   3.192   5.858  17.080 -1.5095 -0.2204  0.5803
 9712TIP3   OH250550   1.747   6.013   5.468  0.0563 -0.4318  0.1826
 9712TIP3    H150551   1.753   5.928   5.512 -0.3923 -0.2824  0.5451
 9712TIP3    H250552   1.655   6.020   5.443  0.1561 -0.1863 -0.1231
 9713TIP3   OH250553   5.752   0.428  16.940 -0.4153 -0.3809 -0.1084
 9713TIP3    H150554   5.732   0.509  16.891 -1.3745 -0.0303  0.8378
 9713TIP3    H250555   5.722   0.358  16.882 -0.2518 -0.0305 -0.6294
 9714TIP3   OH250556   1.211   2.043   0.572  0.3588  0.1964  0.0157
 9714TIP3    H150557   1.247   1.970   0.622  1.7117  0.4619 -0.5338
 9714TIP3    H250558   1.137   2.074   0.624  0.4859 -0.8166  0.8261
 9715TIP3   OH250559   1.188   3.343  15.509 -0.5209  0.1164  0.7078
 9715TIP3    H150560   1.136   3.417  15.539  1.7591  1.2634  2.1163
 9715TIP3    H250561   1.189   3.283  15.584  0.5488  0.3544  0.9034
 9716TIP3   OH250562   1.421   1.672   5.626  0.0849 -0.0131  0.0429
 9716TIP3    H150563   1.475   1.734   5.576 -0.7527  2.2126  1.7456
 9716TIP3    H250564   1.484   1.617   5.672  0.8509 -0.5112 -1.5149
 9717TIP3   OH250565   1.550   1.823   5.443  0.1881  0.2906 -0.7317
 9717TIP3    H150566   1.625   1.763   5.442 -0.4983 -0.5868 -1.6668
 9717TIP3    H250567   1.579   1.899   5.393  1.0071  0.6850  0.3103
 9718TIP3   OH250568   3.363   5.829  14.063 -0.4341 -0.3006 -0.2442
 9718TIP3    H150569   3.359   5.918  14.098 -2.8382 -0.3715 -0.1788
 9718TIP3    H250570   3.448   5.824  14.019  0.5132  1.4206  1.2627
 9719TIP3   OH250571   5.796   3.014   5.064 -0.1257  0.7653  0.5068
 9719TIP3    H150572   5.870   3.010   5.123  0.5828 -1.8983 -0.4102
 9719TIP3    H250573   5.834   3.001   4.977 -1.4914  1.0537 -0.1588
 9720TIP3   OH250574   6.714   5.513  17.372  0.1822  0.5354 -0.2200
 9720TIP3    H150575   6.780   5.447  17.396  0.2067 -0.0475 -1.7859
 9720TIP3    H250576   6.739   5.590  17.423  2.3974  0.4888 -1.1056
 9721TIP3   OH250577   3.989   0.655   5.489  0.2831  0.2847  0.3041
 9721TIP3    H150578   3.917   0.656   5.427  0.4947 -1.0481 -0.0020
 9721TIP3    H250579   3.947   0.648   5.575  0.0258  0.3180  0.1794
 9722TIP3   OH250580   0.444   3.935   3.260  0.3794 -0.3117 -0.1830
 9722TIP3    H150581   0.400   3.879   3.324 -2.5077  1.8254 -0.0901
 9722TIP3    H250582   0.503   3.990   3.312  0.7992 -1.0395  0.1248
 9723TIP3   OH250583   2.320   4.333  11.718  0.3622 -0.2996  0.2342
 9723TIP3    H150584   2.373   4.410  11.697  1.8692 -1.1387  0.7231
 9723TIP3    H250585   2.346   4.268  11.652 -0.8776 -0.3960 -0.1706
 9724TIP3   OH250586   4.255   4.474   4.606 -0.2620 -0.1303 -0.2926
 9724TIP3    H150587   4.320   4.531   4.647  0.7059 -1.9634  0.7920
 9724TIP3    H250588   4.221   4.527   4.533  1.3850  1.4220 -0.0154
 9725TIP3   OH250589   3.484   2.671  14.399 -0.0097 -0.2806 -0.0599
 9725TIP3    H150590   3.525   2.752  14.367 -0.6613  1.1376  2.3812
 9725TIP3    H250591   3.548   2.635  14.461  0.7650 -2.3432 -1.9385
 9726TIP3   OH250592   5.555   1.089   4.880 -0.1753 -0.3644 -0.7989
 9726TIP3    H150593   5.498   1.038   4.939  0.0371  1.3652  1.0304
 9726TIP3    H250594   5.610   1.024   4.838 -1.5402 -1.8463 -0.4090
 9727TIP3   OH250595   3.257   0.128  11.233  0.2048  0.0245  0.4640
 9727TIP3    H150596   3.245   0.218  11.264  1.7123 -0.0581  1.3940
 9727TIP3    H250597   3.332   0.096  11.282  3.0040 -0.0716 -3.3632
 9728TIP3   OH250598   5.557   2.525   2.143 -0.2448 -0.0503  0.0911
 9728TIP3    H150599   5.650   2.508   2.129 -0.4313 -0.7501 -0.3583
 9728TIP3    H250600   5.526   2.559   2.059 -0.3675  0.3227  0.2850
 9729TIP3   OH250601   2.481   4.899  14.307 -0.0051 -0.1285  0.5307
 9729TIP3    H150602   2.455   4.830  14.368  2.1957 -0.4314  1.2253
 9729TIP3    H250603   2.546   4.950  14.356  1.5448 -0.1344 -1.3971
 9730TIP3   OH250604   4.725   2.191   2.723  0.2138 -0.1493 -0.1548
 9730TIP3    H150605   4.758   2.242   2.797 -1.1767  2.0006 -0.9333
 9730TIP3    H250606   4.642   2.156   2.753  0.0753 -0.0241 -0.3910
 9731TIP3   OH250607   5.541   4.797   1.343  0.0772 -0.1541  0.3991
 9731TIP3    H150608   5.637   4.803   1.343  0.1378 -0.9132 -0.1808
 9731TIP3    H250609   5.515   4.838   1.260 -0.1510  0.6460  0.8602
 9732TIP3   OH250610   4.898   2.121   2.530  0.1064  0.2998 -0.0755
 9732TIP3    H150611   4.886   2.197   2.474  1.2311  2.0726  1.9469
 9732TIP3    H250612   4.824   2.122   2.590  0.6107  0.3734  0.5601
 9733TIP3   OH250613   1.343   0.620  12.256 -0.2768 -0.7762  0.6764
 9733TIP3    H150614   1.390   0.538  12.244  1.4807  0.3687 -0.7907
 9733TIP3    H250615   1.399   0.671  12.315 -0.1797  0.2123 -0.2496
 9734TIP3   OH250616   1.879   3.422  13.500  0.0753 -0.0963 -0.0237
 9734TIP3    H150617   1.844   3.445  13.414 -0.1526  0.1737  0.1375
 9734TIP3    H250618   1.836   3.483  13.560  0.6292  0.0624  0.2163
 9735TIP3   OH250619   2.857   0.433  10.482 -0.7134  0.0689  0.3231
 9735TIP3    H150620   2.796   0.470  10.418 -0.6289 -1.5315 -0.7395
 9735TIP3    H250621   2.942   0.434  10.438 -0.7457 -1.5249  0.1713
 9736TIP3   OH250622   3.515   3.614  14.252  0.7898  0.0671 -0.5615
 9736TIP3    H150623   3.521   3.680  14.184  0.5174  2.0261  1.2097
 9736TIP3    H250624   3.542   3.659  14.332 -0.4682 -1.6468  0.9195
 9737TIP3   OH250625   0.158   6.305   3.016 -0.3873  0.0605  0.0545
 9737TIP3    H150626   0.069   6.301   2.981 -0.5916 -0.8721  0.6364
 9737TIP3    H250627   0.180   6.398   3.014 -1.0219  0.2151 -0.9476
 9738TIP3   OH250628   2.820   1.549   5.777 -0.0959 -0.6787 -0.1553
 9738TIP3    H150629   2.844   1.473   5.724  1.0725 -0.4965  0.0838
 9738TIP3    H250630   2.901   1.598   5.787 -0.2300 -0.7468  1.8488
 9739TIP3   OH250631   0.108   1.665  13.685 -0.2183 -0.3104 -0.0877
 9739TIP3    H150632   0.032   1.687  13.633  0.4480 -0.0676 -0.9811
 9739TIP3    H250633   0.149   1.591  13.639 -0.0130 -0.5598  0.4810
 9740TIP3   OH250634   3.249   3.366   1.951  0.7446  0.0102  0.0334
 9740TIP3    H150635   3.207   3.298   2.004  0.2150  0.2730 -0.0451
 9740TIP3    H250636   3.340   3.337   1.942  0.0238 -1.8753 -1.9213
 9741TIP3   OH250637   3.506   2.714   1.811  0.1091  0.2834  0.1605
 9741TIP3    H150638   3.457   2.783   1.767 -1.9758 -1.7153 -0.8944
 9741TIP3    H250639   3.597   2.729   1.786 -0.3764  2.1323 -0.6784
 9742TIP3   OH250640   2.854   2.476   5.137 -0.1649  0.0492 -0.3865
 9742TIP3    H150641   2.946   2.489   5.117  0.1510 -1.3455  0.0696
 9742TIP3    H250642   2.852   2.448   5.229 -0.9341 -0.9462 -0.6816
 9743TIP3   OH250643   1.264   4.889   0.473 -0.0185  0.2024  0.0381
 9743TIP3    H150644   1.252   4.898   0.567  0.1352 -0.2341  0.0989
 9743TIP3    H250645   1.181   4.920   0.435 -0.6805 -1.0958  0.3800
 9744TIP3   OH250646   4.026   1.707  15.619  0.1625  0.2555  0.1704
 9744TIP3    H150647   3.954   1.644  15.622 -0.0155  0.3638 -1.3262
 9744TIP3    H250648   4.103   1.657  15.644 -0.0143 -0.5063 -0.7864
 9745TIP3   OH250649   5.170   2.796  11.666  0.4486 -0.1185 -0.0770
 9745TIP3    H150650   5.245   2.796  11.725 -0.4107 -0.2784  1.0497
 9745TIP3    H250651   5.167   2.885  11.631  1.2513 -0.1588 -0.2553
 9746TIP3   OH250652   5.760   0.008  14.710  0.2942  0.4986 -0.0584
 9746TIP3    H150653   5.775   0.079  14.648 -0.4276  1.9418  1.3242
 9746TIP3    H250654   5.703   0.047  14.777 -0.1476 -1.4070  0.7386
 9747TIP3   OH250655   5.003   5.903   4.148  0.0007  0.5731  0.4115
 9747TIP3    H150656   5.036   5.818   4.117  0.5827  1.3907 -1.3581
 9747TIP3    H250657   4.915   5.884   4.181 -0.0954 -0.6440 -0.4560
 9748TIP3   OH250658   0.567   0.422   5.862 -0.5937  0.0326 -0.0187
 9748TIP3    H150659   0.501   0.374   5.912 -1.0649 -0.9565 -1.5286
 9748TIP3    H250660   0.606   0.357   5.804  1.3785  0.7044  0.4527
 9749TIP3   OH250661   4.037   0.186  16.882 -0.8396 -0.4972  0.1275
 9749TIP3    H150662   3.943   0.174  16.894 -0.8733  0.7094  1.4203
 9749TIP3    H250663   4.066   0.226  16.964  0.1533  2.4859 -1.5264
 9750TIP3   OH250664   3.537   1.953  15.990 -0.2993  0.5978  0.3608
 9750TIP3    H150665   3.498   1.949  15.903 -0.8626  2.7004  0.4501
 9750TIP3    H250666   3.620   1.997  15.978 -0.7518  1.6637  0.9602
 9751TIP3   OH250667   4.830   5.652  16.192 -0.1204  0.4040  0.3516
 9751TIP3    H150668   4.753   5.601  16.218  0.9474 -1.1283  0.6396
 9751TIP3    H250669   4.879   5.665  16.273  0.6758  0.0263 -0.0601
 9752TIP3   OH250670   6.436   4.601   1.232  0.1243 -0.0745  0.1176
 9752TIP3    H150671   6.427   4.508   1.253  1.4206 -0.0921  0.6587
 9752TIP3    H250672   6.372   4.644   1.289  0.7826 -0.4878  1.2112
 9753TIP3   OH250673   2.382   5.372   5.704  0.4135  0.5098 -0.9339
 9753TIP3    H150674   2.398   5.277   5.701  1.2777  0.6115  0.0692
 9753TIP3    H250675   2.364   5.395   5.613 -0.5002 -0.7211 -1.1003
 9754TIP3   OH250676   1.965   1.887   5.535 -0.5337  0.0044 -0.5099
 9754TIP3    H150677   1.980   1.975   5.498  0.6007 -0.1422 -0.4370
 9754TIP3    H250678   2.053   1.851   5.546 -0.9943 -1.1269 -0.4823
 9755TIP3   OH250679   2.593   2.454   4.590 -0.1095  0.0030 -0.3214
 9755TIP3    H150680   2.501   2.467   4.610  0.0512  0.7533 -0.0650
 9755TIP3    H250681   2.595   2.373   4.539 -1.1115  0.8984 -1.8609
 9756TIP3   OH250682   3.250   5.647   1.570 -0.4767  0.4631  0.1668
 9756TIP3    H150683   3.168   5.666   1.524  0.0775  2.1165 -0.1987
 9756TIP3    H250684   3.222   5.610   1.654 -1.5717  0.4669 -0.1861
 9757TIP3   OH250685   3.426   2.206   0.497 -0.0484  0.3238 -0.4755
 9757TIP3    H150686   3.510   2.162   0.487  0.9173  1.7844  1.0154
 9757TIP3    H250687   3.384   2.196   0.411  2.0583  0.4778 -1.5638
 9758TIP3   OH250688   6.502   4.553   4.042  0.0452  0.5379  0.3266
 9758TIP3    H150689   6.452   4.480   4.077  0.1582 -0.7491 -1.9467
 9758TIP3    H250690   6.584   4.553   4.092 -0.1429 -0.6286  0.6593
 9759TIP3   OH250691   4.193   4.439  10.548  0.4204  0.1662  0.4804
 9759TIP3    H150692   4.131   4.405  10.612  1.1194 -2.0219  0.0705
 9759TIP3    H250693   4.144   4.505  10.499 -1.8572 -1.9939 -0.3147
 9760TIP3   OH250694   5.879   2.050  11.048  0.0824 -0.3147 -0.0226
 9760TIP3    H150695   5.937   2.110  11.002  0.1871  2.0974  2.9378
 9760TIP3    H250696   5.794   2.062  11.006  0.7107 -0.3393 -1.3458
 9761TIP3   OH250697   1.673   4.251   1.072 -0.0181  0.2864 -0.0798
 9761TIP3    H150698   1.763   4.234   1.045  0.9084  0.1089  2.8452
 9761TIP3    H250699   1.638   4.165   1.096 -0.0338  0.6755  1.3685
 9762TIP3   OH250700   0.458   3.714  15.818 -0.7187 -0.1973  0.1190
 9762TIP3    H150701   0.466   3.776  15.744 -0.4075 -0.6774 -0.2549
 9762TIP3    H250702   0.399   3.646  15.785 -0.4898 -0.4705  0.2774
 9763TIP3   OH250703   5.364   0.643   2.570 -0.3754  0.5655  0.2537
 9763TIP3    H150704   5.445   0.621   2.615  0.2716 -0.6397 -1.4361
 9763TIP3    H250705   5.312   0.563   2.572  0.0179  0.1969 -1.8008
 9764TIP3   OH250706   4.491   4.837   2.477  1.1889  0.7555  0.1176
 9764TIP3    H150707   4.580   4.851   2.511  1.8428 -0.2001 -1.1246
 9764TIP3    H250708   4.494   4.872   2.388  1.4834 -2.5898 -1.3418
 9765TIP3   OH250709   1.099   5.971  17.254  0.4208  0.6962  0.5812
 9765TIP3    H150710   1.023   6.008  17.299 -0.6642  0.8342 -1.2454
 9765TIP3    H250711   1.157   5.941  17.324 -2.1992 -1.2579  2.1004
 9766TIP3   OH250712   6.102   5.780   4.661 -0.0328 -0.4688  0.3130
 9766TIP3    H150713   6.026   5.760   4.716  1.1203  0.5751  2.3925
 9766TIP3    H250714   6.092   5.872   4.638  0.3968 -0.4335  0.2586
 9767TIP3   OH250715   5.348   2.903   3.642 -0.6878 -0.0264 -0.3622
 9767TIP3    H150716   5.285   2.972   3.664  1.0246  0.6394  3.1615
 9767TIP3    H250717   5.378   2.926   3.554 -2.5782  1.7733 -0.6253
 9768TIP3   OH250718   5.741   2.620  11.643  0.2537  0.6647  0.1873
 9768TIP3    H150719   5.735   2.708  11.607 -0.3092  0.8670  0.7570
 9768TIP3    H250720   5.660   2.577  11.615  0.1385  0.6004  0.6116
 9769TIP3   OH250721   2.631   0.883  16.998  0.6008 -0.0970  0.0715
 9769TIP3    H150722   2.662   0.971  17.018 -0.8346  0.8089 -1.3993
 9769TIP3    H250723   2.667   0.863  16.912 -0.9131  0.0194 -0.6156
 9770TIP3   OH250724   5.785   4.905   1.938 -0.0705  0.5540  0.2233
 9770TIP3    H150725   5.831   4.987   1.956  0.3179  0.5444 -0.6897
 9770TIP3    H250726   5.752   4.877   2.024  1.1831  0.8255  0.8213
 9771TIP3   OH250727   6.480   1.594   6.367 -0.3425  0.8143  0.0846
 9771TIP3    H150728   6.463   1.501   6.382 -0.5740  0.9385  0.6156
 9771TIP3    H250729   6.464   1.607   6.274 -0.2304  0.3048 -0.0076
 9772TIP3   OH250730   5.687   0.103   2.428 -0.2189  0.5355  0.4413
 9772TIP3    H150731   5.758   0.063   2.478 -0.2428  0.1093  0.1405
 9772TIP3    H250732   5.659   0.178   2.481 -0.2179  0.1177  1.0440
 9773TIP3   OH250733   4.291   3.770  12.493  0.8482 -0.2330 -0.4304
 9773TIP3    H150734   4.364   3.710  12.502  1.1343  0.3129  1.2782
 9773TIP3    H250735   4.300   3.830  12.567  0.2773  1.5980 -1.7792
 9774TIP3   OH250736   3.612   0.080   1.732 -0.4145  0.5048  0.1892
 9774TIP3    H150737   3.551   0.051   1.800  0.8074 -1.2714  0.5879
 9774TIP3    H250738   3.562   0.074   1.650 -0.8301 -0.8036  0.5238
 9775TIP3   OH250739   3.921   3.691  14.874 -0.2775  0.3017 -0.3685
 9775TIP3    H150740   3.986   3.706  14.805  1.1108 -0.5036  0.7212
 9775TIP3    H250741   3.903   3.779  14.908  1.5292  0.4049  0.4227
 9776TIP3   OH250742   2.356   5.643  14.601  0.5374  0.1038  0.5285
 9776TIP3    H150743   2.324   5.597  14.523  0.5142  0.4012  0.3602
 9776TIP3    H250744   2.287   5.632  14.666  1.0091 -1.0433  0.8642
 9777TIP3   OH250745   6.001   6.018  12.063 -0.5735  0.3668  0.1960
 9777TIP3    H150746   6.081   5.967  12.063 -0.3323  0.7363 -0.2500
 9777TIP3    H250747   6.029   6.108  12.080 -0.8761  0.5200 -0.0913
 9778TIP3   OH250748   2.938   1.906   3.816 -0.2575 -0.2689 -0.0169
 9778TIP3    H150749   2.972   1.965   3.749  0.4287  0.0701  0.6035
 9778TIP3    H250750   2.928   1.822   3.772 -0.5795  0.1378 -0.7376
 9779TIP3   OH250751   3.780   5.688  15.839  0.6648  0.8505  0.3462
 9779TIP3    H150752   3.781   5.607  15.788 -3.4433  1.1002 -0.4516
 9779TIP3    H250753   3.834   5.749  15.788  1.5668 -0.5902 -0.4881
 9780TIP3   OH250754   4.438   1.558  16.887  0.1451 -0.5680  0.4134
 9780TIP3    H150755   4.436   1.492  16.957  0.9941 -2.6362 -1.3884
 9780TIP3    H250756   4.427   1.507  16.806  2.7290  1.2649 -1.2232
 9781TIP3   OH250757   1.478   4.338  13.177 -0.6076  0.0153  0.5693
 9781TIP3    H150758   1.473   4.245  13.198 -1.4686  0.0784  0.6652
 9781TIP3    H250759   1.389   4.362  13.151 -0.3126  0.7281  0.1788
 9782TIP3   OH250760   2.656   5.882   4.007  0.3249  0.0656  0.2183
 9782TIP3    H150761   2.615   5.796   4.003 -2.3827  1.2774 -0.0435
 9782TIP3    H250762   2.719   5.875   4.079 -0.6854 -1.7847  0.9922
 9783TIP3   OH250763   1.869   2.031   1.704  0.0446 -0.2169  0.3294
 9783TIP3    H150764   1.934   2.000   1.641 -1.3074 -0.7630 -0.8567
 9783TIP3    H250765   1.862   2.125   1.687  0.6504 -0.1177  0.6022
 9784TIP3   OH250766   4.738   6.388   2.688  0.4917  0.4479  0.2916
 9784TIP3    H150767   4.662   6.331   2.689  0.0240  1.0716  1.7059
 9784TIP3    H250768   4.775   6.376   2.600 -0.3527 -0.9912  0.0984
 9785TIP3   OH250769   0.157   5.866  15.986  0.3033  0.8219 -0.0269
 9785TIP3    H150770   0.231   5.829  16.034  1.5554  1.8780 -1.0481
 9785TIP3    H250771   0.124   5.936  16.042 -1.0264 -0.6764  1.1695
 9786TIP3   OH250772   0.765   0.011  15.105  0.3257 -0.7575 -0.5168
 9786TIP3    H150773   0.728   0.067  15.173  1.5852 -0.4462 -0.0695
 9786TIP3    H250774   0.688  -0.030  15.064 -0.4661 -1.1459  1.2409
 9787TIP3   OH250775   0.065   5.240   6.248 -0.4957  0.3398  0.7180
 9787TIP3    H150776   0.074   5.336   6.251  1.4532  0.2336 -0.0004
 9787TIP3    H250777   0.088   5.217   6.158  0.1317 -0.8828  1.1654
 9788TIP3   OH250778   2.145   0.128  11.053 -0.3312  0.0661  0.5866
 9788TIP3    H150779   2.160   0.034  11.057 -2.7474 -0.4507 -0.4165
 9788TIP3    H250780   2.050   0.137  11.056 -0.1298  2.5621  1.6403
 9789TIP3   OH250781   1.872   4.258  13.524 -0.5461  0.0073 -0.1199
 9789TIP3    H150782   1.828   4.228  13.445 -2.5364  0.0224  0.8984
 9789TIP3    H250783   1.925   4.184  13.553  1.0820  0.3660 -1.9946
 9790TIP3   OH250784   3.634   6.069   6.045  0.7138  0.5300  0.4898
 9790TIP3    H150785   3.620   5.993   6.101  1.6376  0.3411  0.4768
 9790TIP3    H250786   3.615   6.144   6.101 -2.5390  0.3256 -0.1151
 9791TIP3   OH250787   1.492   6.123  15.775  0.5674 -0.3079  0.1845
 9791TIP3    H150788   1.513   6.135  15.682 -0.2399 -0.8485 -0.0810
 9791TIP3    H250789   1.571   6.151  15.821  0.5066  1.2314 -0.5971
 9792TIP3   OH250790   1.125   3.690   4.544 -0.5484 -0.0330  0.1713
 9792TIP3    H150791   1.172   3.770   4.520 -0.3783  0.9360  3.2415
 9792TIP3    H250792   1.188   3.619   4.529 -1.1104  0.0582 -3.8082
 9793TIP3   OH250793   4.690   4.782   0.928  0.3011  0.4319 -0.1104
 9793TIP3    H150794   4.644   4.857   0.891  1.0203  0.4754 -0.9361
 9793TIP3    H250795   4.689   4.798   1.023  0.8332  1.7005 -0.3050
 9794TIP3   OH250796   2.965   1.551   4.240 -0.2292  0.0985  0.0436
 9794TIP3    H150797   2.894   1.605   4.207 -1.4142 -1.4596 -0.0632
 9794TIP3    H250798   2.933   1.461   4.231  1.8164 -0.6643 -0.1606
 9795TIP3   OH250799   6.285   5.263  16.046  0.0527  0.0841 -0.8815
 9795TIP3    H150800   6.287   5.307  16.131  0.7340 -1.5926  0.0352
 9795TIP3    H250801   6.231   5.319  15.990 -2.0255  0.2981  1.1882
 9796TIP3   OH250802   4.975   4.916   3.658  0.1434  0.4813 -0.1505
 9796TIP3    H150803   4.993   4.830   3.697  0.0467 -0.0852 -1.3000
 9796TIP3    H250804   5.062   4.955   3.644  0.1558  1.4664  2.1906
 9797TIP3   OH250805   2.282   4.807   3.655  0.3965  0.0828  0.2603
 9797TIP3    H150806   2.227   4.866   3.707 -0.5811 -1.9979  1.7164
 9797TIP3    H250807   2.221   4.763   3.596  0.8358 -0.6659  0.3514
 9798TIP3   OH250808   2.424   6.194   4.349  0.1461 -0.2518 -0.7993
 9798TIP3    H150809   2.519   6.194   4.338  0.0934 -0.0862 -1.2711
 9798TIP3    H250810   2.391   6.246   4.275 -0.1340  2.1571  0.8950
 9799TIP3   OH250811   4.920   6.048  14.426  0.4006  0.8067 -0.2215
 9799TIP3    H150812   4.995   6.033  14.484  1.4279  0.7906 -1.5103
 9799TIP3    H250813   4.865   5.970  14.437  0.3162  1.0305  1.0853
 9800TIP3   OH250814   0.500   3.294  11.724  0.5332  0.5418 -0.1801
 9800TIP3    H150815   0.516   3.201  11.708  2.3061  0.5458  1.3068
 9800TIP3    H250816   0.438   3.319  11.655 -0.8559 -1.9685  0.0125
 9801TIP3   OH250817   3.481   1.904  16.666  0.7510  0.5756 -0.6304
 9801TIP3    H150818   3.525   1.826  16.631  2.0988  0.5650  0.9305
 9801TIP3    H250819   3.553   1.965  16.685  0.1880  0.5126  2.1614
 9802TIP3   OH250820   2.231   1.764  12.011 -0.8044  0.2862  0.7161
 9802TIP3    H150821   2.208   1.818  11.936  0.7043  0.1244  0.0927
 9802TIP3    H250822   2.147   1.739  12.049 -1.5716  2.8236  0.8899
 9803TIP3   OH250823   2.715   6.577  10.866 -0.5035 -0.5801 -0.2995
 9803TIP3    H150824   2.667   6.657  10.846  0.0016 -0.3995 -0.8164
 9803TIP3    H250825   2.677   6.546  10.948 -0.5384  0.3237  0.0373
 9804TIP3   OH250826   4.123   6.352  14.405  0.3147  0.2298  0.4518
 9804TIP3    H150827   4.216   6.334  14.395  0.2388 -0.2138  0.5166
 9804TIP3    H250828   4.109   6.434  14.357  0.4214 -0.5917 -1.0414
 9805TIP3   OH250829   6.518   0.477   2.189 -0.0815  0.0902  0.3797
 9805TIP3    H150830   6.508   0.568   2.161 -0.1052  0.4670  1.5580
 9805TIP3    H250831   6.560   0.482   2.275  0.8180 -1.0569  0.0394
 9806TIP3   OH250832   1.195   4.390   0.288  0.1994 -0.2717  0.3431
 9806TIP3    H150833   1.141   4.363   0.362 -0.9290 -0.3668 -0.4902
 9806TIP3    H250834   1.162   4.476   0.263  0.5331 -0.2575 -0.0730
 9807TIP3   OH250835   4.527   5.195  16.220 -0.9075 -0.1482  0.5774
 9807TIP3    H150836   4.438   5.180  16.187 -0.9639  2.9554 -1.0908
 9807TIP3    H250837   4.564   5.260  16.160  2.2638 -0.7594  1.6647
 9808TIP3   OH250838   6.459   4.366  14.914 -0.2327 -0.8479  0.2182
 9808TIP3    H150839   6.423   4.452  14.937 -0.1356 -0.6876 -0.2205
 9808TIP3    H250840   6.454   4.315  14.995  1.6992  0.2342  1.0757
 9809TIP3   OH250841   6.522   0.109   3.888  0.3140 -0.0283 -0.3092
 9809TIP3    H150842   6.503   0.198   3.916  1.8710 -0.2821  1.7845
 9809TIP3    H250843   6.612   0.093   3.917 -0.5428 -2.9080  1.1422
 9810TIP3   OH250844   4.837   0.289  15.269 -0.0576 -0.5567  0.0106
 9810TIP3    H150845   4.870   0.374  15.238  3.1408 -1.6719 -0.0762
 9810TIP3    H250846   4.760   0.311  15.320  0.1442  2.3177 -0.7063
 9811TIP3   OH250847   2.707   0.319  11.278 -0.0300  0.6603 -0.1009
 9811TIP3    H150848   2.794   0.281  11.269  0.0281  0.7106  0.2682
 9811TIP3    H250849   2.648   0.253  11.241 -0.0478 -0.3043  1.5589
 9812TIP3   OH250850   3.010   0.327  16.007 -0.0843 -0.3253 -0.0797
 9812TIP3    H150851   3.103   0.348  16.011 -0.0789  0.6408 -3.1881
 9812TIP3    H250852   2.967   0.403  16.047  0.3800 -1.3929  2.7158
 9813TIP3   OH250853   3.493   4.115  14.886  0.0377  0.1769  0.3376
 9813TIP3    H150854   3.584   4.134  14.908  0.2469  0.5963 -0.8252
 9813TIP3    H250855   3.470   4.180  14.820 -0.5419 -1.0049 -0.6768
 9814TIP3   OH250856   0.507   1.057   2.634 -0.3972 -0.4367  0.2942
 9814TIP3    H150857   0.543   1.030   2.550  1.2357  0.6989  0.5923
 9814TIP3    H250858   0.439   1.121   2.613  1.5786  1.6364 -0.1649
 9815TIP3   OH250859   1.098   0.372   2.035  0.1670  0.0992 -0.0045
 9815TIP3    H150860   1.044   0.311   2.086 -0.3687 -0.1676 -0.8855
 9815TIP3    H250861   1.044   0.395   1.959  0.5798  1.2452  0.0287
 9816TIP3   OH250862   5.612   5.640   4.846  0.0608 -0.0090 -0.0709
 9816TIP3    H150863   5.604   5.588   4.765 -0.1678 -0.8379  0.4625
 9816TIP3    H250864   5.645   5.577   4.911 -2.1920 -0.0685  1.1204
 9817TIP3   OH250865   4.998   2.637  16.310 -0.0315 -0.1030  0.1692
 9817TIP3    H150866   5.049   2.716  16.330  0.3166 -0.0334 -0.9184
 9817TIP3    H250867   4.914   2.670  16.278  0.0440 -0.1803 -0.1088
 9818TIP3   OH250868   6.476   2.643   5.605 -0.5942  0.2518  0.4303
 9818TIP3    H150869   6.386   2.615   5.588 -0.2161  0.1321 -1.5446
 9818TIP3    H250870   6.509   2.580   5.669 -1.8096  0.1486  0.9858
 9819TIP3   OH250871   4.189   4.150  12.734  0.0390  0.2019  0.2245
 9819TIP3    H150872   4.231   4.218  12.682 -1.4928  0.9513 -0.0613
 9819TIP3    H250873   4.232   4.156  12.820  0.8835  0.5717 -0.2145
 9820TIP3   OH250874   4.490   5.995   4.328  0.6458  0.0571 -0.3781
 9820TIP3    H150875   4.397   5.994   4.351  0.5973 -0.7727 -0.5748
 9820TIP3    H250876   4.517   6.086   4.339 -0.9262  1.0015 -3.2433
 9821TIP3   OH250877   4.431   2.956   2.461  0.0202  0.7675 -0.0554
 9821TIP3    H150878   4.377   3.018   2.411  0.4443  1.4577  0.3230
 9821TIP3    H250879   4.413   2.977   2.552 -2.3174 -1.8271  0.2247
 9822TIP3   OH250880   4.809   5.021   6.211  0.0687  0.2564  0.6099
 9822TIP3    H150881   4.744   5.005   6.280 -0.9725 -1.1846 -0.6123
 9822TIP3    H250882   4.886   4.972   6.239 -0.0091  0.4762  1.2130
 9823TIP3   OH250883   2.295   2.219  13.206 -0.4860 -0.2614  0.5790
 9823TIP3    H150884   2.370   2.232  13.265 -1.3010  0.5284  1.4782
 9823TIP3    H250885   2.226   2.186  13.263 -0.7706 -1.1775 -0.2832
 9824TIP3   OH250886   0.820   5.439  11.615  0.4271  0.3335  0.3931
 9824TIP3    H150887   0.853   5.376  11.680  2.2526  0.5908 -0.2190
 9824TIP3    H250888   0.810   5.387  11.535  0.3304  0.4665  0.3195
 9825TIP3   OH250889   2.668   5.962   4.446 -0.3189 -0.3727  0.2925
 9825TIP3    H150890   2.626   5.895   4.392  2.1592 -1.6138 -0.2314
 9825TIP3    H250891   2.707   6.022   4.383 -0.9111  0.5133  0.7601
 9826TIP3   OH250892   2.054   2.975   5.818 -0.5083  0.3047  0.3994
 9826TIP3    H150893   2.142   2.963   5.854 -1.1088 -1.6964  1.3223
 9826TIP3    H250894   2.036   2.895   5.769 -2.5691 -0.2996  1.9799
 9827TIP3   OH250895   5.528   1.863   2.694 -0.0622 -0.4917  0.0837
 9827TIP3    H150896   5.500   1.838   2.606  0.6723 -0.6155 -0.1240
 9827TIP3    H250897   5.623   1.871   2.687  0.0569 -1.0223  1.0003
 9828TIP3   OH250898   4.400   5.562   1.154 -0.0979  0.5030  0.0516
 9828TIP3    H150899   4.403   5.532   1.244  0.0779  0.6899  0.1100
 9828TIP3    H250900   4.451   5.643   1.154 -1.2320  1.2406  0.0694
 9829TIP3   OH250901   0.711   5.116  13.085  0.0538  1.1316  0.2845
 9829TIP3    H150902   0.780   5.068  13.040  0.0245  0.4258  0.9667
 9829TIP3    H250903   0.753   5.152  13.164 -0.9078 -1.7569  2.2987
 9830TIP3   OH250904   5.894   0.490  11.061 -0.3467 -0.7278  0.5075
 9830TIP3    H150905   5.920   0.442  11.139  0.7133  0.5252  0.9582
 9830TIP3    H250906   5.889   0.581  11.088  0.3230 -0.2259 -0.9382
 9831TIP3   OH250907   4.425   2.301  15.627  0.2619 -0.5008  0.8476
 9831TIP3    H150908   4.393   2.240  15.560  0.4493  0.6324 -0.3077
 9831TIP3    H250909   4.520   2.300  15.617  0.1954  1.1162 -0.2408
 9832TIP3   OH250910   2.397   6.310  13.141  0.3654 -0.3248 -0.1593
 9832TIP3    H150911   2.337   6.282  13.210 -0.2384 -2.0624 -1.3216
 9832TIP3    H250912   2.347   6.374  13.090  1.2126  1.8701  1.6032
 9833TIP3   OH250913   0.773   3.880  13.239  0.5987  0.1339  0.2651
 9833TIP3    H150914   0.788   3.896  13.146 -0.3221  2.1757  0.4309
 9833TIP3    H250915   0.823   3.800  13.257 -1.8666 -2.3115 -2.6867
 9834TIP3   OH250916   1.215   2.788  12.369 -0.3430 -0.1795  0.4878
 9834TIP3    H150917   1.163   2.833  12.435 -0.0600  0.2313  0.4341
 9834TIP3    H250918   1.273   2.855  12.333 -0.4189 -0.4183 -0.1045
 9835TIP3   OH250919   3.296   0.765   5.931 -0.0518  0.2757  0.0948
 9835TIP3    H150920   3.233   0.802   5.993  2.2251 -0.0216  2.8065
 9835TIP3    H250921   3.379   0.766   5.979  1.9982  0.4396 -3.1864
 9836TIP3   OH250922   3.842   3.841   0.524 -0.0932  0.2263 -0.6030
 9836TIP3    H150923   3.835   3.865   0.432  0.0276  0.8206 -0.4668
 9836TIP3    H250924   3.760   3.874   0.563 -0.8851 -1.4506 -0.7881
 9837TIP3   OH250925   2.771   5.404  13.117  0.1630 -0.4434  0.7946
 9837TIP3    H150926   2.752   5.492  13.085  0.0703 -1.0770 -1.0051
 9837TIP3    H250927   2.686   5.367  13.141  0.1761 -0.1325  1.3233
 9838TIP3   OH250928   1.839   4.821   4.785  0.2790 -0.4368  0.6971
 9838TIP3    H150929   1.759   4.829   4.837  0.5398 -1.7252  1.3271
 9838TIP3    H250930   1.809   4.826   4.694 -0.2846  0.9175  0.9267
 9839TIP3   OH250931   6.074   3.203  16.636 -0.3198  0.4827  0.8203
 9839TIP3    H150932   6.038   3.130  16.686 -2.2081  1.0875  0.4138
 9839TIP3    H250933   6.168   3.185  16.632 -0.6445 -1.5672  1.3019
 9840TIP3   OH250934   2.503   0.082  15.303 -0.2650 -0.5178 -0.0985
 9840TIP3    H150935   2.499   0.125  15.389  0.2998  0.9276 -0.7547
 9840TIP3    H250936   2.515  -0.011  15.323  0.4105 -0.1464  1.3946
 9841TIP3   OH250937   4.475   1.574  14.208 -0.3250 -0.0615  0.0956
 9841TIP3    H150938   4.388   1.535  14.192 -0.4777 -1.0108  2.7305
 9841TIP3    H250939   4.536   1.502  14.192 -0.2865 -0.2419  0.9819
 9842TIP3   OH250940   2.578   0.858   1.248  0.0842 -0.5609  0.5609
 9842TIP3    H150941   2.599   0.951   1.256  2.5932 -1.1202  1.5791
 9842TIP3    H250942   2.560   0.829   1.338 -3.4132 -0.5919 -0.0314
 9843TIP3   OH250943   2.703   2.192   1.751 -0.0595  0.1029  0.1408
 9843TIP3    H150944   2.751   2.234   1.679 -0.0213 -1.2585 -0.6557
 9843TIP3    H250945   2.771   2.172   1.815  0.1067  0.1299 -0.0242
 9844TIP3   OH250946   3.839   3.652   4.771  0.2637  0.0168 -0.6359
 9844TIP3    H150947   3.778   3.717   4.735 -2.0242 -0.2072  2.4708
 9844TIP3    H250948   3.887   3.699   4.839  2.3142 -0.3313 -1.7578
 9845TIP3   OH250949   5.135   0.830   2.177  0.1661  0.3354  0.1663
 9845TIP3    H150950   5.067   0.775   2.216  1.7402 -0.0863  2.5330
 9845TIP3    H250951   5.195   0.768   2.136 -0.6438  0.6885 -1.6477
 9846TIP3   OH250952   5.344   5.177  12.500  0.3396  0.5589 -0.4673
 9846TIP3    H150953   5.362   5.249  12.439  0.5593  1.2313  0.3675
 9846TIP3    H250954   5.426   5.164  12.547 -0.4250  1.5606  1.2234
 9847TIP3   OH250955   2.866   6.345  15.975 -0.0210  0.4283 -0.0772
 9847TIP3    H150956   2.871   6.273  16.038 -0.5932  0.0831 -0.4270
 9847TIP3    H250957   2.925   6.320  15.904 -0.5800  0.0845 -0.4210
 9848TIP3   OH250958   6.545   0.299  13.285 -0.2513 -0.4861  0.8039
 9848TIP3    H150959   6.545   0.393  13.305  2.1821 -0.4452  0.8136
 9848TIP3    H250960   6.479   0.262  13.344 -1.2680  1.1797  0.7932
 9849TIP3   OH250961   1.425   1.099  15.412  0.7477 -0.2637 -0.2289
 9849TIP3    H150962   1.427   1.108  15.507 -1.2753 -1.6411  0.0068
 9849TIP3    H250963   1.340   1.136  15.386  0.7166 -1.0648 -1.3521
 9850TIP3   OH250964   2.347   0.843  12.272  0.0012  0.0906 -0.2071
 9850TIP3    H150965   2.408   0.909  12.304 -1.2084  0.9029  0.4970
 9850TIP3    H250966   2.317   0.877  12.188 -0.2469  0.1974 -0.0761
 9851TIP3   OH250967   0.035   0.286   3.209  0.0775 -0.2344  0.0845
 9851TIP3    H150968   0.039   0.378   3.183 -0.0023 -0.2853 -0.1149
 9851TIP3    H250969   0.112   0.272   3.264  0.9888 -0.4543 -1.2107
 9852TIP3   OH250970   2.672   3.083  13.706 -0.1086  0.5795 -0.5261
 9852TIP3    H150971   2.765   3.086  13.732  0.0999  2.8039 -1.2710
 9852TIP3    H250972   2.629   3.141  13.769 -0.8764  0.0951 -0.6053
 9853TIP3   OH250973   3.145   2.344   1.925  0.2968  0.2753  0.1135
 9853TIP3    H150974   3.121   2.386   1.843  0.5683  0.2788  0.0354
 9853TIP3    H250975   3.071   2.286   1.945  0.1919  0.3410 -0.0850
 9854TIP3   OH250976   2.645   3.112  11.661 -0.0157  0.4537  0.3121
 9854TIP3    H150977   2.696   3.148  11.733 -1.2308  0.3508  1.2566
 9854TIP3    H250978   2.556   3.141  11.678 -0.0962  1.8683 -2.0875
 9855TIP3   OH250979   3.472   2.710  11.779 -0.4488  0.7204 -0.4773
 9855TIP3    H150980   3.453   2.744  11.692 -0.6009  0.5723 -0.5035
 9855TIP3    H250981   3.567   2.713  11.786 -0.4875  1.8566 -0.1891
 9856TIP3   OH250982   3.650   2.581  15.667 -0.3043 -0.4579  0.0487
 9856TIP3    H150983   3.624   2.672  15.687 -1.2762 -0.8063  0.4422
 9856TIP3    H250984   3.744   2.586  15.652 -0.1304  0.4217  1.2747
 9857TIP3   OH250985   1.359   5.327   5.171  0.2422  0.4354 -0.1933
 9857TIP3    H150986   1.383   5.256   5.111  0.9144  0.1198  0.4289
 9857TIP3    H250987   1.322   5.282   5.247  1.8254  0.6354  0.7495
 9858TIP3   OH250988   0.027   6.186   5.739 -0.1114  0.3781  0.3380
 9858TIP3    H150989  -0.057   6.218   5.771 -1.4499 -1.2407 -1.3324
 9858TIP3    H250990   0.027   6.093   5.761 -0.3446 -0.4315 -2.6576
 9859TIP3   OH250991   0.995   1.776   0.568 -0.4610  0.0617  0.8339
 9859TIP3    H150992   1.069   1.797   0.510 -1.0600  2.3815  0.8153
 9859TIP3    H250993   1.036   1.736   0.645  0.4980 -1.4756 -0.4136
 9860TIP3   OH250994   4.014   0.896   4.150  0.0568 -0.1463 -0.2999
 9860TIP3    H150995   4.108   0.903   4.165  0.3801  1.3512 -2.5580
 9860TIP3    H250996   3.977   0.976   4.189 -0.1689 -0.2691 -0.2589
 9861TIP3   OH250997   3.750   0.462   3.223  0.0608 -0.3875 -0.0553
 9861TIP3    H150998   3.777   0.393   3.284 -0.0523  0.3892  0.8927
 9861TIP3    H250999   3.699   0.523   3.277  1.3386  1.1765 -0.5260
 9862TIP3   OH251000   0.518   5.813   0.905  0.0654  0.1637  0.3285
 9862TIP3    H151001   0.497   5.892   0.955  1.2283 -0.2142  1.4586
 9862TIP3    H251002   0.600   5.782   0.942 -0.1686 -1.3642 -0.3624
 9863TIP3   OH251003   3.086   0.122   5.730 -0.6273  0.1038  0.1078
 9863TIP3    H151004   3.143   0.199   5.738 -1.4686  0.6999  0.4949
 9863TIP3    H251005   2.999   0.154   5.756 -1.5672 -0.2924 -2.2914
 9864TIP3   OH251006   1.674   0.028  11.855  0.1151  0.2422  0.4471
 9864TIP3    H151007   1.745   0.040  11.918 -1.2227 -1.1230  2.3228
 9864TIP3    H251008   1.705   0.071  11.775  1.7252  2.4544  2.1377
 9865TIP3   OH251009   6.220   1.194   0.292 -0.0015  0.0091 -0.2890
 9865TIP3    H151010   6.161   1.233   0.227  1.0366  0.3218 -1.0600
 9865TIP3    H251011   6.308   1.211   0.258  0.5155 -1.5144  0.2268
 9866TIP3   OH251012   2.855   6.065  16.779 -0.4234 -0.0632 -0.8732
 9866TIP3    H151013   2.829   5.975  16.760  1.1579 -0.2913 -2.2503
 9866TIP3    H251014   2.941   6.058  16.820 -1.1284  0.7622  0.8210
 9867TIP3   OH251015   4.281   1.207  11.980 -0.2635 -0.4378 -0.0904
 9867TIP3    H151016   4.216   1.277  11.970  1.0001  0.5135 -2.5409
 9867TIP3    H251017   4.352   1.248  12.030 -0.7809 -0.9782  1.1472
 9868TIP3   OH251018   4.114   0.840  12.853  0.5082  0.1230  0.1769
 9868TIP3    H151019   4.040   0.807  12.802 -1.1654  3.2618  0.3167
 9868TIP3    H251020   4.171   0.882  12.788  1.8567 -1.6068  0.1739
 9869TIP3   OH251021   3.284   1.914  17.284  0.5101  0.2683  0.1234
 9869TIP3    H151022   3.217   1.969  17.244 -0.6292 -1.3093 -0.2183
 9869TIP3    H251023   3.247   1.826  17.283  2.1538 -0.4773  0.9213
 9870TIP3   OH251024   1.039   3.469   4.341  0.4900 -0.4126 -0.1736
 9870TIP3    H151025   1.121   3.442   4.383  0.8777  2.4710  1.1737
 9870TIP3    H251026   0.970   3.427   4.393  1.0290  1.7151  2.4816
 9871TIP3   OH251027   3.663   6.733   1.309 -0.2419 -0.1671 -0.1065
 9871TIP3    H151028   3.706   6.722   1.394 -1.5612 -1.5080  0.4236
 9871TIP3    H251029   3.732   6.768   1.252  0.1932  2.5678  1.9118
 9872TIP3   OH251030   6.603   2.696   2.888 -0.4697 -0.2587  0.5142
 9872TIP3    H151031   6.557   2.733   2.812  0.4166 -1.9467 -0.9081
 9872TIP3    H251032   6.683   2.748   2.896 -1.7473  1.6437  2.0135
 9873TIP3   OH251033   0.190   5.913   4.827  0.3206 -0.1478 -0.4589
 9873TIP3    H151034   0.223   5.824   4.814 -0.1513 -0.3834 -0.0706
 9873TIP3    H251035   0.125   5.925   4.758 -1.7753 -1.1942  1.2319
 9874TIP3   OH251036   3.857   0.523   1.349 -0.3705 -0.0770  0.4238
 9874TIP3    H151037   3.911   0.566   1.416  0.2489  0.1645 -0.2223
 9874TIP3    H251038   3.799   0.466   1.399 -0.7773  1.0255  1.2605
 9875TIP3   OH251039   1.131   1.473  14.863 -0.1439 -0.0559  0.0118
 9875TIP3    H151040   1.167   1.518  14.939 -0.4315 -1.5674  1.0986
 9875TIP3    H251041   1.151   1.380  14.878 -1.8044 -0.6047 -0.8345
 9876TIP3   OH251042   2.358   2.985  12.921 -0.1725 -0.4833 -0.5053
 9876TIP3    H151043   2.298   2.913  12.939  1.8299 -2.3534 -0.8338
 9876TIP3    H251044   2.338   3.051  12.987 -0.7577 -2.2126  1.1190
 9877TIP3   OH251045   4.675   5.025   1.892  0.0012 -0.2405  0.3620
 9877TIP3    H151046   4.687   5.098   1.831  0.2936 -0.0622  0.6326
 9877TIP3    H251047   4.594   4.983   1.862  0.5713 -0.6616 -0.6650
 9878TIP3   OH251048   4.551   2.945  15.546  0.0146  0.6638  0.1017
 9878TIP3    H151049   4.483   2.969  15.608  0.6774  0.5412  0.8940
 9878TIP3    H251050   4.608   3.022  15.542  0.5481  0.2928  0.4492
 9879TIP3   OH251051   6.645   1.224   1.094 -0.2685 -0.2762  0.2240
 9879TIP3    H151052   6.694   1.292   1.141  0.7981 -0.3970 -0.6894
 9879TIP3    H251053   6.709   1.155   1.077 -0.3960  0.1175 -2.1206
 9880TIP3   OH251054   1.093   3.873  17.472  0.6486 -0.2466  0.1456
 9880TIP3    H151055   1.135   3.789  17.456 -0.8886 -0.4339 -3.9388
 9880TIP3    H251056   1.002   3.852  17.491  1.0061  0.4338  3.0869
 9881TIP3   OH251057   0.572   2.784  11.930  0.1311 -0.5286  0.0792
 9881TIP3    H151058   0.663   2.787  11.961  0.2064 -2.2545  0.1616
 9881TIP3    H251059   0.520   2.784  12.010 -0.0400  1.5783  0.0173
 9882TIP3   OH251060   4.470   5.393  13.587 -0.1132  0.8865 -0.6135
 9882TIP3    H151061   4.450   5.308  13.547  2.8972 -0.4843  0.4749
 9882TIP3    H251062   4.537   5.431  13.531 -0.3481  1.8796 -0.2490
 9883TIP3   OH251063   1.085   2.546   3.717  0.0899 -0.1712 -0.0225
 9883TIP3    H151064   1.161   2.494   3.741 -0.5061 -0.2360  1.8734
 9883TIP3    H251065   1.114   2.637   3.725  0.8606 -0.1372 -2.4448
 9884TIP3   OH251066   3.837   1.163   3.106  0.5120 -0.1793 -0.0378
 9884TIP3    H151067   3.864   1.145   3.196  0.5928  0.5815  0.0978
 9884TIP3    H251068   3.917   1.156   3.055  0.1608 -2.4715 -0.3656
 9885TIP3   OH251069   1.732   3.047  11.882  0.6520  0.1837  0.3020
 9885TIP3    H151070   1.675   3.071  11.955  0.5243 -2.2450  1.0740
 9885TIP3    H251071   1.672   3.030  11.809  0.4436 -1.1916  0.7710
 9886TIP3   OH251072   0.646   1.165   5.717  0.5057 -0.3435 -0.6930
 9886TIP3    H151073   0.675   1.128   5.800 -0.9765  1.0323  0.4941
 9886TIP3    H251074   0.552   1.150   5.715  0.3139  0.7742 -1.5141
 9887TIP3   OH251075   4.228   1.244   5.861 -0.1500 -0.1051 -0.6468
 9887TIP3    H151076   4.162   1.182   5.891 -0.3049  0.5743  0.4436
 9887TIP3    H251077   4.304   1.227   5.916 -0.6959  1.6693  0.7468
 9888TIP3   OH251078   0.054   5.640  13.186 -0.1257 -0.3589 -0.5937
 9888TIP3    H151079   0.149   5.649  13.198  0.1359 -0.5390 -2.2701
 9888TIP3    H251080   0.018   5.724  13.213  0.7560  0.5099 -2.0147
 9889TIP3   OH251081   1.217   2.018   3.262 -0.0519 -0.5985  0.5625
 9889TIP3    H151082   1.139   2.036   3.314 -0.4808  0.6080 -0.4424
 9889TIP3    H251083   1.252   2.104   3.239  1.5320 -1.1253  0.9075
 9890TIP3   OH251084   3.903   5.602  16.926 -0.1779  0.4339 -0.3425
 9890TIP3    H151085   3.920   5.538  16.857 -3.1695 -0.4466 -0.3850
 9890TIP3    H251086   3.924   5.687  16.886  1.0366 -0.2870 -1.2770
 9891TIP3   OH251087   6.535   0.351   6.166  0.6724 -0.3527 -0.6131
 9891TIP3    H151088   6.569   0.335   6.254  2.2568 -0.8340 -1.2761
 9891TIP3    H251089   6.443   0.376   6.180  1.4762  1.8419  1.3224
 9892TIP3   OH251090   4.563   2.751   4.167  0.5101 -0.4087 -0.2280
 9892TIP3    H151091   4.507   2.781   4.239 -0.1385 -0.4734 -0.6968
 9892TIP3    H251092   4.506   2.697   4.113  1.7107 -2.7495  0.7190
 9893TIP3   OH251093   4.583   2.676   0.988 -0.5303  0.4428  0.1419
 9893TIP3    H151094   4.512   2.627   1.030 -0.4209 -1.1537 -1.4161
 9893TIP3    H251095   4.663   2.636   1.023 -0.3221  2.0468  1.6739
 9894TIP3   OH251096   0.255   2.185   5.616  0.3812 -0.2135  0.6104
 9894TIP3    H151097   0.173   2.152   5.652  0.3892  0.9387  1.7606
 9894TIP3    H251098   0.287   2.246   5.682  0.2955  2.1660 -1.3877
 9895TIP3   OH251099   4.686   5.647   3.584  0.3765 -0.5325  0.5651
 9895TIP3    H151100   4.683   5.614   3.674 -0.1924 -0.1071  0.7060
 9895TIP3    H251101   4.594   5.662   3.560  0.4459 -1.5719 -0.4436
 9896TIP3   OH251102   0.933   0.929  11.499  0.4692  0.0593  0.3980
 9896TIP3    H151103   1.018   0.907  11.462  1.1166  0.0560  1.8227
 9896TIP3    H251104   0.870   0.896  11.436  1.5223  0.1623 -0.7405
 9897TIP3   OH251105   1.119   3.198   4.165  0.1487 -0.7541  0.3105
 9897TIP3    H151106   1.086   3.123   4.214  1.5030 -0.7145  1.3533
 9897TIP3    H251107   1.134   3.265   4.232  1.5000 -0.4900 -0.2253
 9898TIP3   OH251108   1.752   2.320   3.111  0.4682  0.2636  0.0497
 9898TIP3    H151109   1.776   2.386   3.177  0.7124 -0.2466  0.4852
 9898TIP3    H251110   1.667   2.349   3.078 -0.3634 -0.2342  1.6420
 9899TIP3   OH251111   4.750   2.488   0.762  0.1214  0.7374  0.3816
 9899TIP3    H151112   4.660   2.484   0.794 -1.0574 -0.3709 -2.6799
 9899TIP3    H251113   4.761   2.407   0.711  2.6451  1.1513  0.1225
 9900TIP3   OH251114   3.691   0.102  10.920  0.4641 -0.1430  0.2162
 9900TIP3    H151115   3.623   0.167  10.937  0.8401  0.4320 -0.4454
 9900TIP3    H251116   3.705   0.106  10.826  1.5151 -0.1644  0.3625
 9901TIP3   OH251117   0.663   6.196  15.749 -0.4537  0.5943  0.0285
 9901TIP3    H151118   0.659   6.291  15.743 -0.4407  0.6038  0.1741
 9901TIP3    H251119   0.681   6.178  15.841 -0.6849  0.4442  0.0455
 9902TIP3   OH251120   3.117   2.685   0.455  0.0593 -0.1968 -0.2841
 9902TIP3    H151121   3.194   2.636   0.427  0.6187  1.8085 -2.6375
 9902TIP3    H251122   3.129   2.697   0.549  1.6419 -1.5470 -0.2707
 9903TIP3   OH251123   0.688   3.787  16.141  0.3215 -0.1965 -0.0801
 9903TIP3    H151124   0.678   3.706  16.090  0.8868  0.1561 -0.7861
 9903TIP3    H251125   0.751   3.838  16.090  0.2774  0.5157  0.5732
 9904TIP3   OH251126   4.328   3.237   6.492 -0.5670 -0.2062 -0.2134
 9904TIP3    H151127   4.283   3.163   6.453 -2.1685  0.7582 -0.3171
 9904TIP3    H251128   4.257   3.292   6.528  0.7103 -0.4553  3.0467
 9905TIP3   OH251129   2.705   3.560   0.157  0.0448  0.3707  0.0630
 9905TIP3    H151130   2.687   3.644   0.114 -0.2323  0.4132  0.2568
 9905TIP3    H251131   2.704   3.496   0.087 -0.3021  0.4541 -0.0126
 9906TIP3   OH251132   0.045   0.181   0.777 -0.6096  0.0008 -0.1570
 9906TIP3    H151133   0.030   0.127   0.855  0.5933 -1.7374 -1.0629
 9906TIP3    H251134  -0.029   0.162   0.720 -1.7364  1.6246  0.6711
 9907TIP3   OH251135   2.623   1.310  15.717 -0.0017 -0.3490  0.1168
 9907TIP3    H151136   2.594   1.274  15.633 -0.6776 -0.5377  0.4233
 9907TIP3    H251137   2.543   1.341  15.759  0.2365 -0.8780  0.9931
 9908TIP3   OH251138   6.191   2.648   6.694  0.1364 -0.4836  0.5724
 9908TIP3    H151139   6.152   2.570   6.735 -0.2595 -0.0662  1.0127
 9908TIP3    H251140   6.269   2.615   6.649  0.3363 -1.0352  1.2921
 9909TIP3   OH251141   3.542   5.258  12.123  0.4174 -0.0506 -0.1737
 9909TIP3    H151142   3.631   5.294  12.124  1.2317 -1.9604  0.1361
 9909TIP3    H251143   3.497   5.308  12.055  1.5603  1.2995  0.0076
 9910TIP3   OH251144   4.597   5.149  13.097  0.0219 -0.2740  0.2420
 9910TIP3    H151145   4.577   5.080  13.035 -0.2362  0.7663 -0.8625
 9910TIP3    H251146   4.685   5.127  13.130  0.4035 -0.5465 -0.9176
 9911TIP3   OH251147   2.561   4.645   2.586  0.2779  0.1458  0.3499
 9911TIP3    H151148   2.502   4.571   2.593  0.8534 -0.4298 -0.7447
 9911TIP3    H251149   2.615   4.640   2.666 -0.7370  0.3448  1.0683
 9912TIP3   OH251150   0.377   5.131   6.753  0.1610 -0.1171 -0.5602
 9912TIP3    H151151   0.287   5.133   6.721  0.1538 -0.9404 -0.6143
 9912TIP3    H251152   0.370   5.099   6.843  0.3502  0.3835 -0.3654
 9913TIP3   OH251153   5.812   0.473   6.250 -0.1879 -0.2254 -0.3263
 9913TIP3    H151154   5.770   0.459   6.165  0.1454  0.1242 -0.5526
 9913TIP3    H251155   5.740   0.489   6.310 -0.4035 -0.0927 -0.6186
 9914TIP3   OH251156   2.376   3.097   4.840 -0.0821  0.0752  0.6090
 9914TIP3    H151157   2.451   3.145   4.875  0.0706 -0.0970  0.5245
 9914TIP3    H251158   2.305   3.115   4.901  0.1327 -0.0692  0.9066
 9915TIP3   OH251159   4.038   5.056   0.662 -0.2247 -0.2579  0.1094
 9915TIP3    H151160   3.986   4.983   0.695  0.6688 -0.8646  0.1968
 9915TIP3    H251161   4.039   5.120   0.734 -0.9419 -0.1803  0.0599
 9916TIP3   OH251162   6.455   0.026  14.629 -0.0660  0.0804  0.3399
 9916TIP3    H151163   6.487  -0.043  14.686  1.9262  0.6053 -0.0877
 9916TIP3    H251164   6.527   0.045  14.570 -0.7575  2.0976  0.0438
 9917TIP3   OH251165   1.577   1.123  13.144 -0.4027 -0.6725 -0.3133
 9917TIP3    H151166   1.598   1.085  13.059 -0.4656  0.5742 -0.9020
 9917TIP3    H251167   1.502   1.180  13.128  0.8032  1.1186  0.1405
 9918TIP3   OH251168   3.045   2.955  13.460 -0.0790  0.3426 -0.1426
 9918TIP3    H151169   2.971   2.896  13.479 -0.3800  1.0454  0.9696
 9918TIP3    H251170   3.029   3.031  13.515  1.3473  0.6270 -0.0879
 9919TIP3   OH251171   1.397   5.707   3.287 -0.3359 -0.4400  0.6254
 9919TIP3    H151172   1.391   5.614   3.268 -1.1999 -0.2426 -0.1651
 9919TIP3    H251173   1.473   5.716   3.344 -0.5031 -1.6746  1.0603
 9920TIP3   OH251174   1.309   0.468  15.193 -0.4970 -0.1265 -0.0412
 9920TIP3    H151175   1.236   0.408  15.184  0.0069 -0.6767 -0.5677
 9920TIP3    H251176   1.387   0.413  15.182  0.0426  0.2401  1.6004
 9921TIP3   OH251177   0.320   0.667   5.184 -0.7551 -0.1104  0.0324
 9921TIP3    H151178   0.319   0.629   5.096  0.2127 -0.9290  0.3502
 9921TIP3    H251179   0.326   0.761   5.170 -1.8269 -0.1407 -0.7695
 9922TIP3   OH251180   1.055   5.086   1.187  0.3770  0.0702  0.2513
 9922TIP3    H151181   1.100   5.159   1.143 -1.4752  0.4188 -1.2099
 9922TIP3    H251182   1.071   5.010   1.131 -1.5208  0.3955 -0.8293
 9923TIP3   OH251183   0.584   4.215  12.505 -0.1873 -0.1884  0.0441
 9923TIP3    H151184   0.539   4.149  12.451 -0.6641  0.7205 -0.7016
 9923TIP3    H251185   0.564   4.298  12.462  1.6588  0.3150  0.0881
 9924TIP3   OH251186   0.689   4.970  15.413  0.2882 -0.3353 -0.0205
 9924TIP3    H151187   0.617   4.979  15.350  0.4526 -0.7649 -0.2772
 9924TIP3    H251188   0.654   4.913  15.481  0.7757 -1.5386 -0.7574
 9925TIP3   OH251189   0.263   6.043   1.169 -0.1947  1.0679 -0.0140
 9925TIP3    H151190   0.260   5.985   1.245 -2.7795  1.4006  0.2585
 9925TIP3    H251191   0.183   6.022   1.121  1.1085  1.2600 -2.3752
 9926TIP3   OH251192   2.753   6.056   5.391  0.0445 -0.2464 -0.7295
 9926TIP3    H151193   2.669   6.017   5.415 -0.3680  1.3324  0.5741
 9926TIP3    H251194   2.745   6.075   5.297 -1.1831  0.1746 -0.5539
 9927TIP3   OH251195   6.329   2.017  12.427 -0.1818  0.2489  0.0540
 9927TIP3    H151196   6.352   2.070  12.504  0.3979 -1.4923  1.1319
 9927TIP3    H251197   6.252   2.061  12.390 -0.7857  0.8582  1.9235
 9928TIP3   OH251198   5.354   1.790   5.165 -0.2647  0.1239  0.0777
 9928TIP3    H151199   5.402   1.738   5.101 -1.2545  1.0236 -1.4644
 9928TIP3    H251200   5.272   1.742   5.178 -0.4036  0.3582  0.0634
 9929TIP3   OH251201   5.707   2.833  11.490  0.2031 -0.2880  0.2370
 9929TIP3    H151202   5.696   2.928  11.488  3.8101  0.3788  2.6308
 9929TIP3    H251203   5.694   2.805  11.399 -0.6429  2.5236 -0.5976
 9930TIP3   OH251204   3.318   2.451   2.298 -0.1445 -0.3239  0.0345
 9930TIP3    H151205   3.351   2.406   2.220 -0.1473 -0.7003  0.2492
 9930TIP3    H251206   3.236   2.492   2.270 -0.6696 -1.3083  0.1061
 9931TIP3   OH251207   1.576   3.646   1.406  0.1181  0.1354 -0.0736
 9931TIP3    H151208   1.484   3.668   1.394  0.0077  0.4357  1.1661
 9931TIP3    H251209   1.619   3.729   1.423  0.6034 -0.0185 -0.5287
 9932TIP3   OH251210   1.084   0.682  14.697  0.7371  0.3210 -0.4693
 9932TIP3    H151211   1.050   0.594  14.717  1.6592 -0.1295 -0.8001
 9932TIP3    H251212   1.121   0.713  14.780  1.5230 -0.1322 -0.6396
 9933TIP3   OH251213   4.857   0.446   1.580  0.0895 -0.2343 -0.0806
 9933TIP3    H151214   4.820   0.444   1.668 -1.9818  1.2099 -0.8261
 9933TIP3    H251215   4.850   0.356   1.549  0.1023 -0.5981  0.9403
 9934TIP3   OH251216   4.944   4.353   1.056 -0.4987 -0.1483  0.4559
 9934TIP3    H151217   5.011   4.306   1.106 -0.6048  1.5689  2.2997
 9934TIP3    H251218   4.950   4.444   1.085 -2.1459  0.4889 -0.9859
 9935TIP3   OH251219   2.740   3.070   4.206 -0.5491 -0.0536  0.0913
 9935TIP3    H151220   2.714   3.149   4.159  0.7564  0.6068  0.4265
 9935TIP3    H251221   2.739   3.095   4.299 -1.4182 -0.8323  0.3061
 9936TIP3   OH251222   5.396   6.451   1.799  0.1866 -0.7934  0.1557
 9936TIP3    H151223   5.342   6.529   1.791  1.2357  0.1245  1.6296
 9936TIP3    H251224   5.338   6.386   1.839 -0.3723 -0.4413 -0.0637
 9937TIP3   OH251225   2.298   4.526  15.965  0.1723  0.6092 -0.2873
 9937TIP3    H151226   2.242   4.479  15.904 -0.1584 -0.3026  0.6832
 9937TIP3    H251227   2.298   4.472  16.044 -0.9506  2.6736  1.2120
 9938TIP3   OH251228   5.414   1.252   0.049  0.0171  0.4594 -0.6288
 9938TIP3    H151229   5.372   1.189   0.108  0.0933  0.1654 -0.8871
 9938TIP3    H251230   5.439   1.200  -0.027  1.3762  0.5080 -0.2427
 9939TIP3   OH251231   1.474   3.330  12.880 -0.1487 -0.2100  0.5643
 9939TIP3    H151232   1.567   3.313  12.896 -0.1367  0.2626  1.0211
 9939TIP3    H251233   1.446   3.384  12.954 -0.3420  1.2336 -0.5184
 9940TIP3   OH251234   6.054   0.303  15.294 -0.0269 -0.1652 -0.0475
 9940TIP3    H151235   6.081   0.213  15.312 -0.0240 -0.1312  0.1235
 9940TIP3    H251236   6.071   0.349  15.376  1.4014  0.3288 -0.5983
 9941TIP3   OH251237   2.686   6.186  11.819 -0.3345 -0.0172 -1.0110
 9941TIP3    H151238   2.773   6.146  11.825 -0.4488 -0.5004 -2.2829
 9941TIP3    H251239   2.632   6.120  11.777 -1.1500  0.5390 -0.8533
 9942TIP3   OH251240   3.740   6.443  14.844 -0.1144  0.6356 -0.1254
 9942TIP3    H151241   3.754   6.468  14.752 -1.2627 -0.0613 -0.5187
 9942TIP3    H251242   3.645   6.454  14.857 -0.2668 -1.0204  0.4196
 9943TIP3   OH251243   0.733   0.499   3.661 -0.3599 -0.0881  0.3792
 9943TIP3    H151244   0.807   0.550   3.693  1.1282 -2.3261  0.7602
 9943TIP3    H251245   0.717   0.434   3.730 -2.9690  0.5632  0.4775
 9944TIP3   OH251246   3.383   6.656   1.904  0.1694  0.0148 -0.0594
 9944TIP3    H151247   3.398   6.567   1.936  0.0501  0.1195  0.2919
 9944TIP3    H251248   3.339   6.644   1.819  0.2202 -0.2608 -0.0476
 9945TIP3   OH251249   3.047   1.555  11.001  0.1339  0.1420  0.5967
 9945TIP3    H151250   3.098   1.607  11.063 -0.3538  0.4702  0.7254
 9945TIP3    H251251   3.111   1.496  10.961  0.3886 -0.3015  1.6390
 9946TIP3   OH251252   2.210   6.469   1.403 -0.2068 -0.1968  0.1216
 9946TIP3    H151253   2.185   6.514   1.322  0.5328 -2.0276 -1.2028
 9946TIP3    H251254   2.171   6.521   1.473 -0.7951  1.5040 -1.4053
 9947TIP3   OH251255   3.986   5.824   0.147  0.3048  0.0232 -0.5576
 9947TIP3    H151256   3.973   5.782   0.062 -1.6187 -0.2461 -0.1803
 9947TIP3    H251257   3.991   5.918   0.128 -0.3438 -0.0204 -0.9693
 9948TIP3   OH251258   2.557   3.263  13.852 -0.3395  0.0255 -0.3213
 9948TIP3    H151259   2.532   3.352  13.828  0.4966  0.0029 -1.3103
 9948TIP3    H251260   2.596   3.272  13.939 -1.6577  0.3813  0.2646
 9949TIP3   OH251261   5.567   5.852   5.623 -0.0950 -0.0055 -0.5544
 9949TIP3    H151262   5.492   5.834   5.679  0.5811 -0.4318  0.2409
 9949TIP3    H251263   5.538   5.828   5.535 -0.6783 -0.7575 -0.1640
 9950TIP3   OH251264   0.089   3.436   1.015 -0.1086 -0.2578  0.5215
 9950TIP3    H151265   0.006   3.469   0.979 -0.3305 -0.2965  0.9906
 9950TIP3    H251266   0.156   3.494   0.978 -0.1707 -1.1291 -1.0550
 9951TIP3   OH251267   3.083   1.603   0.368 -0.5488  0.3948  0.4030
 9951TIP3    H151268   3.090   1.546   0.292  2.3491 -1.5125  1.9286
 9951TIP3    H251269   3.161   1.658   0.364 -1.0425  1.1969  1.3158
 9952TIP3   OH251270   6.414   4.924   3.573  0.4702  0.4169  0.0383
 9952TIP3    H151271   6.361   4.906   3.495 -0.8101  1.4580  0.6404
 9952TIP3    H251272   6.355   4.969   3.633  1.9631  1.3464  0.8665
 9953TIP3   OH251273   0.314   5.435   3.242 -0.1616  0.1097 -0.1999
 9953TIP3    H151274   0.296   5.355   3.193 -0.2181  0.2723 -0.4448
 9953TIP3    H251275   0.404   5.424   3.274 -1.3032 -1.6423  2.8096
 9954TIP3   OH251276   4.369   3.155  17.304  0.3663 -0.3516  0.4702
 9954TIP3    H151277   4.324   3.108  17.234 -0.4963  0.5144  0.4193
 9954TIP3    H251278   4.375   3.092  17.376  1.7641 -1.4400 -0.5358
 9955TIP3   OH251279   2.370   5.815  12.657 -0.1998 -0.6611 -0.1769
 9955TIP3    H151280   2.380   5.788  12.566 -0.4759 -0.6245 -0.2198
 9955TIP3    H251281   2.292   5.769  12.687 -1.5503  1.1555 -0.6829
 9956TIP3   OH251282   5.216   4.088  12.714 -0.0428 -0.7889  0.4798
 9956TIP3    H151283   5.214   4.015  12.653 -1.5524 -0.5493  0.2253
 9956TIP3    H251284   5.128   4.092  12.752  0.4781 -0.1142  1.7025
 9957TIP3   OH251285   6.208   3.276  17.381  0.2996 -0.1527 -0.0459
 9957TIP3    H151286   6.123   3.283  17.425  0.5320  0.1371  0.3527
 9957TIP3    H251287   6.242   3.365  17.378  1.2668 -0.4513  1.1401
 9958TIP3   OH251288   5.356   6.071   0.484 -0.2687  0.5743  0.0853
 9958TIP3    H151289   5.342   6.138   0.417 -2.6549 -0.9685 -1.1367
 9958TIP3    H251290   5.310   6.103   0.561 -2.9345 -0.2964 -1.0299
 9959TIP3   OH251291   4.920   3.221  15.220  0.2952  0.6533 -0.0015
 9959TIP3    H151292   4.993   3.256  15.271  1.0832 -0.2787 -0.4457
 9959TIP3    H251293   4.842   3.260  15.259  1.0721  2.3290 -0.0347
 9960TIP3   OH251294   1.153   0.350  13.005  0.2504 -0.1501  0.2290
 9960TIP3    H151295   1.198   0.389  13.080  0.2794 -1.6627  1.0248
 9960TIP3    H251296   1.167   0.256  13.015 -2.5291 -0.6435  0.1379
 9961TIP3   OH251297   4.284   4.640   0.289 -0.0728  0.4425 -0.7131
 9961TIP3    H151298   4.357   4.591   0.327 -0.3844  0.2398 -0.3553
 9961TIP3    H251299   4.316   4.729   0.279 -0.5310  0.9757  1.7642
 9962TIP3   OH251300   0.904   0.473   1.588  0.0000  0.3470  0.4234
 9962TIP3    H151301   0.867   0.508   1.507 -1.2950 -1.3930  0.1964
 9962TIP3    H251302   0.940   0.387   1.563  1.5123  0.6816  1.2884
 9963TIP3   OH251303   5.461   2.411   2.993 -0.1462 -0.1295 -0.0070
 9963TIP3    H151304   5.391   2.353   3.022  0.9767 -0.8405  1.3783
 9963TIP3    H251305   5.458   2.406   2.897 -0.6072 -1.8158  0.0631
 9964TIP3   OH251306   2.157   4.701   1.537  0.6508  0.5471  0.1475
 9964TIP3    H151307   2.130   4.658   1.456  1.2743  0.4316 -0.0075
 9964TIP3    H251308   2.206   4.634   1.584  1.2038  0.9343  0.1318
 9965TIP3   OH251309   2.299   2.551  12.348 -0.0177  0.0886 -0.2239
 9965TIP3    H151310   2.284   2.515  12.261  0.2320 -1.1816  0.2348
 9965TIP3    H251311   2.292   2.476  12.407  0.1773  0.8586  0.8166
 9966TIP3   OH251312   0.374   4.279   6.393 -0.5466  0.5057  0.3087
 9966TIP3    H151313   0.336   4.324   6.468  0.6147  0.8644  0.6979
 9966TIP3    H251314   0.468   4.287   6.405 -0.3134 -1.0297 -0.2233
 9967TIP3   OH251315   4.821   3.204  12.632 -0.6718 -0.2726 -0.1141
 9967TIP3    H151316   4.902   3.208  12.682 -0.7840  0.3384  0.0341
 9967TIP3    H251317   4.840   3.145  12.559  0.3614  0.9856 -0.8992
 9968TIP3   OH251318   3.919   3.493   6.082 -0.2675  0.2261  0.2798
 9968TIP3    H151319   3.912   3.567   6.143 -1.8313 -0.2156  0.6815
 9968TIP3    H251320   3.834   3.450   6.086  0.0436 -0.6168 -1.2252
 9969TIP3   OH251321   0.513   0.563  12.791  0.7789  0.2933  0.5704
 9969TIP3    H151322   0.533   0.515  12.871  1.3137  0.2435  0.4122
 9969TIP3    H251323   0.596   0.565  12.743 -0.2053 -2.5241 -1.5328
 9970TIP3   OH251324   4.714   6.348  15.795  0.2536 -1.0706 -0.0900
 9970TIP3    H151325   4.704   6.272  15.738 -2.5155 -1.6178  0.9512
 9970TIP3    H251326   4.716   6.311  15.883 -0.6259 -0.0029  0.4052
 9971TIP3   OH251327   3.648   2.563  16.915 -0.6808  0.1466  0.6428
 9971TIP3    H151328   3.613   2.474  16.909 -0.9026  0.3156 -1.0167
 9971TIP3    H251329   3.581   2.612  16.963  0.1153 -0.8677  2.9137
 9972TIP3   OH251330   2.732   2.736   5.043  0.2397  0.4856  0.2247
 9972TIP3    H151331   2.651   2.690   5.021  0.3446  0.2667  0.2951
 9972TIP3    H251332   2.766   2.691   5.121 -1.7780  3.2057  2.9134
 9973TIP3   OH251333   3.935   4.753   2.983  0.0840  0.3220 -0.0386
 9973TIP3    H151334   3.864   4.696   3.011  0.6416 -0.3390  0.0484
 9973TIP3    H251335   3.951   4.811   3.057  1.3148 -1.1800  0.9304
 9974TIP3   OH251336   6.124   3.723   1.800  0.2356  0.1788 -0.0062
 9974TIP3    H151337   6.177   3.801   1.782 -0.9746  0.9698 -0.3137
 9974TIP3    H251338   6.066   3.749   1.871 -0.2022 -0.4293 -0.1295
 9975TIP3   OH251339   5.195   6.096   4.962 -0.0070 -0.2017  0.3223
 9975TIP3    H151340   5.203   6.095   4.867 -0.3986 -0.5213  0.2876
 9975TIP3    H251341   5.171   6.186   4.984 -0.0035 -0.1490  0.1088
 9976TIP3   OH251342   2.046   6.447   1.788  0.4753  0.1008 -0.6664
 9976TIP3    H151343   1.977   6.478   1.845  0.3500 -1.0126 -0.2062
 9976TIP3    H251344   2.006   6.378   1.735  0.9437  0.1939 -1.1597
 9977TIP3   OH251345   1.657   1.497   3.930 -0.0501  0.0529  0.0905
 9977TIP3    H151346   1.584   1.556   3.950 -0.1839 -0.0761 -0.0073
 9977TIP3    H251347   1.688   1.466   4.015 -1.4727 -1.5357  0.0828
 9978TIP3   OH251348   2.866   5.657  11.595  0.4954  0.3148  0.4800
 9978TIP3    H151349   2.843   5.664  11.502 -1.5373  1.6783  1.0166
 9978TIP3    H251350   2.955   5.622  11.595  1.3901  2.2436 -2.0644
 9979TIP3   OH251351   4.804   1.027  13.137  0.1092  0.2295 -0.0142
 9979TIP3    H151352   4.748   0.990  13.206 -0.7406 -1.1378 -1.3612
 9979TIP3    H251353   4.863   0.956  13.114 -1.6322 -0.4953 -2.7456
 9980TIP3   OH251354   0.088   2.611   5.959  0.5844  0.3073 -0.1957
 9980TIP3    H151355   0.161   2.653   6.004  0.2142  0.8991 -0.1427
 9980TIP3    H251356   0.010   2.649   6.000  0.2431  0.4805 -0.9993
 9981TIP3   OH251357   5.982   2.631  11.820  0.7152 -0.1906 -0.0060
 9981TIP3    H151358   6.043   2.658  11.751 -2.0198  0.2072 -2.4828
 9981TIP3    H251359   5.898   2.626  11.776 -1.0863 -0.7328  3.2134
 9982TIP3   OH251360   4.238   2.994   5.880 -0.2603  0.0386  0.6728
 9982TIP3    H151361   4.179   2.949   5.941 -1.5290  1.2712  0.4102
 9982TIP3    H251362   4.239   3.085   5.911  0.2337  0.3682 -0.2843
 9983TIP3   OH251363   1.123   3.172  15.287 -0.2651 -0.0806 -0.5846
 9983TIP3    H151364   1.137   3.243  15.350  1.6892  0.7223 -1.8156
 9983TIP3    H251365   1.099   3.096  15.340 -0.8161  1.0915  0.9035
 9984TIP3   OH251366   2.907   1.516  13.189 -0.0086  0.3369  0.1459
 9984TIP3    H151367   2.889   1.425  13.164 -0.3116  0.7015 -0.9979
 9984TIP3    H251368   2.834   1.539  13.246  0.0561 -0.1225  0.4244
 9985TIP3   OH251369   6.572   5.014   4.448  0.2993  0.3451 -0.2024
 9985TIP3    H151370   6.533   5.027   4.362  0.8934 -1.8178 -0.8790
 9985TIP3    H251371   6.501   5.029   4.510 -0.4003  0.9090 -1.1235
 9986TIP3   OH251372   0.076   1.939  13.037  0.1090 -0.5557 -0.1926
 9986TIP3    H151373   0.069   1.924  12.943  0.5894 -3.6098  0.1506
 9986TIP3    H251374   0.148   1.882  13.065  0.1516  0.4809  2.0040
 9987TIP3   OH251375   5.336   4.263   5.163  0.3577  0.6177  0.3053
 9987TIP3    H151376   5.347   4.334   5.099 -1.6442  0.7786  0.0737
 9987TIP3    H251377   5.289   4.195   5.114  2.7111 -1.1701  0.3517
 9988TIP3   OH251378   4.344   3.953   1.138 -0.2564  0.4289 -0.5820
 9988TIP3    H151379   4.302   3.934   1.054 -1.6899 -1.6992  0.5214
 9988TIP3    H251380   4.301   3.894   1.200  1.8926  0.7674  1.3538
 9989TIP3   OH251381   5.346   0.286  11.502  0.2477  0.1599 -0.1096
 9989TIP3    H151382   5.388   0.294  11.416  0.1947  0.7654 -0.0825
 9989TIP3    H251383   5.367   0.368  11.546 -0.2510  0.1093  0.2250
 9990TIP3   OH251384   4.826   1.391  12.104 -0.4666  0.1463 -0.0992
 9990TIP3    H151385   4.920   1.378  12.092  0.1049  2.8272  0.6492
 9990TIP3    H251386   4.788   1.304  12.098  2.0671 -1.0182 -0.4173
 9991TIP3   OH251387   5.940   5.361  11.632 -0.1999 -0.0852 -0.2340
 9991TIP3    H151388   5.997   5.289  11.659  0.5790  0.7188  0.2958
 9991TIP3    H251389   5.959   5.431  11.694 -1.0120  0.5548 -0.6917
 9992TIP3   OH251390   0.348   1.399   4.466 -0.5499 -0.2840 -0.2331
 9992TIP3    H151391   0.275   1.461   4.474 -1.4385 -1.4040  0.5653
 9992TIP3    H251392   0.330   1.331   4.531  1.4434 -0.3748  0.3064
 9993TIP3   OH251393   5.192   1.113  11.964 -0.1055 -0.2718 -0.1589
 9993TIP3    H151394   5.139   1.090  12.041 -0.7492 -1.0894 -0.8121
 9993TIP3    H251395   5.254   1.040  11.956 -1.4274 -1.3014 -1.6056
 9994TIP3   OH251396   0.345   6.088  15.845 -0.0128 -0.0024 -0.0154
 9994TIP3    H151397   0.401   6.114  15.918 -0.5292  1.6670 -0.1723
 9994TIP3    H251398   0.363   5.995  15.833  0.7149 -0.1154  1.6732
 9995TIP3   OH251399   1.582   3.442  12.382 -0.0656 -0.3306 -0.0278
 9995TIP3    H151400   1.561   3.444  12.289 -0.9920 -1.5342  0.1305
 9995TIP3    H251401   1.498   3.457  12.426  0.7056  2.8001  0.6718
 9996TIP3   OH251402   5.277   6.503  13.094  0.3875  0.3781 -0.1681
 9996TIP3    H151403   5.182   6.491  13.100  0.4236  0.4875  0.7680
 9996TIP3    H251404   5.288   6.588  13.052  0.0413  1.0967  1.1466
 9997TIP3   OH251405   0.988   6.704   1.949  0.6198 -0.0650 -0.7927
 9997TIP3    H151406   0.988   6.685   2.043  0.1992 -2.8407 -1.2798
 9997TIP3    H251407   1.079   6.726   1.929  0.6667  0.8429  0.2709
 9998TIP3   OH251408   2.416   5.127   1.597 -0.4123 -0.2263  0.7107
 9998TIP3    H151409   2.494   5.158   1.645  0.0158 -1.0338  0.5443
 9998TIP3    H251410   2.399   5.040   1.632 -0.3747 -0.6454 -0.2842
 9999TIP3   OH251411   2.340   3.650  15.789  0.7229  0.1336 -0.3542
 9999TIP3    H151412   2.300   3.659  15.703 -1.8882 -0.5045  0.7034
 9999TIP3    H251413   2.429   3.684  15.778 -0.6809  3.6399 -2.3852
10000TIP3   OH251414   3.098   2.579  17.078 -0.3192 -0.1784  0.4627
10000TIP3    H151415   3.072   2.637  17.007  0.1061 -2.4082 -1.6316
10000TIP3    H251416   3.178   2.618  17.113 -1.5467  1.9611  1.0697
10001TIP3   OH251417   1.538   1.311  15.092 -0.1538 -0.0199  0.3433
10001TIP3    H151418   1.543   1.394  15.045 -1.7731 -0.2979 -0.4070
10001TIP3    H251419   1.597   1.321  15.166  1.1577  1.0705 -0.7913
10002TIP3   OH251420   3.968   4.457   0.015  0.2901  0.0116  0.0921
10002TIP3    H151421   3.992   4.490   0.101  1.1740 -2.0705  0.7138
10002TIP3    H251422   3.947   4.365   0.029  0.6285 -0.4379 -1.9241
10003TIP3   OH251423   5.632   1.808  13.205 -0.1979 -0.1911 -0.3417
10003TIP3    H151424   5.649   1.779  13.295 -0.1141 -1.9744 -0.8844
10003TIP3    H251425   5.719   1.831  13.170  0.3601 -2.9050 -1.0169
10004TIP3   OH251426   1.084   0.673  15.870 -0.2754 -0.5891 -0.2673
10004TIP3    H151427   1.033   0.727  15.930 -2.2151 -0.4719 -1.9348
10004TIP3    H251428   1.063   0.583  15.896 -0.2210 -0.5490 -0.0782
10005TIP3   OH251429   3.695   1.179  16.089  0.6667 -0.1744 -0.0942
10005TIP3    H151430   3.630   1.154  16.154  0.8708 -1.0474 -0.2220
10005TIP3    H251431   3.653   1.165  16.005  0.6817  0.2011 -0.1696
10006TIP3   OH251432   0.962   4.187   6.756  0.0240  0.6226  0.2958
10006TIP3    H151433   0.931   4.276   6.775 -1.3048  0.3128 -0.2691
10006TIP3    H251434   1.033   4.200   6.694  0.0631  1.3172  0.4741
10007TIP3   OH251435   2.067   5.240  12.096  0.0887  0.3724 -0.8484
10007TIP3    H151436   2.148   5.262  12.050  0.2973  0.9260 -0.2355
10007TIP3    H251437   2.001   5.296  12.056  0.3849  1.2846 -0.1001
10008TIP3   OH251438   3.743   0.831   5.661  0.0425 -0.0031  0.1415
10008TIP3    H151439   3.682   0.785   5.719 -0.7927 -0.8741 -1.3485
10008TIP3    H251440   3.734   0.923   5.685 -0.1974 -0.3416  1.4439
10009TIP3   OH251441   6.683   4.845   0.838  0.3241 -0.2068 -0.2982
10009TIP3    H151442   6.713   4.769   0.788  0.9320  0.2007 -0.5731
10009TIP3    H251443   6.588   4.843   0.829  0.3761 -0.5220 -0.9149
10010TIP3   OH251444   2.261   5.329   0.881  0.9868  0.2485  0.3038
10010TIP3    H151445   2.219   5.261   0.827  0.7265  1.2311 -0.7721
10010TIP3    H251446   2.229   5.313   0.969 -0.2226 -0.1399 -0.1883
10011TIP3   OH251447   5.088   4.714  14.818 -0.7586 -0.0061 -0.9254
10011TIP3    H151448   5.123   4.649  14.879 -1.3868 -1.2006 -1.7805
10011TIP3    H251449   5.142   4.704  14.739 -1.1097  0.2310 -1.1972
10012TIP3   OH251450   0.578   4.350   5.726  0.4766  0.7113  0.0120
10012TIP3    H151451   0.665   4.349   5.687 -1.0024  0.4975 -3.8017
10012TIP3    H251452   0.553   4.443   5.728  0.3548  0.6805 -0.0537
10013TIP3   OH251453   1.300   1.407   5.134 -0.9045  0.3140 -0.2971
10013TIP3    H151454   1.216   1.434   5.170 -1.4135  0.3571 -1.5079
10013TIP3    H251455   1.364   1.462   5.181 -1.6287  1.0359 -0.1281
10014TIP3   OH251456   6.255   4.090  12.113 -0.4126 -0.3779  0.9642
10014TIP3    H151457   6.287   4.000  12.117  0.1151 -0.2412  0.0942
10014TIP3    H251458   6.333   4.144  12.132 -0.4280 -0.0769  0.2114
10015TIP3   OH251459   1.277   1.201  13.035 -0.0827 -0.6917  0.4113
10015TIP3    H151460   1.194   1.152  13.037 -0.8903  0.5290 -0.8345
10015TIP3    H251461   1.260   1.279  13.089  0.5545 -0.8443  0.8448
10016TIP3   OH251462   1.291   6.468   5.830 -0.2132 -0.0529  0.2712
10016TIP3    H151463   1.335   6.402   5.883 -0.0943  0.2177  0.5155
10016TIP3    H251464   1.278   6.542   5.891 -1.7171 -0.4247  0.4285
10017TIP3   OH251465   2.994   0.508  10.954 -0.3543  0.2775  0.5094
10017TIP3    H151466   3.018   0.541  11.041 -1.3919  0.7783  0.6154
10017TIP3    H251467   3.001   0.585  10.897 -2.3057  0.6172  0.6665
10018TIP3   OH251468   1.806   6.120   1.035 -0.1812  0.0605  0.0304
10018TIP3    H151469   1.711   6.110   1.038 -0.1385 -0.4710 -0.3436
10018TIP3    H251470   1.827   6.175   1.111 -0.6327 -1.0592  1.0001
10019TIP3   OH251471   0.973   4.048   1.484  0.3005  0.0979  0.3800
10019TIP3    H151472   0.961   4.127   1.431  0.1614  0.2474  0.6294
10019TIP3    H251473   0.888   4.036   1.526  0.1054 -0.5881 -0.2047
10020TIP3   OH251474   0.638   5.514   4.317 -0.0235 -0.3101 -0.5005
10020TIP3    H151475   0.612   5.557   4.399  1.5376  0.2561 -0.2745
10020TIP3    H251476   0.721   5.555   4.294 -0.2096 -0.7962 -2.1331
10021TIP3   OH251477   4.273   5.441  14.661  0.1598 -0.1262  0.3306
10021TIP3    H151478   4.241   5.353  14.680 -2.4929  0.7581  0.4381
10021TIP3    H251479   4.305   5.436  14.571 -1.6947 -0.8194 -0.3372
10022TIP3   OH251480   2.715   3.895  16.063 -0.1360  0.1195 -0.0951
10022TIP3    H151481   2.629   3.859  16.043 -1.7868  2.6596  1.7846
10022TIP3    H251482   2.776   3.845  16.009 -2.7819 -1.7139 -1.5686
10023TIP3   OH251483   3.971   4.297  14.612  0.6454 -0.3454  0.3076
10023TIP3    H151484   3.960   4.334  14.700  1.0577 -0.2232  0.3107
10023TIP3    H251485   3.902   4.338  14.560 -0.1985 -1.1388  0.7903
10024TIP3   OH251486   3.231   5.118  12.533 -0.2930 -0.1162 -0.0147
10024TIP3    H151487   3.147   5.139  12.493 -0.8036  1.7908  1.8492
10024TIP3    H251488   3.225   5.153  12.622  1.7462 -1.7369  0.8681
10025TIP3   OH251489   3.024   5.585  12.244 -0.1811 -0.0273  0.0699
10025TIP3    H151490   2.960   5.653  12.265 -0.7829 -0.8667  1.0950
10025TIP3    H251491   3.092   5.630  12.195  0.2129  1.6415  2.0222
10026TIP3   OH251492   0.761   6.448   6.997 -0.0035 -0.2744 -0.5893
10026TIP3    H151493   0.721   6.367   6.966  0.1318 -0.3406 -0.5920
10026TIP3    H251494   0.823   6.472   6.928  0.1498 -0.3121 -0.4664
10027TIP3   OH251495   2.041   6.445  15.563 -0.1242 -0.3065  0.5889
10027TIP3    H151496   2.008   6.473  15.478 -2.3771 -1.6728  0.9341
10027TIP3    H251497   2.018   6.516  15.623  2.3980  1.1546  0.0043
10028TIP3   OH251498   4.796   5.740  11.911  0.1394  0.0295  0.1477
10028TIP3    H151499   4.858   5.767  11.979 -0.6429  0.7509  0.6009
10028TIP3    H251500   4.719   5.711  11.959 -0.2146  0.0100 -0.4264
10029TIP3   OH251501   3.817   3.648   3.705 -0.2317 -0.6003 -0.3817
10029TIP3    H151502   3.813   3.575   3.643 -1.2561  0.5792 -1.7641
10029TIP3    H251503   3.825   3.606   3.791  1.0927 -2.2837 -1.2658
10030TIP3   OH251504   3.124   4.927  14.391  0.0201 -0.0735 -0.1648
10030TIP3    H151505   3.057   4.863  14.415 -0.4342  0.1415 -0.8485
10030TIP3    H251506   3.207   4.883  14.411 -0.3186  0.0813  1.7694
10031TIP3   OH251507   5.393   1.074  14.197 -0.1615 -0.7321 -0.1897
10031TIP3    H151508   5.342   1.053  14.276  1.2689 -2.0406  0.4425
10031TIP3    H251509   5.465   1.011  14.198  0.2977 -0.3044 -2.1771
10032TIP3   OH251510   0.412   4.707  16.718  0.4305 -0.5570 -0.2382
10032TIP3    H151511   0.328   4.741  16.688  0.7671 -0.1103 -0.6941
10032TIP3    H251512   0.473   4.780  16.706  0.8514 -0.8306  0.2284
10033TIP3   OH251513   3.002   4.102  12.000 -0.3499  0.1488  0.4352
10033TIP3    H151514   2.956   4.042  11.942  0.7609 -0.2984 -0.0120
10033TIP3    H251515   2.942   4.176  12.011 -1.3977 -0.6738  0.3455
10034TIP3   OH251516   5.059   3.321   0.700 -0.0498 -0.0156  0.4313
10034TIP3    H151517   5.147   3.350   0.724  0.1131 -1.7796  2.3597
10034TIP3    H251518   5.069   3.284   0.612  1.3446 -0.8077  0.8760
10035TIP3   OH251519   6.721   0.115  16.566 -0.2254 -0.5412  0.0031
10035TIP3    H151520   6.699   0.142  16.655  0.3211 -0.3200  0.0699
10035TIP3    H251521   6.812   0.087  16.570  0.0961  0.3675 -0.6854
10036TIP3   OH251522   0.125   4.103   2.213 -0.3026  0.3123 -0.3277
10036TIP3    H151523   0.127   4.157   2.134  2.7084  1.3599  0.3330
10036TIP3    H251524   0.200   4.044   2.204 -0.8112 -0.5937  1.0540
10037TIP3   OH251525   1.663   4.850   6.717  0.2758 -0.9906  0.4914
10037TIP3    H151526   1.674   4.793   6.793 -0.4985 -0.8783  0.6966
10037TIP3    H251527   1.623   4.794   6.650  1.3791 -1.2120  0.0001
10038TIP3   OH251528   5.296   1.561   3.232 -0.6973 -0.3329  0.0910
10038TIP3    H151529   5.336   1.549   3.319 -0.0451 -0.1301 -0.1703
10038TIP3    H251530   5.214   1.607   3.249 -0.0522  0.6971  0.5146
10039TIP3   OH251531   5.966   1.142   3.544 -0.5876 -0.1659  0.8599
10039TIP3    H151532   5.933   1.084   3.612 -3.6084  0.9992  0.5184
10039TIP3    H251533   5.921   1.225   3.558  0.7341  0.9551 -0.9501
10040TIP3   OH251534   4.726   4.742   3.979 -0.2426 -0.1181 -0.0185
10040TIP3    H151535   4.817   4.754   3.952 -0.0257 -0.9022  0.3324
10040TIP3    H251536   4.674   4.779   3.907  0.3430 -0.5737 -0.6856
10041TIP3   OH251537   1.590   3.384   4.205  0.8274  0.0309  1.0325
10041TIP3    H151538   1.495   3.390   4.219  0.5591  0.3198 -0.6921
10041TIP3    H251539   1.610   3.291   4.213  0.3233 -0.0849  0.9717
10042TIP3   OH251540   0.350   5.319   2.029  0.5526 -0.3727  0.1267
10042TIP3    H151541   0.353   5.415   2.022  2.9267 -0.5108 -1.9778
10042TIP3    H251542   0.364   5.302   2.122 -0.1620  1.2870  0.5949
10043TIP3   OH251543   2.660   6.363   0.563 -0.2628  0.7735  0.3636
10043TIP3    H151544   2.658   6.335   0.472 -0.9561 -0.5535  0.7505
10043TIP3    H251545   2.682   6.456   0.560  1.5251  0.3419 -1.0440
10044TIP3   OH251546   2.724   2.047  17.436 -0.6678 -0.1966 -0.3284
10044TIP3    H151547   2.646   2.063  17.383  0.7191 -0.0267 -2.4103
10044TIP3    H251548   2.772   1.979  17.388  1.1159  0.6507  0.1862
10045TIP3   OH251549   4.862   2.908  12.732 -0.8602  0.5417  0.1809
10045TIP3    H151550   4.814   2.942  12.808  0.6877 -0.4028  1.6593
10045TIP3    H251551   4.877   2.816  12.753 -4.3893 -1.1471 -3.3798
10046TIP3   OH251552   5.312   0.755  12.134  1.3825  0.7625  0.2212
10046TIP3    H151553   5.384   0.707  12.176  1.7052 -0.7941 -1.9803
10046TIP3    H251554   5.235   0.701  12.150  1.9106 -1.3008 -3.1517
10047TIP3   OH251555   2.298   2.857   5.518  0.2809  0.1728 -0.1389
10047TIP3    H151556   2.325   2.802   5.444 -1.3149  0.8952 -1.2982
10047TIP3    H251557   2.362   2.929   5.518  0.9047 -0.3653 -0.1499
10048TIP3   OH251558   3.763   3.995   6.077  0.1596  0.4306 -0.3881
10048TIP3    H151559   3.848   3.982   6.119 -0.0056 -1.2633 -0.4878
10048TIP3    H251560   3.708   3.924   6.111 -0.2126 -0.5493 -2.7824
10049TIP3   OH251561   3.471   5.686  12.300  0.0720 -0.2339 -0.3959
10049TIP3    H151562   3.414   5.744  12.350 -0.7026 -2.1369  1.0215
10049TIP3    H251563   3.414   5.646  12.235  0.4478  0.0692 -0.9171
10050TIP3   OH251564   3.054   4.349  12.646 -0.4809  0.5294  0.2955
10050TIP3    H151565   3.088   4.432  12.613 -0.7679  0.3907 -0.3739
10050TIP3    H251566   3.073   4.286  12.577 -1.2718  0.2667  0.2993
10051TIP3   OH251567   3.457   4.652   3.644 -0.3487  0.1799 -0.0368
10051TIP3    H151568   3.523   4.585   3.627  0.8360  1.4258 -0.5880
10051TIP3    H251569   3.482   4.690   3.728 -0.2444  0.7721 -0.3276
10052TIP3   OH251570   5.588   4.760  13.587 -0.0251 -0.2255  0.2727
10052TIP3    H151571   5.585   4.681  13.533  0.2408 -0.8790  1.2046
10052TIP3    H251572   5.558   4.830  13.528  0.9582 -0.7921 -0.9314
10053TIP3   OH251573   5.305   2.275  17.210 -0.0752  0.0295  0.2805
10053TIP3    H151574   5.382   2.331  17.200 -0.2734 -0.0442 -2.3024
10053TIP3    H251575   5.301   2.224  17.129 -3.2610  0.5674 -0.0245
10054TIP3   OH251576   1.897   0.007  14.941  0.0396  0.0253  0.4539
10054TIP3    H151577   1.869   0.098  14.929 -0.2708  0.2120  2.2737
10054TIP3    H251578   1.992   0.011  14.930  0.1516  0.7866  1.4997
10055TIP3   OH251579   0.074   6.164   3.942  0.4365  0.4978  0.3146
10055TIP3    H151580   0.076   6.249   3.986  1.2817 -0.1732  1.6387
10055TIP3    H251581   0.073   6.185   3.849 -2.2126  1.9827  0.5845
10056TIP3   OH251582   4.264   2.359  11.898  0.1470 -0.2886  0.6618
10056TIP3    H151583   4.279   2.453  11.902 -0.0860 -0.2686  1.2692
10056TIP3    H251584   4.318   2.323  11.969  0.5007 -0.6521  0.2143
10057TIP3   OH251585   3.818   0.293   4.280  0.3879 -0.5181 -0.3455
10057TIP3    H151586   3.830   0.384   4.305  3.1881 -0.4494 -1.5660
10057TIP3    H251587   3.817   0.245   4.363 -0.1101  0.5060  0.2542
10058TIP3   OH251588   2.925   5.151  13.884  0.6140 -0.2563 -0.1041
10058TIP3    H151589   2.880   5.187  13.807 -0.9874 -0.5388  0.6656
10058TIP3    H251590   2.906   5.057  13.881  1.8875 -0.5323 -0.2116
10059TIP3   OH251591   1.731   1.787   0.853 -0.4077  0.9038 -0.0489
10059TIP3    H151592   1.652   1.779   0.906  0.0209 -2.1144  0.3412
10059TIP3    H251593   1.700   1.812   0.766 -1.8498 -0.4499  0.0356
10060TIP3   OH251594   5.000   3.219   4.958 -0.3290  0.1204 -0.1823
10060TIP3    H151595   4.999   3.302   4.911  0.5199 -0.5573 -1.4381
10060TIP3    H251596   4.960   3.156   4.898 -2.3879 -0.1207  1.3468
10061TIP3   OH251597   6.427   2.974  15.988  0.5041 -0.2239 -0.8054
10061TIP3    H151598   6.366   2.978  15.914 -0.1417  0.4762 -0.2373
10061TIP3    H251599   6.424   2.882  16.016  0.0158 -0.2775 -1.0222
10062TIP3   OH251600   4.115   2.438   4.303  0.3058  0.3481  0.6115
10062TIP3    H151601   4.067   2.487   4.370 -0.3172 -1.1443  1.3306
10062TIP3    H251602   4.083   2.348   4.313  2.3623 -0.4705  0.2532
10063TIP3   OH251603   3.347   3.791  13.859  0.1324 -0.0155 -0.3498
10063TIP3    H151604   3.410   3.748  13.802 -1.0739 -0.6774 -1.2247
10063TIP3    H251605   3.263   3.785  13.812 -1.1079 -1.4038  1.8428
10064TIP3   OH251606   4.946   4.508  11.695 -0.0593  0.1728  0.1893
10064TIP3    H151607   4.870   4.546  11.652 -0.7293 -0.6778  0.5806
10064TIP3    H251608   5.015   4.510  11.629 -0.9789 -0.8409 -0.8374
10065TIP3   OH251609   2.357   6.072  15.725  1.0647  0.2081  0.3930
10065TIP3    H151610   2.312   6.157  15.714 -0.2831 -0.2427  2.0414
10065TIP3    H251611   2.367   6.039  15.636 -0.4555  1.0882 -0.1474
10066TIP3   OH251612   2.626   2.767   3.730  0.2485 -0.4842  0.2001
10066TIP3    H151613   2.618   2.727   3.817 -0.2448 -2.5068 -0.7133
10066TIP3    H251614   2.717   2.749   3.704 -0.2991 -2.1317 -0.6901
10067TIP3   OH251615   3.186   1.949   0.522  0.4953  0.2005  0.2990
10067TIP3    H151616   3.208   2.010   0.451 -0.2201 -0.1436 -0.2355
10067TIP3    H251617   3.270   1.929   0.563  0.8113  1.1259  0.1455
10068TIP3   OH251618   1.546   4.145   2.357 -0.1058  0.7680  0.1136
10068TIP3    H151619   1.551   4.055   2.387  0.6775  0.6037 -0.4946
10068TIP3    H251620   1.454   4.157   2.334  0.0742 -0.3890 -1.3300
10069TIP3   OH251621   5.191   2.428  15.095  0.3213 -0.3556 -0.2984
10069TIP3    H151622   5.162   2.339  15.075 -1.9799  0.3937 -0.5516
10069TIP3    H251623   5.147   2.451  15.176  2.5060 -0.1034  0.9113
10070TIP3   OH251624   3.386   3.026  16.277 -0.1896  0.1570  0.7998
10070TIP3    H151625   3.392   2.930  16.281  0.9737  0.2516  2.2720
10070TIP3    H251626   3.300   3.042  16.238  0.1174 -1.4653 -0.6959
10071TIP3   OH251627   2.631   1.423   3.605  0.5614 -0.0505 -0.1080
10071TIP3    H151628   2.559   1.442   3.665  0.9376 -0.3349  0.4462
10071TIP3    H251629   2.592   1.430   3.517 -0.1814 -0.3538  0.1859
10072TIP3   OH251630   1.062   0.582   4.680  0.5336 -0.3817  0.1027
10072TIP3    H151631   1.134   0.518   4.680  0.3460 -0.6237 -1.1238
10072TIP3    H251632   0.983   0.528   4.672  0.3808 -0.0135 -1.0338
10073TIP3   OH251633   3.251   0.912  12.995 -0.1637  0.0353 -0.4237
10073TIP3    H151634   3.172   0.916  13.047  0.4000  1.2960  0.3869
10073TIP3    H251635   3.221   0.913  12.904 -1.0695  2.9015 -0.1905
10074TIP3   OH251636   0.859   4.691   6.317  0.4239  0.5965 -0.1401
10074TIP3    H151637   0.851   4.749   6.392 -0.6417 -1.0887  1.1121
10074TIP3    H251638   0.786   4.631   6.325  0.8075 -0.1882 -2.0513
10075TIP3   OH251639   5.630   0.262  10.716 -0.2462 -0.2619 -0.0175
10075TIP3    H151640   5.535   0.258  10.727 -0.3915 -0.4026 -1.2379
10075TIP3    H251641   5.658   0.171  10.717 -0.3991 -0.3623 -1.7342
10076TIP3   OH251642   6.431   5.308   1.307 -0.2110 -0.4577  0.2992
10076TIP3    H151643   6.406   5.232   1.255 -3.9600  1.2028 -0.6504
10076TIP3    H251644   6.400   5.288   1.395  1.3590 -1.1126  0.7291
10077TIP3   OH251645   5.655   6.645   1.765 -0.0683 -0.0367  0.1125
10077TIP3    H151646   5.713   6.585   1.811 -0.9043 -0.5186  0.5527
10077TIP3    H251647   5.711   6.688   1.700  0.9185 -0.0172  0.9541
10078TIP3   OH251648   5.487   3.074  12.236 -0.1129 -0.2370  0.0121
10078TIP3    H151649   5.487   3.045  12.145 -0.8755  1.3104 -0.5306
10078TIP3    H251650   5.465   2.997  12.287 -1.3456 -0.7638 -1.2704
10079TIP3   OH251651   5.310   5.713   1.019 -0.4919 -0.5777 -0.3134
10079TIP3    H151652   5.232   5.742   1.065 -0.1547 -1.2074  0.6927
10079TIP3    H251653   5.324   5.779   0.951 -0.2728  1.1228  1.3026
10080TIP3   OH251654   4.598   2.895   0.366  0.1216 -0.0913 -0.2694
10080TIP3    H151655   4.585   2.982   0.403  0.3110 -0.6280  1.1579
10080TIP3    H251656   4.692   2.880   0.370 -0.0449 -0.9574  1.0237
10081TIP3   OH251657   4.186   5.609   3.458 -0.5524  0.2246 -0.1700
10081TIP3    H151658   4.253   5.543   3.441 -1.7531 -1.2282  0.4898
10081TIP3    H251659   4.112   5.582   3.404 -1.1030  0.9788  0.1877
10082TIP3   OH251660   0.560   5.056  12.017 -0.3870  0.1970 -0.4802
10082TIP3    H151661   0.484   5.045  11.961 -1.2455 -0.9731  0.8410
10082TIP3    H251662   0.558   5.148  12.042  0.9647  1.2029 -3.5596
10083TIP3   OH251663   4.790   0.920  14.412 -0.2655 -0.3811 -0.2001
10083TIP3    H151664   4.840   0.934  14.492  0.0392 -0.0320 -0.4474
10083TIP3    H251665   4.764   0.827  14.415  0.7643 -0.6812 -0.2765
10084TIP3   OH251666   2.187   1.464   3.202 -0.5711  0.4082 -0.4234
10084TIP3    H151667   2.196   1.450   3.296  0.3801  1.8570 -0.2589
10084TIP3    H251668   2.094   1.477   3.188 -0.8399 -0.7117  0.1523
10085TIP3   OH251669   5.997   2.538   1.402 -0.7965 -0.5138  0.5520
10085TIP3    H151670   6.041   2.615   1.437 -0.3054 -0.9257  0.8462
10085TIP3    H251671   6.031   2.529   1.313 -1.4808  0.0911  0.2186
10086TIP3   OH251672   3.409   3.962   1.080 -0.9874  0.6064  0.0281
10086TIP3    H151673   3.356   3.896   1.125 -0.6229 -0.4785 -1.0650
10086TIP3    H251674   3.387   4.044   1.123  0.0406 -0.4615  2.8030
10087TIP3   OH251675   4.172   2.143  14.007  0.4706  0.3524  0.1775
10087TIP3    H151676   4.111   2.188  14.066  0.1888 -1.4125  1.2979
10087TIP3    H251677   4.240   2.207  13.989 -1.1471  2.0431 -0.2673
10088TIP3   OH251678   5.163   2.578  11.485  0.2122 -0.6218 -0.2320
10088TIP3    H151679   5.193   2.647  11.426  0.5631 -0.8353 -0.3049
10088TIP3    H251680   5.149   2.623  11.569  0.0088 -0.3775 -0.3938
10089TIP3   OH251681   0.538   0.077  16.637  0.2561  0.6562  0.5446
10089TIP3    H151682   0.589   0.042  16.564 -1.0016 -0.3642  0.1297
10089TIP3    H251683   0.533   0.171  16.620 -1.3264  0.2532 -1.5557
10090TIP3   OH251684   0.797   2.969   6.507 -0.4781 -0.1529  0.5791
10090TIP3    H151685   0.773   3.052   6.549 -2.3738 -0.5200  0.2794
10090TIP3    H251686   0.841   2.995   6.426 -0.3025  0.5402  0.8824
10091TIP3   OH251687   0.444   3.943   1.228 -0.1168 -0.3315 -0.0167
10091TIP3    H151688   0.470   3.872   1.285 -2.0407 -0.2912  1.0056
10091TIP3    H251689   0.448   4.021   1.283  3.1843  0.6960 -1.4393
10092TIP3   OH251690   4.775   0.954  14.827  0.5210  0.2335 -0.3404
10092TIP3    H151691   4.796   0.864  14.850 -0.0289 -0.1479 -1.2892
10092TIP3    H251692   4.813   1.006  14.898 -0.6696 -0.8615  1.1701
10093TIP3   OH251693   4.521   5.778  12.765 -0.0622 -0.1088 -0.5296
10093TIP3    H151694   4.547   5.865  12.793 -1.4885  0.1801  0.0178
10093TIP3    H251695   4.478   5.740  12.842 -0.5576 -0.8079 -1.1331
10094TIP3   OH251696   4.640   3.240  15.219  0.1699 -0.0141 -0.2026
10094TIP3    H151697   4.659   3.323  15.175 -1.2304  0.6559  0.3861
10094TIP3    H251698   4.646   3.174  15.150  2.2829  0.4155 -0.4782
10095TIP3   OH251699   3.128   1.585  16.262 -0.0085  0.0460  0.8552
10095TIP3    H151700   3.108   1.496  16.233  0.7855  0.1348 -0.0332
10095TIP3    H251701   3.221   1.596  16.242 -0.1948  1.2248  0.5460
10096TIP3   OH251702   2.816   2.714  12.998  0.1081  0.4638  0.2718
10096TIP3    H151703   2.869   2.772  13.053 -0.1782 -0.3742  1.4738
10096TIP3    H251704   2.790   2.769  12.924  2.8022  0.8573 -0.4907
10097TIP3   OH251705   1.137   6.047   6.903 -0.5440 -0.0930 -0.1045
10097TIP3    H151706   1.082   5.990   6.957  1.0056 -0.5462  1.0609
10097TIP3    H251707   1.075   6.095   6.848 -2.1676 -0.0185  1.6843
10098TIP3   OH251708   4.974   2.158   3.900  0.0516 -0.8563 -0.3553
10098TIP3    H151709   5.061   2.198   3.910 -0.4531  0.0723  0.6705
10098TIP3    H251710   4.984   2.096   3.828  0.5615  2.1355 -3.0937
10099TIP3   OH251711   2.051   2.310  11.715  0.6705 -0.0863 -0.0483
10099TIP3    H151712   1.955   2.315  11.721  0.4716 -1.4504 -1.4789
10099TIP3    H251713   2.073   2.362  11.638  1.1634  0.6651  0.5809
10100TIP3   OH251714   6.548   1.226  12.564  0.2409 -0.2116 -0.1343
10100TIP3    H151715   6.471   1.232  12.620 -0.1287 -0.4557 -0.6142
10100TIP3    H251716   6.530   1.153  12.505  0.8695 -0.3194 -0.2035
10101TIP3   OH251717   3.309   5.605   0.678  0.2061  0.1889  0.2412
10101TIP3    H151718   3.307   5.672   0.609 -2.3264 -0.8146 -0.7927
10101TIP3    H251719   3.224   5.613   0.722  1.0847 -0.3362  2.1670
10102TIP3   OH251720   5.266   4.872   0.935  0.4521  0.2762  0.0211
10102TIP3    H151721   5.346   4.916   0.904 -0.1834  0.0025 -2.1308
10102TIP3    H251722   5.202   4.943   0.943  0.0325  0.0799 -1.3768
10103TIP3   OH251723   4.809   4.343   2.488  0.5055 -0.4055 -0.1013
10103TIP3    H151724   4.766   4.262   2.516  0.5471  0.0894  1.5010
10103TIP3    H251725   4.737   4.401   2.462  0.3080 -0.1973  0.8778
10104TIP3   OH251726   5.552   2.350  17.096  0.4697  0.0362 -0.2619
10104TIP3    H151727   5.533   2.296  17.019  0.2068 -1.4723  0.8277
10104TIP3    H251728   5.614   2.415  17.064 -0.5482  0.2237 -2.0459
10105TIP3   OH251729   2.989   0.209  12.467  0.5083 -0.0559 -0.3910
10105TIP3    H151730   2.962   0.159  12.544  2.3442 -0.7773 -0.1460
10105TIP3    H251731   2.914   0.206  12.408  0.2314 -2.3711 -0.0107
10106TIP3   OH251732   6.053   6.525  15.478 -0.1264 -0.0938 -0.2385
10106TIP3    H151733   6.102   6.451  15.443 -0.1865 -1.1527  1.7435
10106TIP3    H251734   5.962   6.499  15.471 -0.1578 -0.1383  0.3089
10107TIP3   OH251735   0.714   2.111   3.334 -0.1888 -0.3613  0.1001
10107TIP3    H151736   0.699   2.197   3.296  3.4204 -0.3778 -1.8633
10107TIP3    H251737   0.808   2.109   3.353 -0.2906 -3.5189  0.9291
10108TIP3   OH251738   6.129   6.061   1.714  1.1282 -0.3417 -0.3168
10108TIP3    H151739   6.058   6.068   1.650  0.1637  0.6489  0.8378
10108TIP3    H251740   6.090   6.016   1.789  1.8596 -0.2387  0.1363
10109TIP3   OH251741   2.512   5.113   4.305  0.8047  0.3978 -0.3402
10109TIP3    H151742   2.461   5.184   4.344  0.0473  1.2889 -2.7306
10109TIP3    H251743   2.600   5.124   4.342 -0.2516 -0.0849  2.5306
10110TIP3   OH251744   3.677   0.468   3.719  0.1261  0.6525  0.1838
10110TIP3    H151745   3.587   0.497   3.732 -0.1674 -0.0306 -0.3149
10110TIP3    H251746   3.714   0.466   3.807 -0.7792 -0.4662  0.5663
10111TIP3   OH251747   2.794   4.212   0.547 -0.4040  0.3099 -0.3212
10111TIP3    H151748   2.706   4.194   0.514 -0.1818  0.3219 -0.9357
10111TIP3    H251749   2.817   4.135   0.598 -0.8173  0.3595 -0.0531
10112TIP3   OH251750   5.985   1.048  11.970  0.2076  0.6993 -0.2011
10112TIP3    H151751   5.925   0.999  12.027  1.3740 -0.0713  0.3908
10112TIP3    H251752   5.992   1.134  12.011  1.0631  0.1446  0.8607
10113TIP3   OH251753   2.825   1.124  16.838  0.3996 -0.1757  0.2390
10113TIP3    H151754   2.799   1.088  16.753 -0.1116 -2.0218  1.1299
10113TIP3    H251755   2.903   1.176  16.819  2.2125 -3.0713 -0.9602
10114TIP3   OH251756   5.769   0.795  11.932  0.7777 -0.5672  0.0724
10114TIP3    H151757   5.815   0.790  11.848  1.3385  0.3949  0.3059
10114TIP3    H251758   5.835   0.770  11.996  1.0243  0.8784  0.4185
10115TIP3   OH251759   5.078   2.791   3.889 -0.4102 -0.1229  0.1745
10115TIP3    H151760   5.160   2.742   3.879  0.7259  1.5349  0.8302
10115TIP3    H251761   5.027   2.739   3.951 -0.6091 -2.0370 -1.4907
10116TIP3   OH251762   5.826   1.283   1.466 -0.0158 -0.3961  0.1405
10116TIP3    H151763   5.861   1.365   1.431 -1.2952  0.0692 -0.1095
10116TIP3    H251764   5.791   1.237   1.390  1.0448 -1.3906  0.2167
10117TIP3   OH251765   5.755   0.297  12.243  0.7402  0.4931  0.2127
10117TIP3    H151766   5.840   0.323  12.208 -0.4204  1.4397 -2.1265
10117TIP3    H251767   5.692   0.353  12.198 -1.3210 -1.7941 -0.0036
10118TIP3   OH251768   6.292   0.299   4.512  0.3844  0.0301  0.4269
10118TIP3    H151769   6.357   0.241   4.472 -0.0566  0.0784 -0.3769
10118TIP3    H251770   6.316   0.387   4.481  0.6355  0.1977  1.0814
10119TIP3   OH251771   4.994   4.702   6.881 -1.1508  0.7165 -0.2472
10119TIP3    H151772   5.044   4.769   6.928 -1.7875  0.4740  0.8061
10119TIP3    H251773   5.036   4.697   6.796  0.7048  0.4325  0.6379
10120TIP3   OH251774   5.924   3.498  13.026 -0.1706 -0.7115  0.2327
10120TIP3    H151775   5.906   3.409  12.995 -1.8154 -0.1286 -0.5878
10120TIP3    H251776   6.011   3.518  12.993  0.3493 -2.1129  0.6850
10121TIP3   OH251777   3.425   0.554   3.802  0.0445 -0.1831  0.0431
10121TIP3    H151778   3.349   0.496   3.790  0.3056 -0.3435 -0.9225
10121TIP3    H251779   3.388   0.642   3.802 -0.0881 -0.2181 -1.1579
10122TIP3   OH251780   3.005   1.003   0.583  0.0738  0.1900 -0.0496
10122TIP3    H151781   3.044   1.069   0.639  0.8792 -0.1855 -0.1535
10122TIP3    H251782   3.021   0.920   0.629 -0.7552  0.0480 -0.0082
10123TIP3   OH251783   5.223   2.660   2.180  0.6100  0.3576 -0.0632
10123TIP3    H151784   5.209   2.691   2.270  0.9709 -1.2378  0.5698
10123TIP3    H251785   5.299   2.709   2.149  0.7829  0.5663  0.6790
10124TIP3   OH251786   0.697   4.084   4.207 -0.4519 -0.9082 -0.1797
10124TIP3    H151787   0.738   3.998   4.215 -0.2631 -0.7413  0.9622
10124TIP3    H251788   0.766   4.141   4.173  0.7696 -0.3564  2.8821
10125TIP3   OH251789   2.174   2.445  14.172  0.0934 -0.1135  0.1079
10125TIP3    H151790   2.241   2.402  14.119  1.3704 -0.2727  1.7741
10125TIP3    H251791   2.211   2.531  14.194 -0.5513  0.0821  0.4795
10126TIP3   OH251792   4.768   6.230  16.052 -0.1069  0.4913  0.9840
10126TIP3    H151793   4.836   6.190  15.998 -0.1131  0.7743  0.7604
10126TIP3    H251794   4.816   6.289  16.111 -0.2170  1.3974  0.2026
10127TIP3   OH251795   6.494   6.666   1.357 -0.0575 -0.7269  0.3546
10127TIP3    H151796   6.424   6.695   1.416 -1.3149 -3.7249  0.5105
10127TIP3    H251797   6.575   6.679   1.407 -0.7589  0.2765  1.2496
10128TIP3   OH251798   2.934   3.369  15.459 -0.3722  0.6384 -0.0389
10128TIP3    H151799   2.957   3.410  15.542 -0.2669 -1.2434  0.9224
10128TIP3    H251800   2.844   3.398  15.442 -0.0749  1.7560  0.2502
10129TIP3   OH251801   6.421   2.231  11.652  0.3742  0.2766 -0.0308
10129TIP3    H151802   6.436   2.141  11.679 -1.8475 -0.3572 -0.6504
10129TIP3    H251803   6.332   2.251  11.682  0.4659  1.9277 -0.7207
10130TIP3   OH251804   0.027   5.026  15.159 -0.1861  0.0240 -0.1745
10130TIP3    H151805   0.116   5.034  15.125  0.0165 -0.8960  0.1186
10130TIP3    H251806   0.010   4.932  15.160 -0.1518 -0.0386  2.2581
10131TIP3   OH251807   0.165   5.567  13.734  0.3849  0.4359 -0.0325
10131TIP3    H151808   0.157   5.556  13.639 -0.9509 -0.5460  0.1618
10131TIP3    H251809   0.156   5.661  13.748 -1.2794  0.4143 -0.7538
10132TIP3   OH251810   3.403   5.823   0.485  0.0508  0.3154  0.0113
10132TIP3    H151811   3.378   5.831   0.393  1.6223 -0.1257 -0.4825
10132TIP3    H251812   3.495   5.797   0.483  0.9742  3.0200  1.7328
10133TIP3   OH251813   0.103   0.301  13.372 -0.0887 -1.0598  0.2515
10133TIP3    H151814   0.182   0.295  13.318  1.6972  0.8859  2.4622
10133TIP3    H251815   0.032   0.274  13.313  1.7183  0.6281 -2.9694
10134TIP3   OH251816   6.167   1.896   0.504  0.4149  0.0947 -0.2651
10134TIP3    H151817   6.203   1.850   0.580  1.4401 -0.5783 -1.1308
10134TIP3    H251818   6.132   1.826   0.448 -3.7348  0.7334  1.1622
10135TIP3   OH251819   2.921   6.653  14.623  0.1549 -0.3390  0.2028
10135TIP3    H151820   2.898   6.745  14.615  0.5188 -0.3306 -0.8955
10135TIP3    H251821   2.924   6.637  14.718 -1.2835  0.4132  0.3966
10136TIP3   OH251822   3.839   2.196  17.499  0.5891  0.1604 -0.4447
10136TIP3    H151823   3.821   2.124  17.558 -0.6621  0.4015 -0.5125
10136TIP3    H251824   3.898   2.253  17.549 -0.3410  0.2951  0.5422
10137TIP3   OH251825   2.491   1.425   1.370  0.0220 -0.1909 -0.2361
10137TIP3    H151826   2.444   1.499   1.333 -0.4380 -0.1221  0.4505
10137TIP3    H251827   2.511   1.452   1.460  0.1182 -0.7746 -0.0753
10138TIP3   OH251828   4.786   0.820  12.046  0.2777 -0.1765  0.0637
10138TIP3    H151829   4.764   0.783  11.961  0.3334 -0.6796  0.2685
10138TIP3    H251830   4.866   0.774  12.073 -0.4228 -0.8969  0.9509
10139TIP3   OH251831   0.061   1.019  12.294  0.0545 -0.3385  0.2241
10139TIP3    H151832  -0.020   1.053  12.334 -0.4260  2.5292 -2.7499
10139TIP3    H251833   0.030   0.963  12.223  0.6871 -0.2273 -0.1413
10140TIP3   OH251834   1.297   4.893  12.043  0.4858 -0.6073  0.3162
10140TIP3    H151835   1.276   4.803  12.018  2.1717 -1.0840  0.5354
10140TIP3    H251836   1.390   4.892  12.064 -0.2510  0.1357  4.6896
10141TIP3   OH251837   1.162   4.647  14.723  0.3100 -0.0893 -0.0513
10141TIP3    H151838   1.070   4.637  14.746  0.7407 -0.4554  1.6701
10141TIP3    H251839   1.209   4.633  14.805  1.9022  0.1891 -0.8691
10142TIP3   OH251840   3.900   4.687  13.729  0.3382 -0.2263  0.0275
10142TIP3    H151841   3.901   4.740  13.809  0.0576  1.3163 -0.9402
10142TIP3    H251842   3.989   4.654  13.722  0.3624 -0.4024  0.9881
10143TIP3   OH251843   1.847   1.099  11.596 -0.8573  0.4962 -0.4811
10143TIP3    H151844   1.878   1.027  11.542  0.8067  0.1718  0.8154
10143TIP3    H251845   1.773   1.063  11.645 -0.3091 -0.2139 -0.1598
10144TIP3   OH251846   1.367   1.853  13.422 -0.8179  0.0343 -0.0511
10144TIP3    H151847   1.308   1.896  13.483 -1.5223 -0.7394 -0.1625
10144TIP3    H251848   1.362   1.905  13.342 -0.4665  0.6208  0.3011
10145TIP3   OH251849   0.186   5.353   4.395 -0.1923  0.0917 -0.9320
10145TIP3    H151850   0.274   5.323   4.417 -0.3199  1.1954  1.4150
10145TIP3    H251851   0.151   5.285   4.338  1.2825 -1.6408  0.1108
10146TIP3   OH251852   1.978   5.320   5.493  0.6935  0.4255  0.2548
10146TIP3    H151853   2.012   5.389   5.436  0.1700  0.0848 -0.5005
10146TIP3    H251854   1.919   5.365   5.553 -0.3484  0.5508 -0.8100
10147TIP3   OH251855   5.396   0.872  15.626  0.1996 -0.0965 -0.2043
10147TIP3    H151856   5.337   0.827  15.686  1.1874 -1.6512 -0.3321
10147TIP3    H251857   5.378   0.834  15.540 -0.9084  1.8115 -0.8675
10148TIP3   OH251858   1.213   1.437  16.696 -0.1051 -0.0209  0.2873
10148TIP3    H151859   1.193   1.505  16.632 -1.3320  0.6775  1.3527
10148TIP3    H251860   1.153   1.365  16.675 -0.6539  0.2908  0.7554
10149TIP3   OH251861   3.791   0.857   0.156  0.2351 -0.2421  0.4921
10149TIP3    H151862   3.832   0.909   0.088 -0.5896  0.1718  0.3014
10149TIP3    H251863   3.730   0.799   0.109 -0.6969  0.3859  0.8983
10150TIP3   OH251864   4.352   4.176   1.478 -0.2194 -0.0712  0.0621
10150TIP3    H151865   4.366   4.271   1.478  1.4107 -0.2944 -0.6694
10150TIP3    H251866   4.387   4.147   1.562 -0.6607 -0.0527  0.2583
10151TIP3   OH251867   5.014   6.151  13.546  0.1802  0.4315  0.7730
10151TIP3    H151868   5.084   6.133  13.609  0.1401  0.4253  0.8160
10151TIP3    H251869   5.060   6.164  13.463  0.1156 -1.1489  0.4669
10152TIP3   OH251870   3.833   4.185   0.004  0.7987  0.2449  0.0721
10152TIP3    H151871   3.738   4.183  -0.008  0.7134 -0.7478  0.7853
10152TIP3    H251872   3.868   4.178  -0.085  0.1855 -1.1268 -0.0988
10153TIP3   OH251873   0.760   5.925  16.985  0.3393 -0.2062 -0.3782
10153TIP3    H151874   0.691   5.989  17.004 -0.8896 -1.5173 -0.2472
10153TIP3    H251875   0.739   5.850  17.041  1.5718 -0.8388 -0.7444
10154TIP3   OH251876   2.853   6.219   0.814  0.2805 -0.1369 -0.1090
10154TIP3    H151877   2.942   6.237   0.845 -0.0847  0.0886  0.8507
10154TIP3    H251878   2.797   6.249   0.885 -0.6654  1.5107 -1.4861
10155TIP3   OH251879   3.627   1.203  14.479 -0.2705 -0.5885  0.1208
10155TIP3    H151880   3.692   1.156  14.425 -0.4440 -2.8007  1.6998
10155TIP3    H251881   3.671   1.284  14.503  0.0117  0.2719 -2.8204
10156TIP3   OH251882   0.187   6.503  12.738  0.3680  0.1938 -0.2883
10156TIP3    H151883   0.253   6.437  12.720  0.7799  0.5122  0.0346
10156TIP3    H251884   0.162   6.488  12.829 -1.9254 -1.6043 -1.1267
10157TIP3   OH251885   1.037   0.360  11.627 -0.1777  0.1870  0.8116
10157TIP3    H151886   0.968   0.304  11.592  0.2824 -0.5184  1.0141
10157TIP3    H251887   1.081   0.306  11.693  1.9804 -0.1859 -0.8128
10158TIP3   OH251888   4.129   4.199   4.411 -0.3650  0.0168 -0.4291
10158TIP3    H151889   4.075   4.211   4.333 -0.5007 -1.1384 -0.5323
10158TIP3    H251890   4.201   4.262   4.401  0.7765 -1.5143 -2.5511
10159TIP3   OH251891   5.015   0.255   1.766  0.3954 -0.1830 -0.5887
10159TIP3    H151892   5.018   0.281   1.673  1.0447 -1.5012 -0.9589
10159TIP3    H251893   5.035   0.335   1.814 -1.7792  0.9875 -1.4855
10160TIP3   OH251894   0.576   2.919   4.952 -0.3385  0.1843 -0.6989
10160TIP3    H151895   0.552   2.827   4.945  0.5466 -0.0022 -1.5424
10160TIP3    H251896   0.632   2.924   5.029  0.1879 -0.1341 -1.0496
10161TIP3   OH251897   0.367   4.442   6.111 -0.1470  0.1317 -0.0936
10161TIP3    H151898   0.346   4.454   6.203 -1.2779 -1.5280 -0.1031
10161TIP3    H251899   0.286   4.462   6.065  0.0265 -0.3725 -0.6293
10162TIP3   OH251900   4.252   0.888   2.164 -0.3188 -0.3972  0.0519
10162TIP3    H151901   4.283   0.806   2.126 -1.3006 -0.2912 -1.0099
10162TIP3    H251902   4.191   0.860   2.232 -0.7904 -0.5429 -0.4308
10163TIP3   OH251903   2.421   2.644  16.445 -0.1084 -0.2975 -0.3797
10163TIP3    H151904   2.499   2.609  16.402  0.2457 -0.4139  0.3313
10163TIP3    H251905   2.436   2.627  16.539 -0.0713  1.4598 -0.0397
10164TIP3   OH251906   5.853   1.985  14.525  0.5298  0.3256 -0.5204
10164TIP3    H151907   5.944   2.006  14.506  0.7659 -1.6112 -1.7144
10164TIP3    H251908   5.821   2.062  14.572  2.3958  1.6001 -1.2116
10165TIP3   OH251909   5.022   4.856   3.963 -0.0872 -0.1664 -0.2998
10165TIP3    H151910   5.072   4.852   4.044  1.6804 -3.2394 -1.3968
10165TIP3    H251911   5.053   4.936   3.920  2.3344 -0.8704  0.0355
10166TIP3   OH251912   6.627   1.961  16.251 -0.0763  0.3722  0.1202
10166TIP3    H151913   6.539   1.990  16.274 -1.4759 -3.7113  0.5697
10166TIP3    H251914   6.621   1.938  16.158 -0.2795 -2.2275  0.7240
10167TIP3   OH251915   1.987   4.121   0.740  0.0113  0.0422 -0.2945
10167TIP3    H151916   1.905   4.108   0.693  0.6160 -2.1343 -0.8331
10167TIP3    H251917   1.963   4.116   0.832 -0.2255 -2.8289 -0.4293
10168TIP3   OH251918   6.681   2.385  17.411 -0.4014  0.0247 -0.0112
10168TIP3    H151919   6.711   2.378  17.321 -0.8897  0.4581 -0.2155
10168TIP3    H251920   6.663   2.295  17.438  0.8873 -0.2247  0.0570
10169TIP3   OH251921   1.881   0.607   3.246 -0.4355 -0.4363 -0.4188
10169TIP3    H151922   1.923   0.692   3.254  0.6392 -1.0468  0.7847
10169TIP3    H251923   1.800   0.614   3.297 -2.4584  1.0387 -3.4913
10170TIP3   OH251924   4.381   5.987   5.276 -0.1976  0.1723 -0.2520
10170TIP3    H151925   4.349   5.898   5.288 -0.8845  0.4082 -0.2615
10170TIP3    H251926   4.302   6.040   5.263  0.2537  0.6002 -1.4858
10171TIP3   OH251927   4.229   1.517   1.606 -0.2041 -0.0707  0.2143
10171TIP3    H151928   4.269   1.524   1.692 -0.7968  0.7315  0.4355
10171TIP3    H251929   4.135   1.517   1.622 -0.3186 -0.9404 -0.3704
10172TIP3   OH251930   3.274   4.685  13.446 -0.4505  0.2305 -0.3191
10172TIP3    H151931   3.311   4.715  13.529 -0.2004  0.0370 -0.3590
10172TIP3    H251932   3.192   4.641  13.471  1.1561 -2.7420  0.2215
10173TIP3   OH251933   6.183   3.254  16.267  0.8545 -0.5370  0.4615
10173TIP3    H151934   6.101   3.300  16.248  1.8208  0.3295 -1.9381
10173TIP3    H251935   6.155   3.176  16.315 -1.2924  0.0775  0.3375
10174TIP3   OH251936   1.306   0.434   4.128 -0.4598 -0.2036  0.3739
10174TIP3    H151937   1.319   0.519   4.088 -1.0923 -0.2874 -0.0200
10174TIP3    H251938   1.259   0.452   4.209 -0.9899 -0.2177  0.0700
10175TIP3   OH251939   3.338   5.954   6.096  0.2222  0.3160  0.1082
10175TIP3    H151940   3.394   5.880   6.120  0.4014  1.1174  2.3978
10175TIP3    H251941   3.372   5.984   6.012  0.7399 -1.5970 -0.4067
10176TIP3   OH251942   2.870   0.498  16.535 -0.4405  0.0899 -0.2819
10176TIP3    H151943   2.950   0.530  16.578 -1.7914  1.2591  1.4916
10176TIP3    H251944   2.902   0.450  16.458  1.9254  1.0430  0.0249
10177TIP3   OH251945   5.681   1.051   3.098  0.1783  0.1198 -0.4158
10177TIP3    H151946   5.775   1.059   3.113 -0.0167 -0.4930  1.4448
10177TIP3    H251947   5.666   0.957   3.087 -0.2966  0.1306  0.0889
10178TIP3   OH251948   2.272   2.155  16.497 -0.0637  0.1139 -0.1135
10178TIP3    H151949   2.309   2.237  16.530  0.3694 -0.1115 -0.0229
10178TIP3    H251950   2.202   2.182  16.438 -0.4441  0.5369  0.5152
10179TIP3   OH251951   6.340   4.718  15.982  0.3852 -0.1075 -0.1648
10179TIP3    H151952   6.285   4.663  16.037 -0.5150 -1.7297 -2.5299
10179TIP3    H251953   6.284   4.744  15.909  1.8326  0.9733 -0.9595
10180TIP3   OH251954   4.356   2.139  16.134  0.2403 -0.0616 -0.7639
10180TIP3    H151955   4.287   2.111  16.073 -0.8668 -0.2512  0.5216
10180TIP3    H251956   4.395   2.057  16.165 -0.4767 -0.0661  0.1758
10181TIP3   OH251957   5.577   5.992  12.869  0.5694 -0.0574 -0.2281
10181TIP3    H151958   5.498   5.971  12.819  0.8320  0.2756 -0.7991
10181TIP3    H251959   5.648   5.952  12.819  0.7885 -0.1150  0.1312
10182TIP3   OH251960   3.805   5.991   2.897  0.1712  0.0522 -0.4309
10182TIP3    H151961   3.860   6.010   2.973 -0.4649 -0.8331  0.2708
10182TIP3    H251962   3.754   5.914   2.922 -0.8921  0.4353 -1.3153
10183TIP3   OH251963   4.415   0.203   4.308 -0.6835  0.2393 -0.2903
10183TIP3    H151964   4.342   0.240   4.357  0.4289  1.7490  0.2885
10183TIP3    H251965   4.376   0.132   4.257 -2.3709  0.4124  0.6980
10184TIP3   OH251966   3.688   5.843  14.092 -0.3495  0.3032 -0.2196
10184TIP3    H151967   3.750   5.909  14.122 -0.7466  0.6102 -0.0686
10184TIP3    H251968   3.742   5.778  14.047 -0.0928  1.4545 -1.6662
10185TIP3   OH251969   4.570   0.299  15.456 -0.1058  0.0899  0.0313
10185TIP3    H151970   4.599   0.224  15.508 -0.3257  0.3998  0.6110
10185TIP3    H251971   4.480   0.279  15.433  0.4978 -0.8337 -1.6987
10186TIP3   OH251972   4.475   5.001   6.036 -0.1341  0.2709  0.0097
10186TIP3    H151973   4.462   4.976   6.127  0.8533  2.2232  0.7521
10186TIP3    H251974   4.400   4.964   5.990 -1.3770  0.3641  1.8381
10187TIP3   OH251975   2.481   4.223   3.273  0.5101 -0.4669  0.0150
10187TIP3    H151976   2.389   4.206   3.293  0.0830 -0.6034 -1.8517
10187TIP3    H251977   2.527   4.214   3.357 -1.2174 -0.0464  1.0392
10188TIP3   OH251978   6.275   2.110  11.916 -0.2899 -0.1472 -0.7261
10188TIP3    H151979   6.303   2.175  11.980 -0.1001  0.4782 -1.4401
10188TIP3    H251980   6.179   2.107  11.925 -0.1656 -1.2642  0.7195
10189TIP3   OH251981   6.570   2.551  11.921 -0.5578 -0.0376 -0.4899
10189TIP3    H151982   6.588   2.568  11.829  0.2851  1.2300 -0.1115
10189TIP3    H251983   6.656   2.557  11.964 -1.0326  0.0776  0.4769
10190TIP3   OH251984   5.150   4.461   6.824  0.4172  0.5920 -0.2678
10190TIP3    H151985   5.154   4.544   6.777  1.1746 -0.1811 -1.6159
10190TIP3    H251986   5.220   4.466   6.889  0.3181  1.0821 -0.1965
10191TIP3   OH251987   0.204   0.053   3.906  0.4297 -0.2479  0.4580
10191TIP3    H151988   0.192   0.143   3.938  1.5797  0.8491 -1.8957
10191TIP3    H251989   0.182   0.058   3.813  1.9928 -2.0658 -0.0658
10192TIP3   OH251990   3.272   4.719   2.898  0.1432  0.3245 -0.3264
10192TIP3    H151991   3.255   4.676   2.814 -1.6397  1.8674 -0.8125
10192TIP3    H251992   3.194   4.772   2.915  0.9296  0.9316  1.7775
10193TIP3   OH251993   4.367   3.126  14.724  0.3279  0.5005 -0.2471
10193TIP3    H151994   4.292   3.117  14.782  0.3931 -1.9333 -0.4560
10193TIP3    H251995   4.331   3.112  14.636  0.8455  0.3485 -0.4416
10194TIP3   OH251996   4.969   0.659  17.475 -1.0754 -0.0464 -0.5475
10194TIP3    H151997   4.921   0.693  17.400 -0.2643 -0.4415 -1.2727
10194TIP3    H251998   4.902   0.643  17.542 -1.8626 -0.0572 -1.3219
10195TIP3   OH251999   0.966   0.651   6.008  0.6864 -0.0119  0.3363
10195TIP3    H152000   0.978   0.558   5.987 -0.8608 -0.0628 -0.4328
10195TIP3    H252001   0.998   0.698   5.931 -0.1181  0.0108  0.0072
10196TIP3   OH252002   5.999   1.785  12.459 -0.3141 -0.2829  0.3191
10196TIP3    H152003   6.054   1.732  12.400  0.5267  1.1136 -0.1939
10196TIP3    H252004   5.910   1.767  12.429  0.0524 -0.1396 -0.9548
10197TIP3   OH252005   1.811   0.312  15.216 -0.3185 -0.0566  0.4503
10197TIP3    H152006   1.900   0.308  15.252 -0.7879 -0.4545  1.6114
10197TIP3    H252007   1.767   0.378  15.269 -0.9301 -0.4043  0.3874
10198TIP3   OH252008   5.551   5.514   1.350  0.1108 -0.4692  0.3175
10198TIP3    H152009   5.467   5.483   1.382 -0.2814 -1.7440 -1.7153
10198TIP3    H252010   5.532   5.547   1.262  1.3579  1.4434  0.6940
10199TIP3   OH252011   0.948   4.164  17.464 -0.2193 -0.3397 -0.5282
10199TIP3    H152012   0.953   4.158  17.369 -1.3153 -2.0138 -0.5346
10199TIP3    H252013   1.000   4.089  17.495 -0.3950 -0.1801  0.1701
10200TIP3   OH252014   4.994   4.850   3.196 -0.6237 -0.0373  0.0444
10200TIP3    H152015   4.974   4.880   3.285 -2.5323 -1.1126  0.0344
10200TIP3    H252016   4.911   4.859   3.149  0.7795  2.4825 -2.2863
10201TIP3   OH252017   3.371   6.031  17.467  0.5200 -0.0194  0.1984
10201TIP3    H152018   3.455   6.072  17.489  0.6519  0.2111 -0.7147
10201TIP3    H252019   3.396   5.946  17.431  0.2861 -0.5531  1.2391
10202TIP3   OH252020   5.718   2.270   4.225  0.3201 -0.5761  0.0158
10202TIP3    H152021   5.681   2.249   4.139  1.0611 -1.5588 -0.0840
10202TIP3    H252022   5.678   2.353   4.249  0.1253 -0.2671 -1.3064
10203TIP3   OH252023   3.479   0.507   1.108  0.0052  0.1901 -0.1746
10203TIP3    H152024   3.572   0.529   1.113  0.7656 -2.7634  0.9146
10203TIP3    H252025   3.475   0.430   1.051 -1.7457  0.1816 -0.1045
10204TIP3   OH252026   1.508   0.376  11.259  0.8923 -0.5279  0.2594
10204TIP3    H152027   1.482   0.374  11.167  1.2111 -1.9271  0.1853
10204TIP3    H252028   1.549   0.291  11.275 -1.4472 -1.4071  2.3299
10205TIP3   OH252029   3.373   3.684  12.450 -0.4930  0.3397 -0.0763
10205TIP3    H152030   3.410   3.612  12.501 -0.7618  1.6439  2.0580
10205TIP3    H252031   3.443   3.749  12.444 -0.9355  0.8308 -0.0537
10206TIP3   OH252032   0.011   6.002   1.043  0.4528 -0.3832 -0.0436
10206TIP3    H152033  -0.025   5.997   0.954  0.8584 -1.1319 -0.1771
10206TIP3    H252034  -0.020   5.922   1.085  1.5103 -0.7903 -0.0010
10207TIP3   OH252035   1.055   5.356  14.971  0.2087  0.4199 -0.4787
10207TIP3    H152036   1.138   5.370  15.016  0.8233  1.3006 -1.8418
10207TIP3    H252037   1.011   5.288  15.023  2.2574 -0.9022 -0.3740
10208TIP3   OH252038   4.615   2.034  14.893 -0.2352 -0.5824 -0.0987
10208TIP3    H152039   4.548   2.056  14.958 -1.0003 -2.7187 -0.0657
10208TIP3    H252040   4.576   2.058  14.809  0.0504  0.5914  0.0914
10209TIP3   OH252041   2.886   0.774  11.333 -0.1842 -0.3654 -0.0328
10209TIP3    H152042   2.795   0.772  11.362 -0.5004  1.2223 -0.8216
10209TIP3    H252043   2.896   0.859  11.290  1.5038 -0.7732 -0.5229
10210TIP3   OH252044   3.625   1.594  15.614 -0.0764  0.0027 -0.0543
10210TIP3    H152045   3.628   1.502  15.588 -1.3432 -0.7812  2.2555
10210TIP3    H252046   3.659   1.594  15.704  1.4510  2.0881 -0.5479
10211TIP3   OH252047   5.433   6.716  14.600  0.8653  0.0082  0.0304
10211TIP3    H152048   5.458   6.742  14.511  1.1458 -2.4154 -0.6819
10211TIP3    H252049   5.419   6.798  14.646  0.2037  1.3591 -2.3989
10212TIP3   OH252050   5.286   3.198   4.036 -0.1886 -0.4151 -0.0189
10212TIP3    H152051   5.311   3.106   4.026 -1.2130 -0.6424 -0.6134
10212TIP3    H252052   5.314   3.239   3.954 -0.3170 -0.3311 -0.0205
10213TIP3   OH252053   2.139   5.814  14.459 -0.6079 -0.2675 -0.3050
10213TIP3    H152054   2.205   5.745  14.460 -1.2602 -0.9591  2.6169
10213TIP3    H252055   2.073   5.786  14.522 -2.4554  1.6003 -1.2886
10214TIP3   OH252056   3.125   1.791  15.009 -0.0085  0.6474  0.4246
10214TIP3    H152057   3.220   1.788  15.016  0.0664 -0.6797 -0.7878
10214TIP3    H252058   3.106   1.878  14.974  0.8943  0.3482 -0.8711
10215TIP3   OH252059   4.354   2.862   1.267 -0.6025  0.3422 -0.3673
10215TIP3    H152060   4.446   2.842   1.286 -0.8230  0.4599  0.8898
10215TIP3    H252061   4.354   2.887   1.175  0.5233 -0.2794 -0.5570
10216TIP3   OH252062   6.485   0.281  11.873  0.1930  0.0005  0.4521
10216TIP3    H152063   6.520   0.192  11.865 -2.1420 -1.0834  1.2512
10216TIP3    H252064   6.488   0.317  11.785  1.0701 -0.9050  0.0967
10217TIP3   OH252065   2.862   2.354  16.740 -0.1420  0.1589  0.2947
10217TIP3    H152066   2.864   2.289  16.670  1.1031 -2.6757  2.7749
10217TIP3    H252067   2.939   2.409  16.722 -0.2414 -0.0562 -0.9080
10218TIP3   OH252068   5.385   2.021  14.207 -0.0880 -0.4449 -0.2562
10218TIP3    H152069   5.478   2.004  14.188  0.0999  0.8508 -0.6034
10218TIP3    H252070   5.339   1.943  14.174  0.6679 -0.1780 -2.0971
10219TIP3   OH252071   3.747   2.071  11.739  1.0116  0.4556  0.1439
10219TIP3    H152072   3.670   2.126  11.758  0.3992 -0.2380 -0.2650
10219TIP3    H252073   3.779   2.103  11.655  1.5152  1.1046  0.5673
10220TIP3   OH252074   3.280   6.730  15.180  0.1086  0.2945 -0.2047
10220TIP3    H152075   3.299   6.652  15.232  1.6735  1.2399  0.7519
10220TIP3    H252076   3.333   6.799  15.221 -0.8789  1.7583 -1.2875
10221TIP3   OH252077   2.223   2.463  17.507 -0.2232 -0.2939 -0.0764
10221TIP3    H152078   2.137   2.502  17.525  0.8440  1.6154  1.1742
10221TIP3    H252079   2.282   2.538  17.498  1.6738 -1.5762  0.9778
10222TIP3   OH252080   0.404   6.285   3.381 -0.1973 -0.1577  0.1438
10222TIP3    H152081   0.359   6.230   3.316  0.4427 -0.0682 -0.3829
10222TIP3    H252082   0.380   6.247   3.465 -1.8138  0.3006 -0.0812
10223TIP3   OH252083   1.337   4.275  15.325  0.1848 -0.5582  0.1032
10223TIP3    H152084   1.431   4.272  15.341  0.1499 -0.7413  0.2842
10223TIP3    H252085   1.315   4.368  15.319  0.5450 -0.5257 -0.9385
10224TIP3   OH252086   6.463   2.017   5.312 -0.9092 -0.3343 -0.5721
10224TIP3    H152087   6.512   2.001   5.393 -1.9261 -0.5695  0.0100
10224TIP3    H252088   6.528   2.002   5.243 -0.0201 -0.1310  0.1863
10225TIP3   OH252089   1.369   0.076  14.108 -0.6456 -0.4969  0.3962
10225TIP3    H152090   1.304   0.032  14.053 -1.3743 -0.6942  1.3861
10225TIP3    H252091   1.434   0.008  14.127  0.1617 -0.1645 -1.0210
10226TIP3   OH252092   1.072   3.426   1.648  0.6559 -0.6785  0.0452
10226TIP3    H152093   1.081   3.521   1.650 -1.3139 -0.4250 -0.9140
10226TIP3    H252094   1.003   3.406   1.711 -0.9549 -1.1309 -1.7640
10227TIP3   OH252095   3.597   2.730  11.422 -0.0145  0.2102 -0.1907
10227TIP3    H152096   3.524   2.759  11.367  0.5468  0.3873 -0.8641
10227TIP3    H252097   3.637   2.811  11.453  0.3719  0.1352 -0.4803
10228TIP3   OH252098   3.856   2.142   1.200  0.2676  0.3192 -0.2726
10228TIP3    H152099   3.848   2.048   1.213 -1.3898  0.5131  0.3886
10228TIP3    H252100   3.795   2.162   1.129  0.9888  0.8351 -0.7650
10229TIP3   OH252101   0.698   3.563   5.339  0.9090  0.2562 -0.3813
10229TIP3    H152102   0.692   3.594   5.249  1.3443 -1.2849 -0.9609
10229TIP3    H252103   0.612   3.583   5.377 -0.7811 -2.6216 -2.3288
10230TIP3   OH252104   2.093   4.480  11.756  0.0656 -0.1935 -0.4153
10230TIP3    H152105   2.169   4.425  11.741  0.0470  0.1653 -2.0013
10230TIP3    H252106   2.123   4.546  11.818  0.7927 -0.5573 -0.3683
10231TIP3   OH252107   2.572   4.926  13.570 -0.0795  0.2327 -0.3789
10231TIP3    H152108   2.546   4.871  13.496 -1.3357  0.1850  0.0721
10231TIP3    H252109   2.505   4.909  13.637  0.6265  0.8225  0.4955
10232TIP3   OH252110   2.255   2.739  15.343 -0.0672  0.3049  0.2319
10232TIP3    H152111   2.233   2.708  15.431  3.2429 -0.2321  1.0163
10232TIP3    H252112   2.284   2.829  15.356  1.4857 -0.1186 -0.0511
10233TIP3   OH252113   6.299   4.899  11.891  0.1505  0.2736 -0.6292
10233TIP3    H152114   6.355   4.843  11.837 -0.3007 -1.4284  0.5624
10233TIP3    H252115   6.211   4.888  11.854 -0.7373 -3.2254  1.9302
10234TIP3   OH252116   5.155   3.851   2.599  0.0936  0.1217 -0.4719
10234TIP3    H152117   5.223   3.869   2.664  0.1966 -1.8094  0.0054
10234TIP3    H252118   5.202   3.818   2.523 -0.2961 -1.6662  0.0223
10235TIP3   OH252119   5.930   6.325  15.827 -0.1943  0.5327  0.1339
10235TIP3    H152120   5.912   6.414  15.857 -1.4664 -0.1870  1.6545
10235TIP3    H252121   6.013   6.332  15.781 -0.0151  2.4157  0.6458
10236TIP3   OH252122   6.007   1.389  16.881 -0.3098  0.1674  0.0132
10236TIP3    H152123   5.959   1.455  16.831 -1.3660 -1.5335 -1.3506
10236TIP3    H252124   6.021   1.318  16.818  0.4018 -1.0882  1.5326
10237TIP3   OH252125   4.834   0.489  13.588 -0.5432  0.1715 -1.0966
10237TIP3    H152126   4.875   0.543  13.521 -0.3513 -0.2047 -1.2822
10237TIP3    H252127   4.768   0.547  13.627  0.2671  0.8278 -0.6789
10238TIP3   OH252128   0.065   3.694  14.745  0.4715  0.5208  0.1981
10238TIP3    H152129   0.002   3.759  14.778  0.9123  1.3873 -0.6163
10238TIP3    H252130   0.021   3.653  14.671  1.0228  1.4732 -0.6820
10239TIP3   OH252131   5.485   3.717   4.348  0.1350  0.0794  0.0934
10239TIP3    H152132   5.535   3.726   4.430  0.2618 -1.3500  0.2106
10239TIP3    H252133   5.512   3.791   4.295 -0.2653  1.2784  1.5004
10240TIP3   OH252134   0.059   1.417   1.260  0.5859 -0.4077 -0.3029
10240TIP3    H152135   0.105   1.335   1.275  0.4153 -0.9933 -2.6650
10240TIP3    H252136   0.103   1.456   1.184 -0.9428  0.4467 -0.7922
10241TIP3   OH252137   1.664   0.896  15.822 -0.1671  0.2864 -0.0891
10241TIP3    H152138   1.685   0.961  15.889  1.0116  0.4215 -0.5819
10241TIP3    H252139   1.719   0.821  15.844  1.0731  0.7378 -1.5417
10242TIP3   OH252140   0.917   4.068  15.252 -0.2248 -0.8612 -0.1793
10242TIP3    H152141   1.008   4.092  15.237 -0.1366 -0.5962  0.7320
10242TIP3    H252142   0.872   4.088  15.169  0.3459 -0.0374 -0.2937
10243TIP3   OH252143   6.202   5.373   0.963 -0.6832 -0.1678  0.5868
10243TIP3    H152144   6.198   5.341   1.053  1.0486 -1.4830  0.2502
10243TIP3    H252145   6.181   5.296   0.910 -0.1549  0.1896 -0.1647
10244TIP3   OH252146   2.004   6.284  10.949 -0.0550  0.1632 -0.6080
10244TIP3    H152147   2.048   6.231  11.016 -0.3645 -0.3015 -0.7745
10244TIP3    H252148   2.068   6.290  10.878  0.4217  0.9641 -0.1388
10245TIP3   OH252149   0.551   3.203   4.873 -0.0285  0.5982 -0.8769
10245TIP3    H152150   0.562   3.110   4.855 -0.3746  0.8016 -2.3358
10245TIP3    H252151   0.505   3.237   4.796  0.1491  1.9846 -0.4111
10246TIP3   OH252152   4.267   3.757   1.619  0.2124 -0.4873  0.0066
10246TIP3    H152153   4.301   3.773   1.707  0.1875  1.9749 -0.3530
10246TIP3    H252154   4.326   3.692   1.582  2.4271  1.0141  0.6579
10247TIP3   OH252155   0.752   3.360   2.647 -0.3474 -0.5729  0.3385
10247TIP3    H152156   0.738   3.266   2.640 -0.0219 -0.6012  0.0047
10247TIP3    H252157   0.827   3.377   2.589 -0.9128  0.0111 -0.2405
10248TIP3   OH252158   2.629   5.224  16.577  0.8885  0.0770 -0.1039
10248TIP3    H152159   2.709   5.253  16.534  0.1118  0.6318 -1.2322
10248TIP3    H252160   2.655   5.207  16.667  1.9963  1.5087 -0.1219
10249TIP3   OH252161   3.861   5.822  11.859 -0.0778  0.0324  0.0484
10249TIP3    H152162   3.953   5.795  11.848  0.4548  1.3978  0.8387
10249TIP3    H252163   3.859   5.911  11.824 -0.5210  0.9060  2.1208
10250TIP3   OH252164   6.014   3.251  11.231  0.3264  0.5289  0.5341
10250TIP3    H152165   5.999   3.223  11.140 -1.4118  1.8095  0.3778
10250TIP3    H252166   6.108   3.269  11.234  0.5092 -0.0035 -0.8804
10251TIP3   OH252167   0.437   0.481  17.268  0.0154 -0.0986  0.2843
10251TIP3    H152168   0.402   0.487  17.357  0.5881  0.3500  0.4877
10251TIP3    H252169   0.492   0.402  17.270  0.3423  0.1314  0.4440
10252TIP3   OH252170   3.566   3.718  15.905 -0.3264 -0.2257 -0.4615
10252TIP3    H152171   3.620   3.780  15.953 -1.1125  0.7325 -0.7946
10252TIP3    H252172   3.498   3.692  15.967 -1.2557  0.9009 -0.9811
10253TIP3   OH252173   5.247   5.087  16.796  0.2128  0.0202 -0.5173
10253TIP3    H152174   5.222   5.178  16.779 -0.4769 -0.3040 -1.2903
10253TIP3    H252175   5.257   5.083  16.891 -0.5604  0.6984 -0.3944
10254TIP3   OH252176   0.905   4.410   4.558 -0.3414  0.0495 -0.1749
10254TIP3    H152177   0.991   4.452   4.552 -1.0152  1.3339 -1.3480
10254TIP3    H252178   0.909   4.337   4.497  0.0654 -0.1738  0.1178
10255TIP3   OH252179   2.333   0.394  17.285  0.0723  0.7101 -0.1164
10255TIP3    H152180   2.325   0.344  17.204 -1.0040 -0.7273  0.8381
10255TIP3    H252181   2.301   0.481  17.262 -0.6084  0.2134 -1.1306
10256TIP3   OH252182   5.492   5.043   5.153 -0.1184  0.6434  0.0320
10256TIP3    H152183   5.446   5.057   5.236  0.9146 -0.7735  0.8854
10256TIP3    H252184   5.534   4.958   5.163 -1.4835 -0.4373 -2.6889
10257TIP3   OH252185   2.218   0.799   6.040 -0.2526 -0.1087  0.0879
10257TIP3    H152186   2.293   0.749   6.008 -0.4348 -0.0777 -0.3853
10257TIP3    H252187   2.167   0.734   6.089 -1.3183 -0.8096 -1.8445
10258TIP3   OH252188   1.518   2.883  13.706 -0.1190 -0.0829  0.2299
10258TIP3    H152189   1.498   2.824  13.633  1.8522 -0.2161 -0.2420
10258TIP3    H252190   1.594   2.933  13.677  1.2149 -0.6677  2.4731
10259TIP3   OH252191   4.795   4.945  16.997  0.3775 -0.2613 -0.2356
10259TIP3    H152192   4.762   4.986  16.917  0.4370  0.3999  0.0648
10259TIP3    H252193   4.794   4.851  16.979 -1.1990 -0.2349 -0.4010
10260TIP3   OH252194   4.865   0.283  11.551  0.2800 -0.2685 -0.2538
10260TIP3    H152195   4.912   0.297  11.633  0.4109  0.1752 -0.4038
10260TIP3    H252196   4.892   0.356  11.495 -0.9973  0.3016 -0.1678
10261TIP3   OH252197   4.340   2.378  14.827 -0.3989  0.1363 -1.1899
10261TIP3    H152198   4.272   2.314  14.849  0.9733 -1.5739 -1.7225
10261TIP3    H252199   4.350   2.370  14.732 -1.2890  2.3321 -1.5333
10262TIP3   OH252200   5.898   5.176   0.557 -0.6447 -0.7678 -0.2394
10262TIP3    H152201   5.991   5.194   0.544 -0.4221 -1.6550  0.0672
10262TIP3    H252202   5.861   5.178   0.469 -0.7529  1.6213 -0.2212
10263TIP3   OH252203   6.710   2.061  17.417  0.5140 -0.5728  0.1014
10263TIP3    H152204   6.716   1.977  17.463  1.3854 -1.0902 -0.9069
10263TIP3    H252205   6.763   2.049  17.338 -1.2844  0.1251 -1.2797
10264TIP3   OH252206   3.562   6.656  12.656 -1.0398  0.3466 -0.2922
10264TIP3    H152207   3.617   6.670  12.579 -1.8244 -0.0267 -0.9288
10264TIP3    H252208   3.583   6.567  12.685 -1.5278  0.0861 -0.7245
10265TIP3   OH252209   3.753   5.052   1.934  0.9365  0.0031  0.4928
10265TIP3    H152210   3.785   5.110   2.003 -0.4607 -1.3951  2.4419
10265TIP3    H252211   3.789   4.966   1.957  0.0121 -0.5921 -0.1946
10266TIP3   OH252212   6.442   2.971  16.688  0.8415  0.4045  0.1505
10266TIP3    H152213   6.431   3.055  16.645  1.4842 -0.1498 -1.1511
10266TIP3    H252214   6.353   2.943  16.711  0.4039  0.4168 -1.4350
10267TIP3   OH252215   0.509   5.789   4.217  0.3544 -0.7012  0.4558
10267TIP3    H152216   0.568   5.797   4.292 -0.5878 -0.0055  1.1444
10267TIP3    H252217   0.442   5.856   4.232 -1.3564 -2.3195  0.3607
10268TIP3   OH252218   4.976   6.448  16.016  0.0484  0.3734  0.1901
10268TIP3    H152219   4.997   6.400  16.096  1.2649  0.5511  0.0067
10268TIP3    H252220   4.961   6.538  16.045 -0.6131  0.2116  0.3462
10269TIP3   OH252221   1.081   3.761  12.810  0.7905 -0.0067 -0.2998
10269TIP3    H152222   1.166   3.739  12.773  0.7096 -2.4551  0.7786
10269TIP3    H252223   1.042   3.677  12.834 -0.7012  1.1849  1.9041
10270TIP3   OH252224   3.059   5.497   5.759 -0.1982 -0.0224 -0.3456
10270TIP3    H152225   3.053   5.403   5.740 -0.8876  0.2922 -1.8433
10270TIP3    H252226   3.003   5.509   5.836  2.0712 -1.2311  1.6448
10271TIP3   OH252227   3.395   6.096   1.776 -0.6926 -0.7249 -0.1077
10271TIP3    H152228   3.309   6.137   1.763 -0.6603 -1.0899 -1.5893
10271TIP3    H252229   3.445   6.120   1.698  0.7598 -0.0709  0.9758
10272TIP3   OH252230   5.900   0.094  11.138  0.1692  0.1958  0.0075
10272TIP3    H152231   5.963   0.104  11.067  0.1143  0.5050  0.0019
10272TIP3    H252232   5.818   0.129  11.103 -0.1660 -0.7572 -0.2003
10273TIP3   OH252233   3.841   5.070   5.579  0.1093 -0.0248  0.3201
10273TIP3    H152234   3.903   5.007   5.541 -2.1564 -0.9136 -2.2454
10273TIP3    H252235   3.894   5.124   5.637  2.6920 -2.5563  0.5298
10274TIP3   OH252236   0.705   0.158  15.599  0.0405 -0.2793 -0.2089
10274TIP3    H152237   0.675   0.192  15.684  0.3975 -0.8118  0.1410
10274TIP3    H252238   0.794   0.192  15.590 -0.2057  0.2424 -0.6346
10275TIP3   OH252239   6.519   5.371  14.694  0.5315  0.1350 -0.4002
10275TIP3    H152240   6.517   5.466  14.687 -0.1774  0.1887  0.3611
10275TIP3    H252241   6.604   5.351  14.732  0.7082  0.4588 -0.6259
10276TIP3   OH252242   0.055   0.070  14.733  0.2580  0.2589  0.1880
10276TIP3    H152243   0.055   0.134  14.804  0.1767 -0.3517  0.7453
10276TIP3    H252244   0.045  -0.014  14.776 -0.0638 -0.1025 -0.5746
10277TIP3   OH252245   2.975   0.286   3.901  0.3109 -0.0896 -0.2438
10277TIP3    H152246   3.030   0.209   3.889  1.4881  0.2771  2.1370
10277TIP3    H252247   3.000   0.344   3.829  1.6418 -0.7316 -0.3378
10278TIP3   OH252248   2.439   5.256  14.454 -0.0713 -0.6617  0.6940
10278TIP3    H152249   2.399   5.284  14.371 -1.6605 -1.5251  1.1114
10278TIP3    H252250   2.533   5.257  14.437 -0.3241 -0.0246 -0.8604
10279TIP3   OH252251   3.958   4.915   0.324 -0.5100 -0.0610  0.5116
10279TIP3    H152252   4.052   4.926   0.337 -0.5538 -0.9848  1.7535
10279TIP3    H252253   3.919   4.992   0.367 -0.3063  1.0373 -1.1533
10280TIP3   OH252254   2.032   4.855   2.539 -0.0212 -0.3692 -0.6286
10280TIP3    H152255   1.968   4.788   2.515  0.0683  0.0822 -2.2255
10280TIP3    H252256   2.042   4.909   2.460 -0.8475  2.1558  0.8779
10281TIP3   OH252257   0.958   2.412   5.766  0.1137 -0.4549  0.0512
10281TIP3    H152258   0.969   2.325   5.729  0.4542  0.3046 -1.7659
10281TIP3    H252259   0.866   2.417   5.790 -0.1303 -0.9927 -0.7314
10282TIP3   OH252260   2.796   4.260  15.564  0.3126  0.4436 -0.3018
10282TIP3    H152261   2.820   4.172  15.593  1.7866  1.3045  1.3074
10282TIP3    H252262   2.824   4.263  15.472  0.9054 -0.5536 -0.1739
10283TIP3   OH252263   4.463   1.108   1.515  0.1704  0.2831  0.3165
10283TIP3    H152264   4.553   1.133   1.540 -0.5378  1.9710  1.3834
10283TIP3    H252265   4.421   1.192   1.495 -1.0164 -0.5447 -0.7556
10284TIP3   OH252266   0.355   2.155  12.455  0.2713  0.2546 -0.5056
10284TIP3    H152267   0.322   2.069  12.482  0.8523  0.3768  0.6368
10284TIP3    H252268   0.448   2.141  12.440  0.8736  1.1450  1.9562
10285TIP3   OH252269   4.706   2.412   5.108 -0.0342  0.2783 -0.3872
10285TIP3    H152270   4.798   2.393   5.088  0.9104  0.7130  2.9420
10285TIP3    H252271   4.663   2.327   5.101  0.2945  0.2455 -3.0672
10286TIP3   OH252272   4.425   2.350   6.356  0.4223 -0.4857 -0.1122
10286TIP3    H152273   4.425   2.256   6.342 -0.2555 -0.9491  2.5174
10286TIP3    H252274   4.510   2.380   6.323  0.6318 -1.9702 -0.9923
10287TIP3   OH252275   2.779   1.988   0.216 -0.1420 -0.5228  0.2292
10287TIP3    H152276   2.757   2.046   0.143 -1.7781 -2.0998 -0.5955
10287TIP3    H252277   2.695   1.954   0.246  0.6401 -1.1134  1.8396
10288TIP3   OH252278   5.184   2.100  12.131 -0.4056  0.1369  0.7723
10288TIP3    H152279   5.264   2.075  12.084  0.2415  2.2809  0.6204
10288TIP3    H252280   5.211   2.108  12.222 -0.1013  1.9893  0.5614
10289TIP3   OH252281   0.277   0.744   3.880 -0.3532  0.0380  0.2539
10289TIP3    H152282   0.329   0.787   3.813 -0.0782 -1.1296 -0.3101
10289TIP3    H252283   0.275   0.652   3.854 -1.1942 -0.2480  1.2377
10290TIP3   OH252284   1.078   1.052  14.630 -0.0202  0.3817  0.7595
10290TIP3    H152285   1.172   1.059  14.617  0.2497  0.9606  2.7022
10290TIP3    H252286   1.042   1.128  14.585  0.4396  0.2554  0.1632
10291TIP3   OH252287   0.439   4.762   1.730  0.4434  0.1495 -0.4645
10291TIP3    H152288   0.377   4.769   1.803  0.7974 -0.7236 -0.0621
10291TIP3    H252289   0.495   4.688   1.754  1.3696  0.6584 -1.0330
10292TIP3   OH252290   0.386   4.238  17.254  0.2274 -0.1893 -0.3568
10292TIP3    H152291   0.356   4.195  17.334  0.8982 -0.9284 -0.4944
10292TIP3    H252292   0.471   4.198  17.235  0.0626 -0.0537 -1.4653
10293TIP3   OH252293   2.370   6.351  12.284  0.4072  0.0241  0.1815
10293TIP3    H152294   2.316   6.307  12.349  0.3608 -0.5491 -0.2292
10293TIP3    H252295   2.442   6.290  12.268 -0.8121 -0.9658 -2.0185
10294TIP3   OH252296   2.631   3.971  14.122  0.2916 -0.7895  0.0709
10294TIP3    H152297   2.551   3.956  14.171  0.4658  2.9103  1.8041
10294TIP3    H252298   2.701   3.941  14.181  0.3358  0.2865  0.5893
10295TIP3   OH252299   6.585   1.882   3.341 -0.3462 -0.1049 -0.0947
10295TIP3    H152300   6.507   1.831   3.362 -1.2928  1.4316  0.2810
10295TIP3    H252301   6.634   1.885   3.423 -0.6297  0.1633  0.0658
10296TIP3   OH252302   5.674   5.871  15.001  0.4307  0.2200  0.0325
10296TIP3    H152303   5.671   5.780  14.971  1.1479  0.3371 -0.4111
10296TIP3    H252304   5.717   5.866  15.087 -0.6349  0.0152  0.5868
10297TIP3   OH252305   6.595   2.205  12.353  0.0792  0.3741 -0.2922
10297TIP3    H152306   6.656   2.265  12.396 -1.2214  1.8041 -0.3760
10297TIP3    H252307   6.511   2.250  12.354 -0.6614 -0.8782 -1.5786
10298TIP3   OH252308   2.147   0.696   2.101  0.2322 -0.6738  0.0348
10298TIP3    H152309   2.093   0.697   2.179 -0.5191 -0.4458 -0.4800
10298TIP3    H252310   2.235   0.676   2.133  0.0155 -0.1465  0.9864
10299TIP3   OH252311   3.052   4.204   5.279 -0.0591 -0.1373  0.2897
10299TIP3    H152312   3.115   4.179   5.347 -0.7765  0.4083  1.1723
10299TIP3    H252313   3.081   4.157   5.201  0.2911 -1.4307  1.1744
10300TIP3   OH252314   3.399   3.640   4.601 -0.0860  0.0351 -0.4782
10300TIP3    H152315   3.360   3.706   4.544 -1.0865 -0.9261 -0.9418
10300TIP3    H252316   3.451   3.690   4.663 -0.4605  1.2278 -1.0929
10301TIP3   OH252317   1.734   0.754  12.606 -0.2210  0.5132  0.2870
10301TIP3    H152318   1.649   0.714  12.586 -0.6117  1.4786 -0.0362
10301TIP3    H252319   1.737   0.832  12.551  1.3763 -0.1078 -0.5457
10302TIP3   OH252320   2.393   2.937   2.231 -0.7368 -0.2401  0.5489
10302TIP3    H152321   2.338   3.013   2.212 -0.7502 -0.4673 -0.3620
10302TIP3    H252322   2.417   2.903   2.145  0.4634 -0.4092  0.9302
10303TIP3   OH252323   6.105   2.045  11.510  0.0757 -0.4698  0.1718
10303TIP3    H152324   6.069   2.119  11.461 -0.7610 -1.1494 -0.2580
10303TIP3    H252325   6.051   1.970  11.484 -0.3752 -0.8696  2.0583
10304TIP3   OH252326   5.306   2.037   4.332 -0.2192 -0.1841  0.5912
10304TIP3    H152327   5.269   1.962   4.286  1.8278 -0.9122  0.0161
10304TIP3    H252328   5.400   2.021   4.331  0.1174  1.4105  2.2236
10305TIP3   OH252329   3.435   5.383  14.390 -0.1612  0.0851  1.0965
10305TIP3    H152330   3.406   5.431  14.468 -1.4873  1.0329  0.0737
10305TIP3    H252331   3.471   5.450  14.333 -1.3815 -0.1944 -0.0645
10306TIP3   OH252332   6.504   3.620   2.525 -0.0051 -0.0975  0.1417
10306TIP3    H152333   6.537   3.537   2.557  2.0580  0.0154 -1.4697
10306TIP3    H252334   6.460   3.599   2.443  0.4054  0.3568 -0.2059
10307TIP3   OH252335   0.587   1.594  15.757  0.0463  0.2164  0.4758
10307TIP3    H152336   0.554   1.522  15.812  2.8248 -0.8255  0.9145
10307TIP3    H252337   0.604   1.552  15.672  2.5109  0.0792  0.9879
10308TIP3   OH252338   3.731   4.503  15.235  0.1707 -0.3607 -0.0634
10308TIP3    H152339   3.651   4.483  15.188  0.2422 -1.4156  0.2193
10308TIP3    H252340   3.754   4.421  15.279  1.1475  0.0502  0.2374
10309TIP3   OH252341   4.759   2.758  12.517  0.4347  0.2330  0.3431
10309TIP3    H152342   4.715   2.699  12.578 -2.2333  0.8966 -0.7711
10309TIP3    H252343   4.795   2.827  12.571  0.9908 -0.8603  1.4131
10310TIP3   OH252344   3.600   4.051   2.914  0.7340  0.1381  0.1139
10310TIP3    H152345   3.691   4.023   2.903  0.7502 -0.1996  1.0224
10310TIP3    H252346   3.549   3.980   2.875  0.8613  1.4653 -2.7522
10311TIP3   OH252347   6.660   5.909   0.780 -0.2249 -0.5812 -0.3301
10311TIP3    H152348   6.716   5.871   0.713 -1.4909 -2.5481 -0.3407
10311TIP3    H252349   6.598   5.964   0.731  1.8652  2.0110 -0.2771
10312TIP3   OH252350   1.967   1.558   1.941  0.2375 -0.2015  0.3949
10312TIP3    H152351   1.973   1.633   1.881 -0.5226 -1.5947 -1.5023
10312TIP3    H252352   2.042   1.569   2.000  0.6120  1.5892 -0.3360
10313TIP3   OH252353   1.775   5.541   2.045  0.3542  0.0619 -0.0536
10313TIP3    H152354   1.855   5.498   2.076  0.8713  0.9535 -0.1151
10313TIP3    H252355   1.790   5.634   2.063  0.1513  0.4701 -1.8729
10314TIP3   OH252356   3.685   4.310  12.425 -0.1020 -0.8235  0.1873
10314TIP3    H152357   3.664   4.222  12.396 -0.5469 -0.8369  0.5463
10314TIP3    H252358   3.618   4.332  12.489 -1.1392  0.4833 -1.2562
10315TIP3   OH252359   2.333   0.290  16.982 -0.1315  0.0116 -0.4501
10315TIP3    H152360   2.290   0.375  16.987  0.8990  0.4906  0.3891
10315TIP3    H252361   2.410   0.297  17.038  0.3313 -1.2658 -0.8758
10316TIP3   OH252362   0.899   6.379   2.618  0.1244  0.2586 -0.0016
10316TIP3    H152363   0.861   6.293   2.603 -1.7138  1.2025 -1.0576
10316TIP3    H252364   0.865   6.434   2.548  1.2980  1.8538  0.5966
10317TIP3   OH252365   2.863   1.029  11.595 -0.1131 -0.0143  0.4204
10317TIP3    H152366   2.847   1.122  11.605 -0.1247 -0.0058  0.3152
10317TIP3    H252367   2.813   1.003  11.518  0.1068 -0.0545  0.2898
10318TIP3   OH252368   4.494   0.774  15.826  0.2737 -0.2167 -0.1393
10318TIP3    H152369   4.476   0.865  15.850  0.6469 -0.4928  1.3408
10318TIP3    H252370   4.505   0.775  15.731 -3.9033  0.5411 -0.8061
10319TIP3   OH252371   5.287   0.262   5.200 -0.0032  0.3384 -0.2255
10319TIP3    H152372   5.324   0.206   5.268 -1.6630 -1.2865 -0.5792
10319TIP3    H252373   5.277   0.205   5.124 -1.2714  1.2182 -0.7631
10320TIP3   OH252374   3.817   1.522  17.031 -0.6330 -0.4590 -0.1845
10320TIP3    H152375   3.898   1.567  17.053  0.0730 -0.8145 -1.9173
10320TIP3    H252376   3.757   1.591  17.003 -0.1786 -0.3943 -1.0254
10321TIP3   OH252377   2.241   1.663   2.471 -0.5371 -0.1730  0.3459
10321TIP3    H152378   2.197   1.582   2.495 -1.3192 -0.0571 -0.6366
10321TIP3    H252379   2.226   1.672   2.377  0.2436  0.6861  0.2840
10322TIP3   OH252380   2.757   6.248   1.706 -0.5566 -0.3430 -0.4572
10322TIP3    H152381   2.784   6.230   1.616 -1.3178 -0.4291 -0.6764
10322TIP3    H252382   2.733   6.340   1.706 -3.5579 -1.0039 -1.1742
10323TIP3   OH252383   0.371   0.255  12.771  0.2693  0.3208 -0.1379
10323TIP3    H152384   0.353   0.273  12.679 -1.1289  1.3107  0.2916
10323TIP3    H252385   0.466   0.264  12.780  0.4067  0.3102 -1.4482
10324TIP3   OH252386   3.468   2.870   4.834 -0.5783  0.8570 -0.3612
10324TIP3    H152387   3.428   2.896   4.751 -1.4842  1.5639  0.2726
10324TIP3    H252388   3.394   2.843   4.888  0.0585 -0.1164  0.0426
10325TIP3   OH252389   6.059   4.256   1.226  0.4088  0.1126  0.6635
10325TIP3    H152390   5.978   4.246   1.277  0.5415  1.4769  1.1806
10325TIP3    H252391   6.109   4.323   1.273  1.7233 -0.5041  0.1912
10326TIP3   OH252392   0.721   4.409  12.795 -0.4418  0.6165  0.8454
10326TIP3    H152393   0.768   4.492  12.787  0.4497 -0.0148 -1.0272
10326TIP3    H252394   0.633   4.428  12.764 -0.1982  0.8579  0.2801
10327TIP3   OH252395   2.177   1.287  16.892  0.5195 -0.1438  0.1137
10327TIP3    H152396   2.191   1.215  16.953 -0.8623  0.6735  1.4939
10327TIP3    H252397   2.183   1.366  16.947 -0.9774  0.6091 -0.7391
10328TIP3   OH252398   0.099   5.118  13.485  0.1417 -0.2341  0.1885
10328TIP3    H152399   0.131   5.152  13.402  0.7227 -2.0431 -0.3634
10328TIP3    H252400   0.005   5.136  13.484 -0.0116 -0.9937 -1.2627
10329TIP3   OH252401   4.074   6.578  13.207  0.3469  0.3758  0.0390
10329TIP3    H152402   4.120   6.611  13.130  0.1528 -1.0425 -0.7163
10329TIP3    H252403   4.144   6.542  13.262  0.3234 -0.2149 -0.3086
10330TIP3   OH252404   2.683   4.769  16.023  0.7673 -0.1327  0.0106
10330TIP3    H152405   2.659   4.800  16.110 -2.1810 -2.2653  0.1435
10330TIP3    H252406   2.735   4.690  16.039  3.2846  1.3431 -0.2986
10331TIP3   OH252407   2.354   4.588  12.094 -0.1812 -0.1328 -0.1200
10331TIP3    H152408   2.284   4.534  12.130 -0.3940 -0.0676 -0.4399
10331TIP3    H252409   2.310   4.657  12.046  0.0568  0.9373  1.1266
10332TIP3   OH252410   1.640   6.006  12.143  0.0380 -0.6368 -0.2434
10332TIP3    H152411   1.617   6.094  12.111 -0.7361 -1.7570 -3.0964
10332TIP3    H252412   1.556   5.965  12.164  0.3629 -0.8509  0.6743
10333TIP3   OH252413   0.795   6.489  14.171  0.0209  0.3735 -0.4836
10333TIP3    H152414   0.793   6.450  14.258  0.5116 -0.9435 -1.0371
10333TIP3    H252415   0.705   6.479  14.138  0.2443 -0.7268 -0.7921
10334TIP3   OH252416   5.279   4.691   4.938  0.5532  0.5772  0.4802
10334TIP3    H152417   5.190   4.676   4.906  0.9470  0.4237 -0.5664
10334TIP3    H252418   5.269   4.700   5.033 -0.9483  3.2114  0.1681
10335TIP3   OH252419   4.009   5.108  16.113 -0.0769  0.4372 -0.5168
10335TIP3    H152420   3.945   5.042  16.140 -0.6400 -0.3513 -3.4108
10335TIP3    H252421   3.958   5.190  16.107 -0.2642  0.3181 -0.5606
10336TIP3   OH252422   1.264   2.134  16.051  0.0110  0.3197 -0.2348
10336TIP3    H152423   1.225   2.129  16.138 -1.9915  0.9205 -1.0245
10336TIP3    H252424   1.317   2.055  16.043  1.4099  0.9480  2.0173
10337TIP3   OH252425   5.261   4.651   4.080  0.2050  0.1669 -0.2553
10337TIP3    H152426   5.276   4.713   4.151 -1.0281 -0.1539  0.3171
10337TIP3    H252427   5.343   4.604   4.071  0.4315  0.3348  0.8368
10338TIP3   OH252428   4.636   4.065  16.515  0.1547 -0.5622  0.3897
10338TIP3    H152429   4.647   3.974  16.488 -0.9385 -0.8022  0.7059
10338TIP3    H252430   4.726   4.098  16.525  0.5675 -1.7263  0.6866
10339TIP3   OH252431   1.518   1.235  12.844  0.2998  0.3736  1.0043
10339TIP3    H152432   1.437   1.242  12.894 -0.0692 -0.6790  0.5879
10339TIP3    H252433   1.492   1.254  12.754  0.4896 -0.1035  0.8484
10340TIP3   OH252434   5.053   6.705   0.951 -0.4121 -0.2062 -0.0212
10340TIP3    H152435   4.988   6.771   0.929 -1.3716 -1.1837 -0.2065
10340TIP3    H252436   5.100   6.688   0.869  0.0979  0.4938  0.1124
10341TIP3   OH252437   2.014   3.708   6.599  0.7840 -0.4037  0.2203
10341TIP3    H152438   2.097   3.730   6.641  0.8213 -0.8870  0.4117
10341TIP3    H252439   1.979   3.636   6.652 -1.2349  1.7549  2.0006
10342TIP3   OH252440   0.878   6.411  11.005  0.2881 -0.3274  0.3016
10342TIP3    H152441   0.850   6.338  11.059  2.4916 -0.7295  1.0287
10342TIP3    H252442   0.849   6.389  10.917 -0.1121 -1.5073  0.7155
10343TIP3   OH252443   6.407   0.609  16.022  0.5736  0.4106 -0.3873
10343TIP3    H152444   6.312   0.609  16.029  0.5695 -2.5815  1.8391
10343TIP3    H252445   6.425   0.557  15.943  0.3364  0.1541 -0.2749
10344TIP3   OH252446   5.073   0.756   5.858 -0.1931 -0.3814 -0.0428
10344TIP3    H152447   5.072   0.846   5.891 -0.6165 -0.8698  1.3884
10344TIP3    H252448   5.160   0.722   5.883 -1.3648 -1.5252  2.9921
10345TIP3   OH252449   6.135   5.580  16.610 -0.2342 -0.0492 -0.2107
10345TIP3    H152450   6.119   5.661  16.562  0.0431  0.1870  0.0849
10345TIP3    H252451   6.143   5.512  16.543  2.1617  0.5902 -0.6729
10346TIP3   OH252452   0.335   6.520   2.273  0.2079  0.1165  0.2487
10346TIP3    H152453   0.275   6.453   2.240  1.4311 -0.3232 -1.1789
10346TIP3    H252454   0.387   6.546   2.197  0.8553  1.5308  1.1300
10347TIP3   OH252455   3.163   4.440   1.351  0.3377 -0.5508 -0.4811
10347TIP3    H152456   3.254   4.441   1.383  0.4961 -1.8495 -0.8465
10347TIP3    H252457   3.155   4.520   1.299  0.9256  0.1533  0.4683
10348TIP3   OH252458   5.896   4.546  14.427 -0.2110  0.2237 -0.4507
10348TIP3    H152459   5.840   4.479  14.467  0.4246  0.6976  1.3131
10348TIP3    H252460   5.923   4.508  14.343 -0.1849 -1.5567  0.3268
10349TIP3   OH252461   1.736   4.905   2.101  0.2725  0.4096 -1.0838
10349TIP3    H152462   1.821   4.867   2.125  0.5444  1.2024 -0.7615
10349TIP3    H252463   1.700   4.844   2.036  0.6128 -0.4975 -0.4519
10350TIP3   OH252464   4.006   1.182   3.657 -0.5446  0.2700 -0.3251
10350TIP3    H152465   3.946   1.189   3.732 -0.0288  0.9896  0.0325
10350TIP3    H252466   4.093   1.191   3.696 -0.1404 -1.4520 -0.7436
10351TIP3   OH252467   4.223   4.425   1.727 -0.4167 -0.7529  0.1800
10351TIP3    H152468   4.282   4.474   1.669  0.8398 -0.8946  1.2721
10351TIP3    H252469   4.151   4.398   1.671 -0.3195  0.9145 -0.8308
10352TIP3   OH252470   3.328   0.642   3.081  0.5015 -0.4890  0.0585
10352TIP3    H152471   3.233   0.656   3.074  0.3286 -1.1776  0.8952
10352TIP3    H252472   3.366   0.702   3.017 -0.3959  1.1569  1.0177
10353TIP3   OH252473   1.155   0.720   5.565  0.3101  0.3518  0.2471
10353TIP3    H152474   1.140   0.633   5.601 -0.2971 -0.1474 -1.1503
10353TIP3    H252475   1.102   0.778   5.620 -0.6446 -0.3975  0.1389
10354TIP3   OH252476   0.024   4.343   6.104 -0.5192 -0.0483 -0.0945
10354TIP3    H152477   0.105   4.292   6.105 -0.0022  0.7370 -0.7183
10354TIP3    H252478   0.023   4.390   6.187  0.4741  1.1288 -0.7052
10355TIP3   OH252479   1.222   5.707  15.342 -0.4090  0.0665 -0.0280
10355TIP3    H152480   1.253   5.717  15.432 -0.1066 -0.2493 -0.0930
10355TIP3    H252481   1.173   5.625  15.343  1.2971 -1.0114 -0.5864
10356TIP3   OH252482   4.601   4.102   1.317  0.6629 -0.4498 -0.1253
10356TIP3    H152483   4.552   4.029   1.356 -0.3707  0.2712 -0.0308
10356TIP3    H252484   4.539   4.143   1.258  1.8436 -0.8017 -1.6732
10357TIP3   OH252485   4.772   5.119  15.303 -0.6527  0.4594 -0.3914
10357TIP3    H152486   4.795   5.130  15.211 -0.7126 -0.8967 -0.6031
10357TIP3    H252487   4.835   5.172  15.351  0.3262  0.0145 -1.1509
10358TIP3   OH252488   3.790   0.936  14.075 -0.7636 -0.0059  0.1570
10358TIP3    H152489   3.853   0.866  14.091 -0.5638  0.2030  0.2837
10358TIP3    H252490   3.826   0.985  14.001 -1.2943 -0.5008 -0.4441
10359TIP3   OH252491   3.418   4.975  16.559  0.2479 -0.3055 -0.0075
10359TIP3    H152492   3.446   4.936  16.642  1.4226  3.0241  1.3369
10359TIP3    H252493   3.489   4.956  16.498  0.1764 -1.3447  0.2182
10360TIP3   OH252494   3.163   1.697   3.567 -0.4025  0.3059  0.1612
10360TIP3    H152495   3.114   1.679   3.647 -0.9178  1.0806  0.0217
10360TIP3    H252496   3.201   1.612   3.543 -0.1170  0.0919  1.2991
10361TIP3   OH252497   0.837   2.991  14.971  0.3596  0.6280  0.2851
10361TIP3    H152498   0.851   3.043  14.892  1.7134 -0.0521  0.0435
10361TIP3    H252499   0.924   2.956  14.992 -0.5170 -1.7184  0.2994
10362TIP3   OH252500   6.343   5.367  11.814  0.0104 -0.2143  0.0288
10362TIP3    H152501   6.251   5.383  11.834 -0.3302 -0.6588 -1.0811
10362TIP3    H252502   6.383   5.345  11.898 -0.4268  2.0336  0.8929
10363TIP3   OH252503   6.389   4.234  17.032 -0.0051 -0.0291 -0.0521
10363TIP3    H152504   6.310   4.287  17.029  0.6809  1.0025 -0.9084
10363TIP3    H252505   6.459   4.296  17.053  0.8772 -0.4867 -1.4679
10364TIP3   OH252506   6.171   0.575   5.632  0.6340 -0.3195 -0.4126
10364TIP3    H152507   6.209   0.555   5.717  0.0953  1.2799  0.2266
10364TIP3    H252508   6.183   0.669   5.621 -2.2620  0.1073 -0.6002
10365TIP3   OH252509   3.275   5.000  16.311  0.5136 -0.5443  0.3537
10365TIP3    H152510   3.311   5.008  16.399  2.2991 -0.8164 -0.3164
10365TIP3    H252511   3.255   4.906  16.301  0.0324 -0.4660  0.5650
10366TIP3   OH252512   0.504   0.658  11.443  0.2930  0.5783 -0.4043
10366TIP3    H152513   0.412   0.638  11.429  0.1965  0.9093 -0.2300
10366TIP3    H252514   0.529   0.714  11.369  0.9036 -1.2088 -1.6362
10367TIP3   OH252515   3.719   0.392   0.623  0.4890  0.2319  0.0596
10367TIP3    H152516   3.694   0.447   0.698 -0.0425 -0.1194  0.1445
10367TIP3    H252517   3.642   0.338   0.606  0.0855  1.2213 -1.5763
10368TIP3   OH252518   4.422   4.896  14.141 -0.2951  0.5180  0.6345
10368TIP3    H152519   4.441   4.942  14.223  0.3457  1.7657 -0.1703
10368TIP3    H252520   4.487   4.930  14.079 -2.6470  1.9750 -1.2275
10369TIP3   OH252521   0.765   3.305  11.173 -0.2901  0.2553 -0.0231
10369TIP3    H152522   0.742   3.376  11.112  0.1255  0.0632 -0.4088
10369TIP3    H252523   0.859   3.292  11.159 -0.3974 -0.4880 -0.0718
10370TIP3   OH252524   4.444   0.897   2.456 -0.1521  0.4276 -0.2563
10370TIP3    H152525   4.536   0.916   2.473 -0.2550  1.3675 -0.7033
10370TIP3    H252526   4.445   0.833   2.384  0.1306  1.2802 -1.0195
10371TIP3   OH252527   5.149   2.092  16.754  0.0882  0.4422 -0.4590
10371TIP3    H152528   5.100   2.114  16.674 -0.3023 -0.5577 -0.5071
10371TIP3    H252529   5.165   2.177  16.796 -0.7978  0.8759 -0.9679
10372TIP3   OH252530   3.169   6.728  12.443  0.1580 -0.2693 -0.0006
10372TIP3    H152531   3.150   6.719  12.537  1.8356  0.6279  0.4642
10372TIP3    H252532   3.116   6.803  12.416  1.1323  0.7039  0.7123
10373TIP3   OH252533   4.814   3.046  15.021  0.8885 -0.7182 -0.2543
10373TIP3    H152534   4.894   3.006  14.985  1.4287 -2.1222  2.2584
10373TIP3    H252535   4.845   3.100  15.094 -0.3577  0.0178 -0.2407
10374TIP3   OH252536   0.947   3.900   2.582 -0.3332  0.1925  0.4942
10374TIP3    H152537   0.889   3.904   2.658 -1.3738 -1.3061 -0.1686
10374TIP3    H252538   0.933   3.812   2.546  2.8132 -0.4488  0.6210
10375TIP3   OH252539   0.748   4.133  10.858 -0.5698 -0.3041  0.3663
10375TIP3    H152540   0.663   4.172  10.879 -0.0287  0.9267  0.2968
10375TIP3    H252541   0.726   4.046  10.823 -1.8588  0.3547 -0.5319
10376TIP3   OH252542   0.412   6.030  11.403 -0.5475  0.0761 -0.2882
10376TIP3    H152543   0.442   6.029  11.494 -1.3578 -1.3833 -0.0081
10376TIP3    H252544   0.491   6.045  11.352 -0.1049  1.0763  0.6554
10377TIP3   OH252545   4.647   3.629  16.174 -0.7707 -0.1738  0.3506
10377TIP3    H152546   4.556   3.601  16.163 -0.5059 -0.3555 -1.8127
10377TIP3    H252547   4.645   3.724  16.156 -0.3708 -0.4167 -1.1691
10378TIP3   OH252548   1.786   6.019   4.576  0.5098  0.0691 -0.0937
10378TIP3    H152549   1.706   5.976   4.606  0.8626 -1.1624 -0.8232
10378TIP3    H252550   1.804   6.086   4.642 -1.5735  0.9679 -0.3628
10379TIP3   OH252551   4.495   4.550   0.445 -0.1823  0.2065  0.2116
10379TIP3    H152552   4.577   4.577   0.403  0.7339 -0.8358  1.2677
10379TIP3    H252553   4.499   4.589   0.532 -0.9119  0.3055  0.2047
10380TIP3   OH252554   2.122   5.027  15.703 -0.1159  0.1947 -0.2818
10380TIP3    H152555   2.179   4.958  15.668  0.3183 -0.3353  1.3844
10380TIP3    H252556   2.182   5.085  15.751 -1.0822 -1.6279  3.5401
10381TIP3   OH252557   2.723   1.914   1.699  0.1879 -0.1545  0.0457
10381TIP3    H152558   2.686   2.002   1.704  1.6370  0.6610 -2.2105
10381TIP3    H252559   2.681   1.874   1.623  2.6152  0.2315 -1.6097
10382TIP3   OH252560   3.634   4.597  13.353 -0.0744 -0.3280 -0.4311
10382TIP3    H152561   3.571   4.600  13.282 -0.8806 -1.5980  0.2043
10382TIP3    H252562   3.692   4.672  13.337 -2.1921  1.3579 -0.5913
10383TIP3   OH252563   5.967   0.678  12.071  0.1128  0.5422  0.4524
10383TIP3    H152564   5.957   0.597  12.020  0.6890  2.1723 -2.5058
10383TIP3    H252565   6.051   0.668  12.116 -0.4618 -1.0178  1.2301
10384TIP3   OH252566   5.272   0.624   4.956 -0.5540 -0.3281 -0.3577
10384TIP3    H152567   5.208   0.574   4.907  0.9534 -0.7806 -1.9628
10384TIP3    H252568   5.302   0.691   4.895  2.1399 -1.5620 -0.5245
10385TIP3   OH252569   2.169   2.104   0.991 -0.1007  0.4412  0.5309
10385TIP3    H152570   2.101   2.048   0.953 -2.1851  2.0650  1.6971
10385TIP3    H252571   2.183   2.172   0.925  0.1323  0.3323  0.4652
10386TIP3   OH252572   5.146   1.082  14.006 -0.7068  0.1891  0.5855
10386TIP3    H152573   5.225   1.107  14.055 -1.9837 -0.3593  3.0685
10386TIP3    H252574   5.087   1.156  14.018 -1.1504 -0.0880  0.1056
10387TIP3   OH252575   0.903   6.535  14.922 -0.2467  0.2680 -0.1114
10387TIP3    H152576   0.876   6.556  14.833  0.5505  0.9783 -0.1995
10387TIP3    H252577   0.930   6.619  14.959 -1.1863  0.0941  1.0246
10388TIP3   OH252578   0.321   5.204   3.054  0.1943  0.7619  0.0647
10388TIP3    H152579   0.323   5.133   3.118  3.3754 -0.7384 -1.4932
10388TIP3    H252580   0.355   5.165   2.974  2.4069  4.0788 -0.7970
10389TIP3   OH252581   0.181   2.426  13.176 -0.1681  0.3873 -0.1864
10389TIP3    H152582   0.255   2.388  13.225  1.1233  0.6775 -1.8169
10389TIP3    H252583   0.127   2.352  13.151 -0.1921  0.1210  0.6304
10390TIP3   OH252584   0.403   4.262   2.210  0.0355 -0.6080 -0.4353
10390TIP3    H152585   0.322   4.264   2.260 -1.0734 -1.3332 -2.1074
10390TIP3    H252586   0.470   4.236   2.273 -0.6192  1.9018  1.4518
10391TIP3   OH252587   2.145   0.138  16.125  0.3366 -0.3707  0.1623
10391TIP3    H152588   2.148   0.043  16.138 -1.2419 -0.2431  1.8377
10391TIP3    H252589   2.055   0.156  16.099  1.0889  0.5118 -2.1981
10392TIP3   OH252590   5.924   0.275  14.177  0.0124  0.1365  0.2642
10392TIP3    H152591   5.988   0.211  14.148 -2.5016 -1.1718 -3.0657
10392TIP3    H252592   5.954   0.358  14.138 -0.4650 -0.5458 -1.6349
10393TIP3   OH252593   5.571   1.136  15.542  0.9997  0.4100  0.3412
10393TIP3    H152594   5.517   1.082  15.600 -0.8586  0.7711 -0.9736
10393TIP3    H252595   5.597   1.210  15.596  0.5046  0.0279  1.1223
10394TIP3   OH252596   4.214   4.912   1.498 -0.2487 -0.2212  0.2195
10394TIP3    H152597   4.213   5.005   1.476 -0.3144 -0.4404 -0.7569
10394TIP3    H252598   4.228   4.910   1.593  1.2773  0.7357  0.0513
10395TIP3   OH252599   4.063   4.060  17.057 -1.0498 -0.2944 -0.3153
10395TIP3    H152600   4.055   4.079  16.963 -0.2162 -0.0326 -0.3412
10395TIP3    H252601   4.070   3.964  17.061 -1.0138 -0.3028 -0.5323
10396TIP3   OH252602   4.415   3.907   4.041 -0.0181  0.6558  0.2084
10396TIP3    H152603   4.320   3.896   4.051  0.1172 -0.5244  0.3284
10396TIP3    H252604   4.425   3.955   3.959 -0.6502 -1.7159 -1.3697
10397TIP3   OH252605   4.071   6.011  11.569 -0.4313  0.4918 -0.0129
10397TIP3    H152606   4.162   6.027  11.545 -0.2922 -0.5489 -0.2245
10397TIP3    H252607   4.058   6.061  11.650  0.4686  0.2657  0.2791
10398TIP3   OH252608   1.350   0.677   2.293  0.1752  0.2376 -0.2568
10398TIP3    H152609   1.388   0.647   2.376  0.3947  0.2205 -0.3645
10398TIP3    H252610   1.347   0.772   2.301 -0.0852  0.2170 -0.1057
10399TIP3   OH252611   1.763   6.570  13.465  0.2397 -0.3667  0.1326
10399TIP3    H152612   1.728   6.486  13.494  2.5083 -0.7724  1.9001
10399TIP3    H252613   1.736   6.577  13.373 -1.2801 -2.2858  0.3879
10400TIP3   OH252614   4.960   3.649   4.185 -0.2757 -0.1211 -0.3723
10400TIP3    H152615   5.052   3.661   4.162  0.4119 -1.1803  1.6154
10400TIP3    H252616   4.917   3.629   4.102  1.5488 -1.0807 -1.1434
10401TIP3   OH252617   0.740   1.262  13.084  0.1896  0.0381 -0.0511
10401TIP3    H152618   0.747   1.357  13.077 -0.6832  0.1938  0.8267
10401TIP3    H252619   0.776   1.229  13.002 -1.2382  1.2131 -1.2112
10402TIP3   OH252620   3.329   6.594  16.488 -0.3311 -0.0491 -0.4421
10402TIP3    H152621   3.256   6.538  16.464 -0.8113  0.8093 -1.0205
10402TIP3    H252622   3.327   6.665  16.425 -0.4100  1.2137  0.9279
10403TIP3   OH252623   2.900   6.379   3.298 -0.0740  0.0306 -0.0284
10403TIP3    H152624   2.965   6.323   3.339 -1.2815  0.1484  2.2049
10403TIP3    H252625   2.946   6.461   3.278  0.4202  0.2264  1.8078
10404TIP3   OH252626   5.448   6.703  14.895  1.0091 -0.9857  0.4322
10404TIP3    H152627   5.514   6.763  14.930  0.8076 -0.4148 -0.1537
10404TIP3    H252628   5.484   6.675  14.811 -0.0821  0.3896 -0.5383
10405TIP3   OH252629   1.882   5.471   4.934 -0.7286  0.9369  0.1922
10405TIP3    H152630   1.976   5.472   4.919 -0.7114  1.5549  0.3430
10405TIP3    H252631   1.868   5.397   4.994 -0.2620  1.2855  0.7352
10406TIP3   OH252632   5.343   2.512   5.222 -0.5945 -0.2093  0.4863
10406TIP3    H152633   5.389   2.592   5.248 -1.1423 -0.2862  1.7592
10406TIP3    H252634   5.410   2.443   5.227  0.1213  0.2674 -1.5200
10407TIP3   OH252635   6.014   4.572   4.880 -0.1820  0.4693 -0.5236
10407TIP3    H152636   5.933   4.619   4.858  0.5580  2.1522  0.1616
10407TIP3    H252637   5.985   4.482   4.897 -2.2993  1.4373  1.8094
10408TIP3   OH252638   5.374   2.708   1.605 -0.3348  0.2990  0.0734
10408TIP3    H152639   5.456   2.680   1.647  0.3745  1.1855 -0.6831
10408TIP3    H252640   5.344   2.631   1.557  0.6029  0.2498 -0.4697
10409TIP3   OH252641   2.472   1.062  12.349  0.2505 -0.5301  0.4566
10409TIP3    H152642   2.559   1.080  12.314 -0.3873  0.5161 -0.6687
10409TIP3    H252643   2.460   1.126  12.419 -0.1559  0.3264 -0.3666
10410TIP3   OH252644   0.838   0.170  11.540 -0.0949  0.2412 -0.0455
10410TIP3    H152645   0.861   0.091  11.588 -1.1098 -0.2852 -0.3903
10410TIP3    H252646   0.861   0.150  11.449 -3.7767 -1.1824 -0.8144
10411TIP3   OH252647   6.527   6.150   5.130  0.1196 -0.0950 -0.1199
10411TIP3    H152648   6.592   6.097   5.085 -0.8496  0.6367 -2.5372
10411TIP3    H252649   6.573   6.232   5.150  0.9390 -0.9089  1.5239
10412TIP3   OH252650   0.454   6.358   3.789 -0.0887 -0.1020 -0.0811
10412TIP3    H152651   0.367   6.395   3.805  0.4932  1.0251  0.5707
10412TIP3    H252652   0.494   6.417   3.726 -0.4246 -1.6191 -1.8052
10413TIP3   OH252653   2.158   3.950  15.107  0.0844  0.1786 -0.7037
10413TIP3    H152654   2.120   3.893  15.040 -0.7449 -0.0835 -0.0215
10413TIP3    H252655   2.125   4.037  15.086 -1.4601 -0.1511  0.2749
10414TIP3   OH252656   0.686   2.835  13.569 -0.0958 -0.7385 -0.4268
10414TIP3    H152657   0.710   2.804  13.482  0.7638  0.5751 -0.6928
10414TIP3    H252658   0.715   2.765  13.628 -0.3393 -1.4677 -1.1547
10415TIP3   OH252659   2.055   5.276   4.260 -0.7443  1.1673  0.1721
10415TIP3    H152660   1.983   5.310   4.207 -0.8289  2.8418  1.2707
10415TIP3    H252661   2.014   5.219   4.324 -0.9747  1.2786  0.1251
10416TIP3   OH252662   4.801   6.729   4.605 -0.4774 -0.4248 -0.2209
10416TIP3    H152663   4.867   6.731   4.674 -0.5101 -0.4592 -0.1887
10416TIP3    H252664   4.718   6.717   4.650 -0.5987  0.4121 -0.1938
10417TIP3   OH252665   0.329   1.540   3.690  0.3039 -0.1194 -0.4050
10417TIP3    H152666   0.370   1.503   3.612 -0.7325 -0.8318 -0.6333
10417TIP3    H252667   0.251   1.486   3.704 -0.6890  1.3380 -0.1143
10418TIP3   OH252668   1.698   2.636  16.221  0.5756 -0.5942 -0.7703
10418TIP3    H152669   1.616   2.586  16.224  0.2173  0.0109 -0.3657
10418TIP3    H252670   1.688   2.696  16.148  1.3059 -1.5905 -1.7329
10419TIP3   OH252671   0.397   5.792   2.458 -0.0765  0.5597  0.1272
10419TIP3    H152672   0.480   5.839   2.445  0.4086  0.1711  1.6376
10419TIP3    H252673   0.380   5.799   2.552 -0.7667 -0.9914  0.1495
10420TIP3   OH252674   2.180   0.329   0.925  0.4311  0.0260  0.6187
10420TIP3    H152675   2.205   0.389   0.995  1.2020  0.8305 -0.3257
10420TIP3    H252676   2.262   0.305   0.882 -0.2333  2.3947 -2.2871
10421TIP3   OH252677   4.405   1.881   4.049  0.1015 -0.1774  0.4517
10421TIP3    H152678   4.415   1.975   4.038  0.7783 -0.2836  0.1407
10421TIP3    H252679   4.310   1.867   4.053 -0.1037  0.2775 -1.7549
10422TIP3   OH252680   4.308   1.105  14.601 -0.5010 -0.1604  0.6925
10422TIP3    H152681   4.346   1.159  14.670  1.1162 -1.0068  0.5099
10422TIP3    H252682   4.350   1.020  14.611 -2.0448 -1.0367  0.1612
10423TIP3   OH252683   3.932   4.961  15.849 -0.2253  0.1273  0.2667
10423TIP3    H152684   3.949   5.054  15.863 -1.0652  0.7124 -2.2342
10423TIP3    H252685   3.838   4.952  15.860 -0.6174  0.2295 -2.5329
10424TIP3   OH252686   3.205   4.225  14.547 -0.4874 -0.2076  0.5321
10424TIP3    H152687   3.266   4.165  14.504  1.1365  1.6949  0.0306
10424TIP3    H252688   3.179   4.180  14.627  2.9507 -0.5059  1.6634
10425TIP3   OH252689   5.038   5.966   5.691  0.0543  0.0858  0.0690
10425TIP3    H152690   5.077   5.922   5.767  0.5476  0.8942  0.2996
10425TIP3    H252691   4.960   5.914   5.671  0.1768 -0.4198  0.8300
10426TIP3   OH252692   1.435   6.249   3.910  0.0965  0.4553  0.3054
10426TIP3    H152693   1.399   6.289   3.989  0.7298 -2.1228  2.0123
10426TIP3    H252694   1.360   6.244   3.850 -1.2422 -0.4391  1.9645
10427TIP3   OH252695   6.134   0.702  16.260  0.4466  0.3959  0.1913
10427TIP3    H152696   6.044   0.718  16.289  0.3060 -0.5875  0.3338
10427TIP3    H252697   6.162   0.625  16.310  0.1420 -1.4591 -2.3143
10428TIP3   OH252698   1.961   1.133  16.203 -0.1006  0.3554 -0.0917
10428TIP3    H152699   2.048   1.100  16.226 -0.1171  0.5240  0.2237
10428TIP3    H252700   1.977   1.212  16.153 -0.0739  0.4288  0.0334
10429TIP3   OH252701   1.445   0.017  16.610  0.0577 -0.7446 -0.6533
10429TIP3    H152702   1.394  -0.062  16.591 -1.7032  0.3055 -0.5907
10429TIP3    H252703   1.443   0.066  16.527 -0.9903  0.3175 -0.0357
10430TIP3   OH252704   4.569   0.261  11.735  0.6670  0.0067 -0.1401
10430TIP3    H152705   4.576   0.353  11.761 -2.2089  0.3428 -0.1944
10430TIP3    H252706   4.556   0.264  11.640  2.4721 -0.6285 -0.4378
10431TIP3   OH252707   5.530   2.741   5.236 -0.0177  0.7797  0.1057
10431TIP3    H152708   5.550   2.819   5.183 -0.2140  0.5946 -0.2449
10431TIP3    H252709   5.592   2.675   5.205  0.5719  0.9731  0.8403
10432TIP3   OH252710   1.871   1.415  14.132 -0.0968  0.0547 -0.2705
10432TIP3    H152711   1.956   1.437  14.094  0.0996  2.7380  1.5009
10432TIP3    H252712   1.829   1.362  14.064  2.9130 -1.3735 -1.2268
10433TIP3   OH252713   2.338   3.408   1.823  0.3573 -0.5133 -0.6224
10433TIP3    H152714   2.373   3.355   1.752  0.2193  1.1684 -1.9764
10433TIP3    H252715   2.261   3.450   1.786  1.5052  2.1200 -0.2368
10434TIP3   OH252716   3.793   3.790   6.930  0.0848  0.5925 -0.6403
10434TIP3    H152717   3.833   3.803   6.844  2.9836  0.9686  0.6778
10434TIP3    H252718   3.739   3.867   6.943  1.3301  1.6010 -1.2431
10435TIP3   OH252719   4.707   6.004   2.493  0.2331  0.4635 -0.0234
10435TIP3    H152720   4.681   5.985   2.583  1.4761  2.6004  0.8530
10435TIP3    H252721   4.624   6.022   2.448 -0.4127 -0.7713  0.6399
10436TIP3   OH252722   2.378   1.810  15.125  0.2868 -0.3687  0.0761
10436TIP3    H152723   2.293   1.767  15.127 -0.2123  0.5557  1.9115
10436TIP3    H252724   2.379   1.859  15.043 -1.1817 -0.0115  0.2404
10437TIP3   OH252725   1.104   5.303  16.203  1.2288 -0.0745 -0.3870
10437TIP3    H152726   1.026   5.350  16.234  0.7268 -1.6756  0.9421
10437TIP3    H252727   1.076   5.265  16.120  1.4041  1.3012 -1.1098
10438TIP3   OH252728   0.625   4.642   2.910  0.0081 -0.6247 -0.2053
10438TIP3    H152729   0.599   4.587   2.983 -0.3507 -1.1113 -0.6847
10438TIP3    H252730   0.552   4.702   2.898 -1.1921 -2.2767 -1.8316
10439TIP3   OH252731   2.351   3.629   2.310 -0.6641 -0.2341  0.0319
10439TIP3    H152732   2.439   3.600   2.286 -0.4430 -0.8896  1.5596
10439TIP3    H252733   2.303   3.629   2.228  0.1402 -2.0779 -0.4909
10440TIP3   OH252734   4.231   3.182  16.085 -0.1586 -0.4195  0.1003
10440TIP3    H152735   4.141   3.210  16.099 -0.4118 -1.6535  1.1137
10440TIP3    H252736   4.265   3.243  16.020 -1.7298  0.0386 -0.3353
10441TIP3   OH252737   2.938   0.622   3.165  0.3589 -0.2348 -0.1388
10441TIP3    H152738   2.926   0.716   3.159  0.5227 -0.1248  0.9846
10441TIP3    H252739   2.980   0.597   3.083  3.5360  1.2162  0.8990
10442TIP3   OH252740   3.593   1.299   3.040  0.1681 -1.0184  0.3998
10442TIP3    H152741   3.680   1.261   3.048 -0.4157 -2.0173  3.2164
10442TIP3    H252742   3.537   1.227   3.012  0.2822 -0.2002 -2.1846
10443TIP3   OH252743   3.489   4.601  14.444  0.0175  0.2511 -0.2394
10443TIP3    H152744   3.574   4.597  14.401  0.1730  1.4748 -0.0922
10443TIP3    H252745   3.470   4.511  14.469  1.2915 -0.0305 -0.2300
10444TIP3   OH252746   5.334   3.930  12.310 -0.0805 -0.0769  0.5557
10444TIP3    H152747   5.418   3.974  12.318  0.6919 -1.0383 -1.5859
10444TIP3    H252748   5.292   3.971  12.235  0.0443 -1.9237 -0.5891
10445TIP3   OH252749   2.492   5.882  16.576 -0.1026  0.0684  0.3177
10445TIP3    H152750   2.548   5.906  16.503 -2.6571  3.0108 -0.8552
10445TIP3    H252751   2.516   5.942  16.646 -1.4450  1.0987 -0.0680
10446TIP3   OH252752   3.639   4.447  14.184 -0.1874  0.0454 -0.0632
10446TIP3    H152753   3.680   4.532  14.204  0.3346 -0.9077  3.7235
10446TIP3    H252754   3.549   4.469  14.160  0.3968  1.7266 -0.8796
10447TIP3   OH252755   2.362   5.243  16.229 -0.3277  0.5196  0.2669
10447TIP3    H152756   2.445   5.213  16.264 -0.9319  1.2706  2.5293
10447TIP3    H252757   2.357   5.206  16.141  1.6764 -0.8026  0.6670
10448TIP3   OH252758   3.358   3.557   4.948  0.1628  0.2227  0.0658
10448TIP3    H152759   3.451   3.559   4.928  0.1758 -0.2415  0.0662
10448TIP3    H252760   3.315   3.544   4.863  0.2883 -3.2485  0.3721
10449TIP3   OH252761   5.758   4.777   2.598 -0.4253 -0.3597 -0.5194
10449TIP3    H152762   5.776   4.688   2.566  0.3314  0.1458 -1.5343
10449TIP3    H252763   5.730   4.825   2.520 -0.1441  0.4839 -0.1109
10450TIP3   OH252764   2.379   3.287  14.562  0.3489  0.0249 -0.6141
10450TIP3    H152765   2.313   3.344  14.602  0.2547 -0.3414 -0.2277
10450TIP3    H252766   2.445   3.276  14.630 -0.0177 -0.9464 -0.3928
10451TIP3   OH252767   1.077   5.422  11.109  0.0335 -0.1061  0.4122
10451TIP3    H152768   1.049   5.423  11.201  2.0289  1.3839  1.0631
10451TIP3    H252769   1.172   5.408  11.113  0.0472 -0.7736 -1.4819
10452TIP3   OH252770   3.839   2.585  17.118  0.3068 -0.2521  0.0460
10452TIP3    H152771   3.800   2.624  17.196  0.6821  1.0194 -0.3647
10452TIP3    H252772   3.766   2.542  17.074  0.1499 -1.2456  1.2324
10453TIP3   OH252773   2.122   3.720  15.597  0.2586  0.3112 -0.4698
10453TIP3    H152774   2.036   3.695  15.563  0.4571  0.6046 -1.2099
10453TIP3    H252775   2.185   3.682  15.536  0.7520 -1.3598  0.9939
10454TIP3   OH252776   4.708   5.949  16.712  0.2883  0.1750  0.0070
10454TIP3    H152777   4.742   5.878  16.767  0.3605 -0.9552 -1.4547
10454TIP3    H252778   4.627   5.914  16.676 -0.3859  1.3687  0.3243
10455TIP3   OH252779   1.481   6.659   0.172 -0.1555 -0.0962  0.3236
10455TIP3    H152780   1.387   6.649   0.188 -0.2206 -0.0165 -0.0128
10455TIP3    H252781   1.503   6.743   0.212 -0.2046 -0.1645  0.4966
10456TIP3   OH252782   6.556   2.074   4.524  0.2997  0.8470 -0.4658
10456TIP3    H152783   6.525   2.110   4.441 -1.0079 -1.1559 -0.9397
10456TIP3    H252784   6.496   2.002   4.542  0.8863  0.8885  1.9717
10457TIP3   OH252785   2.502   2.305  17.108 -0.5873 -0.2776 -0.1757
10457TIP3    H152786   2.553   2.370  17.060 -0.4583  0.8222  1.3857
10457TIP3    H252787   2.421   2.350  17.133 -0.2056 -0.4538  1.5164
10458TIP3   OH252788   6.587   6.203   0.671 -0.4114 -0.2782 -0.2196
10458TIP3    H152789   6.531   6.153   0.612  0.4447 -2.0700  0.3962
10458TIP3    H252790   6.530   6.226   0.744 -1.2083  1.0538 -1.2029
10459TIP3   OH252791   2.600   6.453  14.844  0.0066  0.3348 -0.2235
10459TIP3    H152792   2.571   6.506  14.918  1.1708  1.2259 -0.3655
10459TIP3    H252793   2.519   6.419  14.805 -0.8291  2.2223 -0.2647
10460TIP3   OH252794   1.024   1.112   0.369 -0.0077  0.0763 -0.3287
10460TIP3    H152795   0.961   1.070   0.427  0.6557 -0.1020  0.2624
10460TIP3    H252796   1.066   1.040   0.322  0.1945  0.1614 -0.2783
10461TIP3   OH252797   5.600   5.664  15.319 -0.3717 -0.1157  0.0858
10461TIP3    H152798   5.683   5.707  15.299 -1.3230  1.2830 -1.0524
10461TIP3    H252799   5.606   5.640  15.411  0.8907  0.8693  0.2776
10462TIP3   OH252800   2.685   2.696  14.801 -0.2334 -0.0950 -0.0652
10462TIP3    H152801   2.760   2.733  14.848  0.2123 -1.2457  0.1676
10462TIP3    H252802   2.653   2.627  14.859 -1.8948  0.7960  0.1283
10463TIP3   OH252803   2.360   4.290  13.594 -0.2127 -0.2112 -0.8273
10463TIP3    H152804   2.415   4.297  13.516 -0.7287  2.7239 -1.0790
10463TIP3    H252805   2.276   4.328  13.566 -0.3098  1.1801  1.1743
10464TIP3   OH252806   3.101   6.365  12.055  0.6040  0.4636 -0.1317
10464TIP3    H152807   3.037   6.294  12.050 -1.1030  1.9203  0.1031
10464TIP3    H252808   3.064   6.426  12.119 -0.3513  3.8190 -3.5510
10465TIP3   OH252809   2.898   2.902  14.213 -0.0499  0.1445 -0.4422
10465TIP3    H152810   2.854   2.824  14.246 -0.4907  0.7692  0.5022
10465TIP3    H252811   2.829   2.951  14.168  0.3678 -0.3005 -1.6208
10466TIP3   OH252812   1.040   6.047  15.610  0.3362  0.3089  0.1199
10466TIP3    H152813   1.120   6.065  15.660  0.1095  0.2513  0.5049
10466TIP3    H252814   1.034   6.119  15.547 -0.1048  1.1351  1.0824
10467TIP3   OH252815   6.417   0.287   1.814  0.2640 -0.1991  0.5298
10467TIP3    H152816   6.473   0.256   1.742 -0.8664 -0.6290 -0.1875
10467TIP3    H252817   6.405   0.211   1.869  1.7932  0.3253  1.6664
10468TIP3   OH252818   6.308   2.205   0.145 -0.4600 -0.2341 -0.1021
10468TIP3    H152819   6.375   2.173   0.204 -0.5160 -0.1326  0.0176
10468TIP3    H252820   6.342   2.187   0.057  0.6847  1.6750 -0.1056
10469TIP3   OH252821   3.936   0.487   4.480  0.3640 -0.0920  0.5171
10469TIP3    H152822   3.895   0.530   4.405  1.1876  0.9201  0.6306
10469TIP3    H252823   3.941   0.555   4.547  0.0638 -0.8591  1.3339
10470TIP3   OH252824   4.035   0.441   3.386  0.6952 -0.1499  0.0872
10470TIP3    H152825   4.114   0.395   3.358 -0.3771 -1.4380 -1.0133
10470TIP3    H252826   3.993   0.468   3.304 -0.6247 -0.6147  0.5807
10471TIP3   OH252827   1.909   4.674   2.383 -0.0865  0.1871  0.2532
10471TIP3    H152828   1.959   4.686   2.302 -0.4874 -1.4263 -0.2544
10471TIP3    H252829   1.823   4.646   2.355 -0.2505 -0.3360  1.2374
10472TIP3   OH252830   4.554   2.036   2.498 -0.0140  0.3488 -0.3449
10472TIP3    H152831   4.605   1.978   2.442 -0.7060  1.0352 -1.7501
10472TIP3    H252832   4.495   2.081   2.438  0.8455  2.9087  0.6094
10473TIP3   OH252833   0.984   2.524  14.016 -0.6853  0.0149 -0.3803
10473TIP3    H152834   1.045   2.451  14.028 -1.2918 -0.1156  3.3200
10473TIP3    H252835   1.039   2.596  13.984  0.7689 -0.9440 -0.1497
10474TIP3   OH252836   5.712   3.709   3.885 -0.2171 -0.6174  0.1732
10474TIP3    H152837   5.737   3.797   3.859  0.4801 -0.7638  0.3392
10474TIP3    H252838   5.775   3.685   3.953  1.7509 -2.5064 -2.1274
10475TIP3   OH252839   1.386   3.406  15.100  0.2079 -0.0266  0.1853
10475TIP3    H152840   1.475   3.404  15.066  0.2148 -0.5356  0.2329
10475TIP3    H252841   1.342   3.334  15.057  0.3362 -0.9603  1.5452
10476TIP3   OH252842   5.651   6.615   3.802 -0.1336  0.0821  0.5717
10476TIP3    H152843   5.662   6.661   3.718  1.7302  0.8087  1.1420
10476TIP3    H252844   5.729   6.559   3.808 -1.3914 -1.7135  0.8052
10477TIP3   OH252845   6.558   1.780   3.840 -0.5848 -0.1930 -0.5564
10477TIP3    H152846   6.570   1.687   3.856 -1.7687 -0.4312 -0.9717
10477TIP3    H252847   6.640   1.820   3.869 -0.8522 -1.1100  1.6280
10478TIP3   OH252848   2.459   2.897   3.148 -0.2042 -0.2230 -0.5384
10478TIP3    H152849   2.546   2.929   3.171 -0.6002 -0.1435  0.8808
10478TIP3    H252850   2.470   2.863   3.059  0.8577  1.3490 -1.0534
10479TIP3   OH252851   1.283   4.446  13.001 -0.0513  0.1065  0.2578
10479TIP3    H152852   1.303   4.517  13.062 -0.3491 -0.4610  1.0301
10479TIP3    H252853   1.366   4.429  12.957  0.3510  0.0410  1.0186
10480TIP3   OH252854   0.681   1.719  13.401 -0.2196 -0.1635 -0.2568
10480TIP3    H152855   0.755   1.672  13.440 -1.2052 -0.2669  1.5916
10480TIP3    H252856   0.717   1.758  13.321  2.2508  0.9928  1.2835
10481TIP3   OH252857   1.381   0.768   0.001 -0.0139 -0.2317 -0.4173
10481TIP3    H152858   1.365   0.742   0.092 -0.0778 -0.0622 -0.3795
10481TIP3    H252859   1.432   0.695  -0.036 -0.2478 -0.4399 -0.3338
10482TIP3   OH252860   5.138   5.287   0.097 -0.2439  0.4312  0.0330
10482TIP3    H152861   5.088   5.240   0.030 -1.3625  2.2086 -0.4233
10482TIP3    H252862   5.084   5.282   0.175 -1.0044  2.0159 -0.3572
10483TIP3   OH252863   4.978   3.045  12.975  0.8096 -0.1453  0.4961
10483TIP3    H152864   4.886   3.062  12.990  0.8797 -0.7133  1.6739
10483TIP3    H252865   5.004   2.986  13.046  1.8576 -0.7330 -0.3297
10484TIP3   OH252866   2.726   2.929  12.429  0.2688 -0.4995 -0.4917
10484TIP3    H152867   2.768   2.951  12.512 -0.3086 -0.3680 -0.2268
10484TIP3    H252868   2.633   2.949  12.443 -0.0901 -1.9321 -0.6529
10485TIP3   OH252869   1.977   1.575   0.669  0.1731 -0.0795 -0.0810
10485TIP3    H152870   2.004   1.664   0.647 -1.5309  0.3371 -0.6493
10485TIP3    H252871   1.916   1.586   0.743  0.1499 -0.7895  0.0125
10486TIP3   OH252872   6.679   4.975   3.595  0.4033  0.4536 -0.0336
10486TIP3    H152873   6.731   4.896   3.610  1.3770  1.2806  1.0814
10486TIP3    H252874   6.589   4.949   3.616  0.3897 -0.8505 -1.4927
10487TIP3   OH252875   2.251   5.699   0.122  0.3198 -0.5027 -0.5652
10487TIP3    H152876   2.319   5.727   0.184 -0.0487  1.3247 -0.9294
10487TIP3    H252877   2.169   5.706   0.172  0.2870 -1.7927 -0.4117
10488TIP3   OH252878   3.975   6.133  16.656  0.0483  0.4831  0.5105
10488TIP3    H152879   4.049   6.194  16.658  0.7390 -0.2026 -1.4914
10488TIP3    H252880   3.900   6.188  16.633  0.1924  0.9621  1.1627
10489TIP3   OH252881   2.283   0.861   3.872 -0.4202  0.1462 -0.2172
10489TIP3    H152882   2.244   0.793   3.926 -0.4648  0.3323 -0.0160
10489TIP3    H252883   2.332   0.916   3.933  1.0624 -0.6922 -0.5762
10490TIP3   OH252884   2.941   6.046  11.887 -0.1355  0.2066 -0.8121
10490TIP3    H152885   3.036   6.054  11.879  0.0261 -1.5902 -1.0744
10490TIP3    H252886   2.914   6.001  11.808 -1.2493  0.8184 -0.8062
10491TIP3   OH252887   5.339   3.854  14.019 -0.3272  0.3977  0.4540
10491TIP3    H152888   5.334   3.912  14.095 -2.5906  0.3489  0.3938
10491TIP3    H252889   5.401   3.786  14.045 -0.7094  0.6404  2.0768
10492TIP3   OH252890   1.800   6.026   5.861  0.2577 -0.6179  0.5800
10492TIP3    H152891   1.803   5.952   5.800 -0.1536  1.4520 -2.1427
10492TIP3    H252892   1.889   6.062   5.861 -0.3281  0.9787 -1.0155
10493TIP3   OH252893   5.890   3.029   5.793  0.4306 -0.1045 -0.9087
10493TIP3    H152894   5.852   2.984   5.869  1.2292  2.1534  0.9451
10493TIP3    H252895   5.851   3.116   5.795  2.4371  0.8615 -1.4877
10494TIP3   OH252896   2.798   2.751  11.921 -0.4900 -0.4573 -0.1555
10494TIP3    H152897   2.777   2.774  11.830  0.6153  0.1766 -0.2706
10494TIP3    H252898   2.752   2.817  11.973 -2.2698 -1.6386 -0.1458
10495TIP3   OH252899   1.868   2.317   0.420 -0.7662 -0.0162  0.3252
10495TIP3    H152900   1.913   2.271   0.490  0.7769  0.1286 -0.5271
10495TIP3    H252901   1.885   2.264   0.342 -0.9743  0.7356 -0.2417
10496TIP3   OH252902   3.315   4.139   4.547 -0.6257 -0.1863 -0.4134
10496TIP3    H152903   3.247   4.206   4.539  1.2047  2.0747  1.2595
10496TIP3    H252904   3.388   4.174   4.497  1.4174  0.7663  2.8788
10497TIP3   OH252905   4.482   4.169  13.170  0.5304  0.0462 -0.5355
10497TIP3    H152906   4.468   4.241  13.232 -1.3603  1.1585 -2.1637
10497TIP3    H252907   4.502   4.094  13.226 -0.1905  1.1957  1.3787
10498TIP3   OH252908   5.912   1.841   1.306 -0.1747  0.1856  0.6263
10498TIP3    H152909   5.965   1.917   1.285 -3.3308  2.4542  0.0089
10498TIP3    H252910   5.876   1.860   1.393  0.0215 -1.3072  1.0698
10499TIP3   OH252911   1.341   5.376  15.118 -0.1281 -0.4847  0.1839
10499TIP3    H152912   1.384   5.455  15.149  0.4712 -0.7578  0.0513
10499TIP3    H252913   1.302   5.338  15.197  2.1778 -1.6699  0.8367
10500TIP3   OH252914   2.318   0.709   1.234 -1.0543  0.1562 -0.4181
10500TIP3    H152915   2.392   0.757   1.268 -2.8547  1.2130  2.3060
10500TIP3    H252916   2.357   0.645   1.174  1.9263  1.1350  0.3009
10501TIP3   OH252917   4.275   3.654   4.676  0.2431 -1.0473 -0.3261
10501TIP3    H152918   4.216   3.609   4.616  0.5872 -0.1115 -1.4127
10501TIP3    H252919   4.352   3.598   4.681  1.4570  0.1732 -3.1370
10502TIP3   OH252920   1.791   3.106   3.190 -0.3121  0.2950  0.0125
10502TIP3    H152921   1.840   3.041   3.140 -2.0978 -0.8168 -0.3821
10502TIP3    H252922   1.850   3.131   3.261 -0.2517 -3.4360  1.5249
10503TIP3   OH252923   3.639   5.056   1.452 -0.1013  0.1888 -0.1330
10503TIP3    H152924   3.711   5.099   1.499 -0.7223  0.0421  0.9687
10503TIP3    H252925   3.669   4.966   1.438 -0.7779 -0.4148  1.9742
10504TIP3   OH252926   4.513   1.012  14.773  0.2546 -0.1883 -0.0468
10504TIP3    H152927   4.604   0.982  14.779  0.4578  0.5677  1.0292
10504TIP3    H252928   4.487   1.025  14.864 -0.5457  0.7284 -0.3984
10505TIP3   OH252929   4.978   1.843  13.984 -0.3540 -0.0602  0.0969
10505TIP3    H152930   5.040   1.825  14.054  0.9880 -1.6004 -1.3955
10505TIP3    H252931   4.981   1.938  13.973  0.9238 -0.0027  0.7685
10506TIP3   OH252932   2.724   4.367  12.471  0.0928  0.1043 -0.0852
10506TIP3    H152933   2.815   4.394  12.467 -0.3322  1.4400 -2.3895
10506TIP3    H252934   2.674   4.448  12.473 -1.1044 -0.5964  1.7284
10507TIP3   OH252935   5.541   2.526  12.219  0.2362 -0.7434 -0.1819
10507TIP3    H152936   5.488   2.605  12.225  0.7860 -0.3105 -0.9016
10507TIP3    H252937   5.591   2.524  12.301  1.0068  0.2281 -0.6213
10508TIP3   OH252938   5.070   6.096  13.808  0.7805  0.1742  0.0406
10508TIP3    H152939   5.113   6.022  13.850 -0.3903 -0.3733  0.3184
10508TIP3    H252940   4.978   6.070  13.802  0.3554  1.5778  0.0899
10509TIP3   OH252941   3.130   0.472  12.483 -0.4745 -0.3439  0.1367
10509TIP3    H152942   3.170   0.459  12.569  1.2734 -0.0923 -0.6002
10509TIP3    H252943   3.077   0.393  12.469 -0.6868 -0.4370  1.3675
10510TIP3   OH252944   4.604   1.845   3.505 -0.4393 -0.2752  0.5252
10510TIP3    H152945   4.633   1.858   3.595 -2.4803 -0.6866  1.2969
10510TIP3    H252946   4.612   1.750   3.491  1.6272 -0.0350 -0.4393
10511TIP3   OH252947   1.693   3.738   3.604  0.2560  0.2953 -0.0261
10511TIP3    H152948   1.673   3.818   3.556  0.4273  0.3258 -0.0464
10511TIP3    H252949   1.667   3.667   3.545 -0.9988  0.3311  0.4436
10512TIP3   OH252950   5.092   2.687   1.056  0.4334  0.2473 -0.3619
10512TIP3    H152951   5.133   2.745   0.992 -0.5659  0.2756 -1.0106
10512TIP3    H252952   5.008   2.664   1.017 -1.2027  1.9679  1.8002
10513TIP3   OH252953   6.645   0.513   4.457 -0.4206 -0.3295 -0.1866
10513TIP3    H152954   6.644   0.460   4.537  1.3421  1.4365  1.1031
10513TIP3    H252955   6.738   0.535   4.445 -0.8949  1.0268 -1.6448
10514TIP3   OH252956   6.686   0.837  17.349  0.6193  0.5923 -0.2270
10514TIP3    H152957   6.631   0.886  17.410 -0.1969 -0.9095  0.3037
10514TIP3    H252958   6.628   0.771  17.312  1.9465 -0.8063  0.0605
10515TIP3   OH252959   4.420   1.099   6.038 -0.2902 -0.4598  0.2814
10515TIP3    H152960   4.473   1.092   6.117  1.3764  0.4573 -0.6954
10515TIP3    H252961   4.460   1.038   5.976  0.3315  0.9901 -0.8066
10516TIP3   OH252962   5.621   6.581   5.029  0.3894  0.8821  0.8027
10516TIP3    H152963   5.609   6.522   4.954 -0.5750 -0.0023  1.6124
10516TIP3    H252964   5.661   6.659   4.992 -0.7801  0.7861 -0.7994
10517TIP3   OH252965   3.367   5.785  16.606 -0.0818 -0.5301 -0.1082
10517TIP3    H152966   3.386   5.868  16.564 -1.2971  1.8390  3.4835
10517TIP3    H252967   3.430   5.779  16.678 -1.4805 -1.4842  1.1103
10518TIP3   OH252968   5.688   5.490  14.327  0.3117  0.3426 -0.1161
10518TIP3    H152969   5.691   5.407  14.279  1.5442 -0.1255  0.6827
10518TIP3    H252970   5.608   5.485  14.379 -0.6807  0.5629 -1.5793
10519TIP3   OH252971   0.366   3.388   0.395  0.4644 -0.1211 -0.0163
10519TIP3    H152972   0.284   3.380   0.347  0.9555 -0.8998 -0.7560
10519TIP3    H252973   0.398   3.476   0.373  1.6696 -1.1446 -2.8109
10520TIP3   OH252974   2.123   0.282   4.336  0.4034  0.3482 -0.5734
10520TIP3    H152975   2.151   0.282   4.244 -0.2373  1.9285 -0.8097
10520TIP3    H252976   2.164   0.205   4.374  3.8801  1.7138 -1.2205
10521TIP3   OH252977   1.352   4.460  12.452 -0.5287  0.4077  0.1754
10521TIP3    H152978   1.433   4.506  12.473  1.5802 -2.6214 -0.5451
10521TIP3    H252979   1.368   4.420  12.366 -1.9932 -1.8322  0.8318
10522TIP3   OH252980   5.347   2.010   5.377 -0.6906 -0.1286  0.3942
10522TIP3    H152981   5.337   1.944   5.309  0.0356  0.2844 -0.1289
10522TIP3    H252982   5.438   2.041   5.367 -0.3791 -0.4748  1.9217
10523TIP3   OH252983   1.192   0.545  13.868  0.9587  0.6822 -0.5122
10523TIP3    H152984   1.265   0.604  13.885  1.6113 -0.0881 -0.5609
10523TIP3    H252985   1.162   0.567  13.780  1.4955  0.6325 -0.7104
10524TIP3   OH252986   6.156   5.433   3.755 -0.6810 -0.0171 -0.0970
10524TIP3    H152987   6.103   5.391   3.687 -0.2549  0.8753 -1.0188
10524TIP3    H252988   6.161   5.369   3.825  0.5276 -1.8077 -1.7225
10525TIP3   OH252989   6.197   0.543   2.200 -0.9363  0.8286 -0.2787
10525TIP3    H152990   6.259   0.478   2.235 -0.1560  0.9430 -1.4187
10525TIP3    H252991   6.152   0.577   2.278  2.3843  2.8024  0.9916
10526TIP3   OH252992   0.910   0.254   2.234 -0.0592  0.2849 -0.3635
10526TIP3    H152993   0.866   0.332   2.266 -1.3375 -0.6501  0.2484
10526TIP3    H252994   0.976   0.235   2.301 -1.1162 -0.2918  0.5508
10527TIP3   OH252995   1.867   6.548  16.599 -0.0969  0.2416  0.1487
10527TIP3    H152996   1.785   6.570  16.644 -0.9251  0.7982 -1.5300
10527TIP3    H252997   1.895   6.631  16.559  1.4393  0.1166  0.8889
10528TIP3   OH252998   1.028   6.430   5.369  0.3362  0.1826  0.6118
10528TIP3    H152999   1.067   6.347   5.342 -0.7481 -0.9534  2.2573
10528TIP3    H253000   1.091   6.468   5.430  0.6718  0.3767  0.1407
10529TIP3   OH253001   2.781   2.686   1.445 -0.1136  0.0796 -1.0382
10529TIP3    H153002   2.874   2.681   1.422 -0.1183  0.1558 -1.0715
10529TIP3    H253003   2.746   2.754   1.388  0.1448  1.2256  0.1245
10530TIP3   OH253004   4.823   2.572  13.879 -0.4914  0.1136  0.3687
10530TIP3    H153005   4.883   2.580  13.953  0.3447 -0.9367 -0.1674
10530TIP3    H253006   4.853   2.637  13.816  0.4432 -0.7439 -0.1092
10531TIP3   OH253007   2.379   5.758  12.381 -0.2438  0.1757 -0.5878
10531TIP3    H153008   2.454   5.768  12.322  1.0198 -2.9140  0.3157
10531TIP3    H253009   2.307   5.802  12.336  1.5304  1.1997 -2.6045
10532TIP3   OH253010   4.760   0.729  11.632  0.3018  0.4988  0.5127
10532TIP3    H153011   4.802   0.815  11.630  2.2316 -0.4042  0.5580
10532TIP3    H253012   4.695   0.736  11.702 -1.1349  2.5613 -0.8774
10533TIP3   OH253013   0.358   6.014  13.206  0.3831  0.4848 -0.2290
10533TIP3    H153014   0.354   5.946  13.273  1.1443  0.9382  0.2744
10533TIP3    H253015   0.347   6.096  13.253 -0.0835  0.7526 -0.7863
10534TIP3   OH253016   3.698   5.872   3.950  0.0806 -0.3194 -0.1132
10534TIP3    H153017   3.711   5.962   3.918  0.3421 -0.2380  0.2176
10534TIP3    H253018   3.694   5.819   3.870 -0.3983  0.0252 -0.3243
10535TIP3   OH253019   2.833   5.981   3.227  0.0808  0.9450 -0.0854
10535TIP3    H153020   2.785   6.015   3.303 -1.1466  0.8560 -0.7997
10535TIP3    H253021   2.913   6.033   3.224  0.5856  0.3750  1.7794
10536TIP3   OH253022   6.583   2.113  15.953 -0.3705  0.4469  0.3408
10536TIP3    H153023   6.494   2.131  15.923 -0.6039 -0.0762  0.6956
10536TIP3    H253024   6.586   2.018  15.964  0.4080  0.3948 -0.2109
10537TIP3   OH253025   0.478   3.283  13.131 -0.5639 -0.5068  0.5974
10537TIP3    H153026   0.541   3.215  13.153 -1.1569  0.0088  4.4870
10537TIP3    H253027   0.392   3.243  13.144 -1.0330 -0.1015 -0.9757
10538TIP3   OH253028   5.053   3.761  13.463  0.2878  0.0457 -0.3039
10538TIP3    H153029   5.120   3.705  13.502 -0.1004  0.1498  0.5495
10538TIP3    H253030   5.095   3.801  13.387  1.7271  1.3356  1.1055
10539TIP3   OH253031   5.333   6.614   0.760  0.1252  0.4101  0.3637
10539TIP3    H153032   5.287   6.532   0.779 -1.0817  1.5876  3.0335
10539TIP3    H253033   5.263   6.674   0.733  0.6337  1.2109  0.8130
10540TIP3   OH253034   1.143   4.714  11.604  0.2608 -0.0387  0.1753
10540TIP3    H153035   1.207   4.683  11.668 -0.3311  0.2172  0.8943
10540TIP3    H253036   1.125   4.804  11.630 -1.2274 -0.4564  0.6469
10541TIP3   OH253037   0.625   0.416  11.456 -0.4159 -0.5998 -0.0839
10541TIP3    H153038   0.709   0.439  11.415 -0.3822 -0.4653  0.0565
10541TIP3    H253039   0.577   0.499  11.458 -1.5180 -1.1161 -2.3434
10542TIP3   OH253040   3.811   3.101   4.652 -0.0783 -0.2884 -0.1240
10542TIP3    H153041   3.810   3.115   4.557  1.4772  3.0094  0.1969
10542TIP3    H253042   3.896   3.060   4.669  0.1128  0.0974 -0.1134
10543TIP3   OH253043   4.712   3.159  11.993  0.3791  0.7488 -0.0936
10543TIP3    H153044   4.704   3.219  11.919 -1.2609  1.1373  0.3634
10543TIP3    H253045   4.706   3.072  11.954  0.8171  0.9196 -0.5548
10544TIP3   OH253046   4.028   3.013  16.647  0.0151  0.2775 -0.3021
10544TIP3    H153047   4.018   2.935  16.594  2.2794 -1.4327  1.5744
10544TIP3    H253048   3.939   3.033  16.677 -0.6534 -1.4121 -1.0307
10545TIP3   OH253049   1.414   4.473   2.438  0.0276 -0.2119  0.9213
10545TIP3    H153050   1.486   4.429   2.483  0.1764  0.7041  1.6063
10545TIP3    H253051   1.455   4.542   2.386 -0.1875 -0.9800 -0.2963
10546TIP3   OH253052   0.194   5.948  14.727 -0.0922  0.9354  0.1541
10546TIP3    H153053   0.220   6.028  14.773 -1.8363  2.9782 -2.1408
10546TIP3    H253054   0.241   5.952  14.643 -0.7299 -0.0821 -0.2747
10547TIP3   OH253055   1.661   3.965  15.274  0.5237 -0.8403  0.0645
10547TIP3    H153056   1.634   4.026  15.343 -2.5069 -0.3051 -1.4210
10547TIP3    H253057   1.724   4.015  15.222  0.4574 -0.1173  0.6566
10548TIP3   OH253058   1.742   3.135   0.074  1.0002 -0.1331 -0.0534
10548TIP3    H153059   1.764   3.043   0.087 -0.6095 -0.6277 -0.6152
10548TIP3    H253060   1.667   3.134   0.014 -0.5796  1.4061  1.7590
10549TIP3   OH253061   2.945   1.001  12.328 -0.1126  0.1857  0.5049
10549TIP3    H153062   2.874   0.945  12.297 -2.1118  2.4425  0.6650
10549TIP3    H253063   2.992   1.026  12.248 -0.6593  0.1356  0.1615
10550TIP3   OH253064   2.006   3.637   6.327 -0.1310  0.1865  0.1351
10550TIP3    H153065   1.984   3.654   6.418  0.6679  0.0383  0.3637
10550TIP3    H253066   1.974   3.714   6.280 -0.5709  0.2522  0.5305
10551TIP3   OH253067   2.268   4.641  14.887  0.2565  0.4185  0.1937
10551TIP3    H153068   2.242   4.643  14.979 -1.0740 -0.3383 -0.1454
10551TIP3    H253069   2.318   4.560  14.878  1.6321  1.1892  0.5337
10552TIP3   OH253070   0.383   5.387   5.883 -1.0185 -0.3646  0.4276
10552TIP3    H153071   0.348   5.298   5.890  0.1319 -0.8618  0.1025
10552TIP3    H253072   0.367   5.426   5.969 -1.9192 -0.7378  0.4347
10553TIP3   OH253073   1.370   4.429  17.073  0.2504 -0.1216 -0.0754
10553TIP3    H153074   1.402   4.338  17.068 -0.5950 -0.4298  0.0242
10553TIP3    H253075   1.292   4.424  17.127  0.4434  0.7444  0.2911
10554TIP3   OH253076   4.363   0.070   3.018 -0.5956 -0.0435 -0.1726
10554TIP3    H153077   4.381   0.083   3.111  1.8697 -0.3067 -0.5507
10554TIP3    H253078   4.269   0.051   3.014 -0.9109  0.7709  2.1497
10555TIP3   OH253079   3.751   1.811  14.990  0.7918  0.1888  0.1776
10555TIP3    H153080   3.735   1.745  15.057  1.8845  0.0629  0.3373
10555TIP3    H253081   3.746   1.763  14.907  1.3276 -0.0572  0.2811
10556TIP3   OH253082   4.838   0.929  17.358  0.6022 -0.7965 -0.0402
10556TIP3    H153083   4.896   0.918  17.282  0.5908  0.4478 -0.2423
10556TIP3    H253084   4.874   1.003  17.406 -0.0133 -0.8959  0.5979
10557TIP3   OH253085   3.526   1.162  16.320  0.0387 -0.2915  0.0725
10557TIP3    H153086   3.527   1.112  16.402 -0.5678 -1.6439 -0.7036
10557TIP3    H253087   3.569   1.245  16.342 -2.0642  0.3224  2.3183
10558TIP3   OH253088   0.564   5.909  12.492 -0.1166  0.0289 -0.2314
10558TIP3    H153089   0.607   5.824  12.482  0.4737  0.2998 -0.0867
10558TIP3    H253090   0.562   5.924  12.586  1.3496  0.9247 -0.2984
10559TIP3   OH253091   3.275   4.218  12.462  0.6818 -0.1315  0.0452
10559TIP3    H153092   3.198   4.187  12.415  0.2710  1.9144 -0.7604
10559TIP3    H253093   3.335   4.247  12.393  1.2454  0.3140  0.7058
10560TIP3   OH253094   4.348   0.763   5.857  0.2085 -0.4660  0.6320
10560TIP3    H153095   4.268   0.762   5.805  0.1975  1.9990  0.5112
10560TIP3    H253096   4.381   0.853   5.851  1.3187 -0.5875  3.2068
10561TIP3   OH253097   3.285   5.971  12.131  0.3815 -0.1599  0.1545
10561TIP3    H153098   3.291   6.063  12.158  0.0085  0.1555 -0.7603
10561TIP3    H253099   3.272   5.922  12.212 -0.8472  0.7465  0.5424
10562TIP3   OH253100   1.074   4.579  13.658 -0.7778  0.3127 -0.4009
10562TIP3    H153101   1.072   4.643  13.729  0.1256  0.6322 -0.6579
10562TIP3    H253102   1.070   4.494  13.702 -3.5616  0.4900 -0.0988
10563TIP3   OH253103   0.963   6.146  13.044 -0.2026 -0.1189 -0.2253
10563TIP3    H153104   1.021   6.097  13.103 -1.1681 -1.6698 -0.5209
10563TIP3    H253105   0.883   6.159  13.095 -0.0117  1.0608 -0.2048
10564TIP3   OH253106   5.642   3.414  11.324 -0.2473 -0.1866  0.4508
10564TIP3    H153107   5.636   3.506  11.349 -1.1283 -0.2020  0.3399
10564TIP3    H253108   5.721   3.382  11.367 -0.1065  0.5425  0.7478
10565TIP3   OH253109   1.809   6.254   6.949 -0.7043  0.0681  0.1568
10565TIP3    H153110   1.784   6.343   6.973 -0.6116  0.0844  0.1964
10565TIP3    H253111   1.905   6.257   6.943 -0.8313  0.6538 -2.5615
10566TIP3   OH253112   5.126   6.528   5.860 -0.2103 -0.1726 -0.1958
10566TIP3    H153113   5.143   6.553   5.769 -2.4583 -1.6838 -1.1225
10566TIP3    H253114   5.150   6.436   5.865 -4.0891 -1.3667 -0.5958
10567TIP3   OH253115   3.054   0.042   6.416 -0.0315  0.3604  0.6439
10567TIP3    H153116   3.090  -0.044   6.395  0.6573  0.7300  0.2710
10567TIP3    H253117   2.982   0.024   6.476  0.0224 -0.4844  0.4642
10568TIP3   OH253118   1.212   1.264  12.011 -0.0256  0.4509 -0.4504
10568TIP3    H153119   1.252   1.215  12.082  0.6498  0.8710 -0.5244
10568TIP3    H253120   1.246   1.353  12.022 -0.2614  0.6156 -1.0313
10569TIP3   OH253121   0.739   0.060  13.316  0.1988 -0.3280  0.4415
10569TIP3    H153122   0.825   0.048  13.275 -0.4472 -1.8492 -0.5242
10569TIP3    H253123   0.684  -0.008  13.277 -1.2130  0.0430  1.7163
10570TIP3   OH253124   1.077   2.416   2.753  0.2434 -0.3033 -0.5355
10570TIP3    H153125   1.172   2.419   2.743  0.2022  2.6119 -0.8311
10570TIP3    H253126   1.063   2.364   2.832  2.0812 -0.5663 -0.3364
10571TIP3   OH253127   5.304   4.581  15.237  0.4238 -0.1449  0.3773
10571TIP3    H153128   5.291   4.675  15.241  1.1709 -0.0626  1.3616
10571TIP3    H253129   5.395   4.568  15.262 -0.0652 -1.2128  1.7883
10572TIP3   OH253130   0.503   0.428   3.418  0.0585  0.3178  0.3423
10572TIP3    H153131   0.544   0.436   3.332  0.2261  3.0509  0.5879
10572TIP3    H253132   0.452   0.508   3.427  0.1655  0.1586  2.8554
10573TIP3   OH253133   5.368   6.390  14.956 -0.5137  0.9630  0.2314
10573TIP3    H153134   5.402   6.332  14.887 -0.4970  0.7628  0.4061
10573TIP3    H253135   5.419   6.470  14.948 -1.3275  1.4057 -0.7839
10574TIP3   OH253136   5.592   2.935   2.436 -0.4160 -1.2404 -0.4122
10574TIP3    H153137   5.607   2.945   2.342  1.0256 -0.5540 -0.1440
10574TIP3    H253138   5.583   2.841   2.449 -2.1544 -1.2611 -1.4108
10575TIP3   OH253139   3.196   4.786   6.156 -0.5324  0.1806 -0.1388
10575TIP3    H153140   3.204   4.878   6.182 -1.0444 -0.2264  1.5888
10575TIP3    H253141   3.102   4.768   6.157 -0.4378 -0.3601 -0.4539
10576TIP3   OH253142   4.057   0.882   2.367 -0.1387 -0.0112 -0.2677
10576TIP3    H153143   3.962   0.892   2.352  0.1194  0.1416 -2.0654
10576TIP3    H253144   4.066   0.794   2.402 -0.9719  0.0781  0.2076
10577TIP3   OH253145   4.456   2.788  10.938  0.2069 -0.5173 -0.8902
10577TIP3    H153146   4.452   2.869  10.987 -3.0862 -1.5767  0.9088
10577TIP3    H253147   4.549   2.774  10.920  0.9505  3.0551 -0.4018
10578TIP3   OH253148   6.413   3.510  13.133  0.0753  0.1551  0.3321
10578TIP3    H153149   6.463   3.591  13.138 -0.8407  0.6607  1.8786
10578TIP3    H253150   6.477   3.441  13.152  0.8100  0.5091 -0.7751
10579TIP3   OH253151   3.840   0.045   6.152  0.0739  0.0809  0.1001
10579TIP3    H153152   3.827   0.128   6.197  2.0574  0.1903  0.5825
10579TIP3    H253153   3.837   0.068   6.059 -0.9629  0.3974  0.2030
10580TIP3   OH253154   4.719   2.522  11.372 -0.6934 -0.3140 -0.1997
10580TIP3    H153155   4.657   2.577  11.325 -0.8872  0.3961  0.8559
10580TIP3    H253156   4.790   2.506  11.310 -0.8346  0.7872 -0.6617
10581TIP3   OH253157   4.021   4.653   3.429 -0.5545  0.6103 -0.2097
10581TIP3    H153158   3.962   4.722   3.399 -0.3300  1.4914  1.2628
10581TIP3    H253159   4.062   4.689   3.508 -1.8195 -1.9142  1.7353
10582TIP3   OH253160   3.464   2.099  11.814 -0.4221  0.1578  0.5720
10582TIP3    H153161   3.464   2.065  11.725  0.6232  1.8872 -0.1452
10582TIP3    H253162   3.499   2.027  11.867  0.4113 -0.3708 -0.6502
10583TIP3   OH253163   0.407   6.524   5.658  0.2355  0.4787  0.1457
10583TIP3    H153164   0.313   6.505   5.656  0.3586 -0.2331 -2.5570
10583TIP3    H253165   0.447   6.448   5.700 -0.2047 -0.4293 -1.0387
10584TIP3   OH253166   1.305   0.369  14.779  0.0771 -0.1721  0.2667
10584TIP3    H153167   1.247   0.380  14.854  0.7946  1.9067  0.6022
10584TIP3    H253168   1.382   0.324  14.814  0.4154  0.8013  0.8192
10585TIP3   OH253169   1.055   3.279  13.624 -0.3008  0.5290 -0.1451
10585TIP3    H153170   1.017   3.251  13.708 -1.4736 -0.7941 -1.0642
10585TIP3    H253171   1.117   3.210  13.603  0.3076  1.0806 -0.1734
10586TIP3   OH253172   3.303   2.353   1.639 -0.4433  0.6680 -0.2264
10586TIP3    H153173   3.393   2.357   1.670 -0.6680 -2.6965  1.2629
10586TIP3    H253174   3.267   2.439   1.659  1.8052  1.3653  1.1902
10587TIP3   OH253175   3.443   1.583  13.816  0.0615  0.3483 -0.4909
10587TIP3    H153176   3.397   1.527  13.754  0.6787  0.0345 -0.6696
10587TIP3    H253177   3.377   1.605  13.882  0.0351 -1.3805  0.1181
10588TIP3   OH253178   4.478   2.308   4.568  0.3131 -0.2055 -0.0956
10588TIP3    H153179   4.511   2.363   4.496  0.7158  2.5973  2.0384
10588TIP3    H253180   4.383   2.315   4.561  0.3117 -0.9024 -0.9877
10589TIP3   OH253181   5.393   0.226   0.661  0.4341  0.2098 -0.1101
10589TIP3    H153182   5.398   0.136   0.692 -1.8315  0.5790  1.5657
10589TIP3    H253183   5.391   0.219   0.566  0.9561 -1.4465 -0.0302
10590TIP3   OH253184   2.638   0.640   2.347  0.4173 -0.2904 -0.5122
10590TIP3    H153185   2.608   0.555   2.377 -0.6202  0.7124  1.5229
10590TIP3    H253186   2.632   0.696   2.425 -2.6554  2.6255 -2.6003
10591TIP3   OH253187   0.069   4.430   5.790 -0.0706 -0.1256 -0.2270
10591TIP3    H153188   0.146   4.485   5.776 -0.3676  0.4275  0.2565
10591TIP3    H253189   0.104   4.342   5.800  0.3699 -0.1111 -1.5207
10592TIP3   OH253190   4.134   3.750  16.606  0.2872  0.0628  0.3452
10592TIP3    H153191   4.192   3.792  16.542  0.5290  0.5708  0.8912
10592TIP3    H253192   4.078   3.693  16.553  2.6131 -2.0696 -0.0464
10593TIP3   OH253193   6.622   0.143  16.870  0.7258 -0.2785  0.3768
10593TIP3    H153194   6.611   0.224  16.920 -0.1636 -1.3601  2.0365
10593TIP3    H253195   6.696   0.099  16.911  0.2857 -0.9665  0.4500
10594TIP3   OH253196   2.303   6.567  12.996 -0.6454  0.3404 -0.1518
10594TIP3    H153197   2.356   6.574  12.917 -1.2310 -0.5992 -0.6363
10594TIP3    H253198   2.225   6.519  12.969 -0.6522 -0.3883  1.0926
10595TIP3   OH253199   0.578   1.403   3.219  0.9035  0.9326  0.2630
10595TIP3    H153200   0.536   1.484   3.191  0.0829 -0.4209 -2.9159
10595TIP3    H253201   0.668   1.410   3.187  0.5931  0.2848 -0.7928
10596TIP3   OH253202   6.339   5.650   4.663  0.4481 -0.1183 -0.9435
10596TIP3    H153203   6.256   5.697   4.663  0.8103  0.9383  3.3435
10596TIP3    H253204   6.320   5.567   4.706  1.3771 -0.4222 -1.0849
10597TIP3   OH253205   3.103   3.117  17.281 -0.6672 -0.0017 -0.1870
10597TIP3    H153206   3.013   3.097  17.307 -1.1312  1.1315 -0.8597
10597TIP3    H253207   3.138   3.034  17.249 -0.6902 -1.0120  2.2024
10598TIP3   OH253208   5.504   1.724  14.620  0.1203  0.5292  0.2476
10598TIP3    H153209   5.544   1.728  14.533  0.4300  0.2916  0.3792
10598TIP3    H253210   5.492   1.815  14.645 -1.7263  0.6343 -0.8483
10599TIP3   OH253211   0.600   4.938   0.989 -0.6191  0.2270  0.0968
10599TIP3    H153212   0.516   4.902   0.960  0.3652 -2.3937  0.1706
10599TIP3    H253213   0.626   4.880   1.061  0.6898  1.7392  0.8901
10600TIP3   OH253214   6.005   4.578   1.975 -0.1701 -0.3483 -0.3033
10600TIP3    H153215   6.072   4.525   1.932  0.4114  1.0439 -1.1770
10600TIP3    H253216   6.014   4.557   2.068  2.6205  0.9531 -0.1625
10601TIP3   OH253217   2.183   1.874  11.786  0.0478  0.7109  0.2019
10601TIP3    H153218   2.268   1.897  11.749 -0.1835 -0.2155 -0.9945
10601TIP3    H253219   2.129   1.952  11.774  0.3171  0.8070 -0.4059
10602TIP3   OH253220   4.790   1.368   5.692 -0.1251  0.2040 -0.4061
10602TIP3    H153221   4.801   1.457   5.724  1.0131 -0.3137  0.7377
10602TIP3    H253222   4.714   1.335   5.739 -0.4291  0.5069 -0.6842
10603TIP3   OH253223   2.794   2.803   0.219  0.0396  0.4557  0.4648
10603TIP3    H153224   2.766   2.726   0.168 -1.0999  1.2381 -0.1222
10603TIP3    H253225   2.843   2.856   0.156 -1.7222  1.6231  0.0197
10604TIP3   OH253226   2.670   6.703   4.869 -0.0738  0.1593 -0.5844
10604TIP3    H153227   2.577   6.691   4.888 -0.1096  1.0287 -0.1527
10604TIP3    H253228   2.706   6.738   4.950  0.3356  1.2177 -1.2001
10605TIP3   OH253229   5.840   5.563  12.554  0.4820  0.1227 -0.1808
10605TIP3    H153230   5.756   5.606  12.541  1.1109  1.8465  1.0726
10605TIP3    H253231   5.818   5.485  12.606 -0.5453 -0.6236 -1.6356
10606TIP3   OH253232   3.295   6.611  12.740 -0.0403  0.1291  1.0494
10606TIP3    H153233   3.332   6.542  12.796  1.6579 -0.3525 -0.5537
10606TIP3    H253234   3.368   6.669  12.723 -1.0485  1.4059  0.9653
10607TIP3   OH253235   2.803   6.091  14.301 -0.3569  0.2730 -0.5572
10607TIP3    H153236   2.785   6.138  14.382  0.1982 -0.3268 -0.0751
10607TIP3    H253237   2.827   6.003  14.329 -0.1452  0.0605 -1.3701
10608TIP3   OH253238   6.730   1.159  16.204  0.2997 -0.2975  0.1468
10608TIP3    H153239   6.721   1.104  16.127  0.0198  0.0419 -0.0670
10608TIP3    H253240   6.644   1.198  16.217  0.2467 -0.6314  0.8489
10609TIP3   OH253241   5.044   4.850   0.075  0.2561  0.3345  0.4831
10609TIP3    H153242   5.138   4.836   0.059  0.1483  0.6469 -0.4931
10609TIP3    H253243   5.004   4.838  -0.011 -0.7112 -0.6307  1.0490
10610TIP3   OH253244   1.843   1.659  12.447 -0.7921  0.3351  0.2670
10610TIP3    H153245   1.939   1.658  12.442 -0.8105  1.1798 -0.4790
10610TIP3    H253246   1.821   1.751  12.455 -1.5179  0.0818  1.2618
10611TIP3   OH253247   0.548   3.203   2.185  0.1534  0.3857 -0.3392
10611TIP3    H153248   0.531   3.152   2.265  2.7349 -0.9196 -0.5418
10611TIP3    H253249   0.494   3.161   2.118  1.0100 -1.0932 -0.1355
10612TIP3   OH253250   5.456   4.479   4.995  0.0120  0.6048  0.0920
10612TIP3    H153251   5.404   4.549   4.957 -0.7749  0.3736  0.7171
10612TIP3    H253252   5.538   4.481   4.946 -0.3801  1.3103 -0.5608
10613TIP3   OH253253   0.861   0.177  11.870  0.4445 -0.0487  0.4276
10613TIP3    H153254   0.863   0.252  11.929 -1.4313  0.3921 -0.0053
10613TIP3    H253255   0.778   0.186  11.822  0.7733 -1.7093 -0.5421
10614TIP3   OH253256   4.344   6.535  15.727  0.3685 -0.1922  0.2505
10614TIP3    H153257   4.351   6.440  15.734  0.9376 -0.0734  1.4708
10614TIP3    H253258   4.250   6.552  15.729  0.2397 -0.7524 -0.5276
10615TIP3   OH253259   6.320   3.414   4.296  0.1567 -0.1748 -0.3304
10615TIP3    H153260   6.371   3.429   4.217  0.1443 -0.5733 -0.4156
10615TIP3    H253261   6.370   3.348   4.345  0.7191  0.8298  0.5016
10616TIP3   OH253262   4.598   1.037  12.445  0.0372  0.0505  0.5903
10616TIP3    H153263   4.557   0.967  12.496 -1.5006 -0.1397 -0.8374
10616TIP3    H253264   4.690   1.010  12.437 -0.0306 -0.6777  1.9145
10617TIP3   OH253265   2.186   3.278  12.158 -0.2067  0.4900 -0.2519
10617TIP3    H153266   2.118   3.346  12.157 -0.7215 -0.0242 -0.6382
10617TIP3    H253267   2.266   3.324  12.135 -0.1763  1.3531  1.4375
10618TIP3   OH253268   3.768   6.618  10.667 -0.6236 -0.0179  0.1641
10618TIP3    H153269   3.836   6.555  10.642 -0.9960  0.1349 -1.3130
10618TIP3    H253270   3.741   6.658  10.584 -1.2962  1.1716  0.9306
10619TIP3   OH253271   3.709   1.259   5.186  0.4506  0.2402  0.3909
10619TIP3    H153272   3.753   1.174   5.194 -0.2060  0.0737  3.1227
10619TIP3    H253273   3.735   1.307   5.264 -0.5965  1.9136 -0.2347
10620TIP3   OH253274   5.683   0.164   1.395  0.7676  0.4995 -0.4150
10620TIP3    H153275   5.692   0.138   1.303  1.8280  0.6847 -0.3780
10620TIP3    H253276   5.591   0.187   1.405  0.2331 -1.2190 -0.9901
10621TIP3   OH253277   2.613   1.990  15.511  0.5126 -0.1937  0.5828
10621TIP3    H153278   2.596   2.040  15.591 -0.9499  0.1181  0.1083
10621TIP3    H253279   2.531   1.944  15.494  0.2889  0.8564 -1.5255
10622TIP3   OH253280   2.552   2.207  12.601 -0.4513  0.1904 -0.3688
10622TIP3    H153281   2.623   2.167  12.551  0.1377  0.9375 -0.1459
10622TIP3    H253282   2.481   2.143  12.597  1.0557 -1.7218  1.4830
10623TIP3   OH253283   5.969   6.136   3.646  0.4603  0.2844  0.8242
10623TIP3    H153284   5.955   6.173   3.733  0.0576 -2.7920  2.1995
10623TIP3    H253285   5.896   6.077   3.633  1.4520 -0.6460 -0.8296
10624TIP3   OH253286   0.665   6.714   4.880  0.9206 -0.3271 -0.4266
10624TIP3    H153287   0.738   6.776   4.887  0.4043  0.1895  0.5938
10624TIP3    H253288   0.587   6.769   4.880  0.4576 -0.9659  0.5278
10625TIP3   OH253289   0.315   1.502   0.106  0.8127 -0.7952  0.0410
10625TIP3    H153290   0.225   1.470   0.112  1.0346 -1.2884  0.9202
10625TIP3    H253291   0.307   1.597   0.115  0.1552 -0.5490 -2.5199
10626TIP3   OH253292   0.867   6.537  16.619 -0.1802 -0.3476 -0.3647
10626TIP3    H153293   0.832   6.622  16.593 -1.2137  0.7915  3.9308
10626TIP3    H253294   0.962   6.547  16.613 -0.1262  2.2213  2.4937
10627TIP3   OH253295   2.287   3.582  10.891 -0.3646  0.2084 -0.2522
10627TIP3    H153296   2.327   3.625  10.815  0.5019  0.8510  0.5480
10627TIP3    H253297   2.196   3.610  10.889 -0.3416  0.2650 -1.0171
10628TIP3   OH253298   6.152   4.799   3.781  0.3092 -0.4509  0.1832
10628TIP3    H153299   6.240   4.776   3.811  0.2948  1.2767  1.6663
10628TIP3    H253300   6.164   4.877   3.727 -0.3353 -0.0646  0.5859
10629TIP3   OH253301   5.003   1.478   5.012 -0.1963 -0.1564 -0.4206
10629TIP3    H153302   4.929   1.510   4.961 -0.8498 -0.3839  0.3620
10629TIP3    H253303   5.080   1.498   4.959 -0.7265  1.1561 -0.7241
10630TIP3   OH253304   1.801   2.174   1.398 -0.0431  0.0777  0.0623
10630TIP3    H153305   1.768   2.203   1.483 -1.0117 -0.3311 -0.1685
10630TIP3    H253306   1.879   2.122   1.420 -0.2417  0.0346  0.6949
10631TIP3   OH253307   5.171   1.696   2.569 -0.6163 -0.1774 -0.2304
10631TIP3    H153308   5.096   1.754   2.558  0.1767  0.6709 -1.4316
10631TIP3    H253309   5.247   1.754   2.566  0.1111 -1.0523  0.6394
10632TIP3   OH253310   2.843   0.850   1.945 -0.1351  0.6483 -0.8421
10632TIP3    H153311   2.841   0.894   2.029 -0.9953 -1.8379  0.5349
10632TIP3    H253312   2.918   0.790   1.951 -1.1999 -0.7596 -1.1427
10633TIP3   OH253313   0.644   2.229   1.155  1.2446  0.3434  0.5941
10633TIP3    H153314   0.629   2.241   1.249 -0.1103  1.9540  0.2094
10633TIP3    H253315   0.721   2.282   1.136  0.3585  1.6280  0.4709
10634TIP3   OH253316   3.192   3.318  15.357 -0.8274 -0.7096 -0.2061
10634TIP3    H153317   3.223   3.375  15.286 -0.6237 -0.9142 -0.2803
10634TIP3    H253318   3.110   3.359  15.386 -0.9914 -0.7106 -0.6649
10635TIP3   OH253319   2.601   2.160   0.826 -0.1327  0.7547 -0.5084
10635TIP3    H153320   2.555   2.076   0.825 -0.1618  0.6134  2.3695
10635TIP3    H253321   2.645   2.165   0.741  0.1733 -2.3543 -0.6519
10636TIP3   OH253322   5.730   3.411  16.571  0.5306  0.7122 -0.2215
10636TIP3    H153323   5.758   3.322  16.548 -0.9531  0.3760 -0.8101
10636TIP3    H253324   5.636   3.404  16.585  0.4815  2.0919  0.3052
10637TIP3   OH253325   4.771   1.286  16.458 -0.0655 -0.1162 -0.0849
10637TIP3    H153326   4.848   1.332  16.426 -0.7906  1.8984  0.8390
10637TIP3    H253327   4.782   1.283  16.553 -1.4153  0.8717  0.1377
10638TIP3   OH253328   4.860   6.639   1.519 -0.1791  0.5186  0.2901
10638TIP3    H153329   4.831   6.560   1.473 -0.6323  1.2240 -0.6840
10638TIP3    H253330   4.889   6.608   1.605  0.1244 -0.7670 -0.2476
10639TIP3   OH253331   2.229   1.208  17.308  0.3234  0.3263 -0.4095
10639TIP3    H153332   2.323   1.228  17.315  0.0962  1.3446 -0.0974
10639TIP3    H253333   2.217   1.129  17.361  0.7126  1.1747  0.9747
10640TIP3   OH253334   6.142   0.108   0.310 -0.4216 -0.1357 -0.0243
10640TIP3    H153335   6.227   0.148   0.329 -1.1017  1.4155 -0.1246
10640TIP3    H253336   6.095   0.173   0.258 -2.0063 -0.5755  0.7739
10641TIP3   OH253337   1.963   1.781  13.701  0.5128 -0.1264 -0.2145
10641TIP3    H153338   1.998   1.853  13.755  0.0941 -0.3685  0.3831
10641TIP3    H253339   1.879   1.761  13.740  1.9922 -3.1967  1.7409
10642TIP3   OH253340   4.781   2.686   3.527  0.6773  0.5544  0.4263
10642TIP3    H153341   4.844   2.758   3.525  0.4201  0.7655 -1.6450
10642TIP3    H253342   4.771   2.666   3.620  0.9223  3.0299  1.0579
10643TIP3   OH253343   0.204   0.880  14.818 -0.0701 -0.5961  0.9430
10643TIP3    H153344   0.118   0.862  14.779 -0.4476  1.1370  0.8920
10643TIP3    H253345   0.184   0.924  14.901  0.7575  0.5987  0.5327
10644TIP3   OH253346   3.838   1.843   5.305  0.1225  0.0867  0.3613
10644TIP3    H153347   3.766   1.800   5.351 -0.7802 -0.5452 -1.5570
10644TIP3    H253348   3.888   1.886   5.374 -1.3295 -0.5712  1.8848
10645TIP3   OH253349   2.643   3.005   5.168 -0.2030  0.2285  0.2333
10645TIP3    H153350   2.630   2.946   5.093 -0.8024  0.0419  0.4844
10645TIP3    H253351   2.586   3.080   5.150  1.4332  1.3185 -0.6806
10646TIP3   OH253352   4.521   2.747   3.431 -0.1190  0.0683 -0.2929
10646TIP3    H153353   4.612   2.738   3.460 -0.9171 -1.5279  1.9326
10646TIP3    H253354   4.478   2.667   3.460 -2.7185  1.6507  0.5395
10647TIP3   OH253355   5.159   3.868   3.402 -0.5041  0.1574  0.6195
10647TIP3    H153356   5.118   3.950   3.374 -2.2000 -0.2352  1.8139
10647TIP3    H253357   5.172   3.878   3.496  0.8384 -0.3196  0.5063
10648TIP3   OH253358   1.436   0.007   1.542 -0.0867 -0.3659 -0.3653
10648TIP3    H153359   1.494   0.016   1.617  1.1369  1.5563 -1.4449
10648TIP3    H253360   1.376  -0.063   1.566  1.4780 -1.1306  1.5836
10649TIP3   OH253361   1.824   3.491  14.091  0.1885  0.2193  0.2377
10649TIP3    H153362   1.893   3.540  14.135  0.3783  1.3580 -1.2484
10649TIP3    H253363   1.854   3.481  14.001 -0.3932 -1.6424  0.2022
10650TIP3   OH253364   0.792   2.603   0.653  0.3142  0.2346 -0.4627
10650TIP3    H153365   0.766   2.610   0.562 -0.3207  0.4785 -0.2697
10650TIP3    H253366   0.717   2.638   0.702  0.7149  0.2647  0.1396
10651TIP3   OH253367   5.146   2.903   0.254 -0.3640  0.0053  0.6761
10651TIP3    H153368   5.107   2.821   0.285  0.8674 -0.3906  1.2619
10651TIP3    H253369   5.079   2.943   0.200 -0.2847 -2.3794 -1.3344
10652TIP3   OH253370   4.560   1.717  13.789 -0.5867  0.4397  0.1606
10652TIP3    H153371   4.519   1.786  13.840  1.3823  1.3106  0.6755
10652TIP3    H253372   4.508   1.639  13.807 -2.4253  1.6052  0.1494
10653TIP3   OH253373   1.347   2.818   3.450 -0.0349 -0.0056 -0.1947
10653TIP3    H153374   1.388   2.767   3.520  2.1845  0.1899 -1.2568
10653TIP3    H253375   1.296   2.754   3.401  2.3270 -1.2357 -1.2358
10654TIP3   OH253376   4.787   0.568  15.325 -0.4078 -0.2439  0.6773
10654TIP3    H153377   4.788   0.634  15.255 -0.6269 -1.9600 -1.0361
10654TIP3    H253378   4.700   0.527  15.318  0.2917 -1.7901  0.5750
10655TIP3   OH253379   1.135   0.110  12.099  0.3678 -0.5894  0.3112
10655TIP3    H153380   1.108   0.148  12.182 -0.5278  0.1448 -0.2881
10655TIP3    H253381   1.228   0.135  12.090 -0.3318  2.1561 -0.3682
10656TIP3   OH253382   4.085   1.333   0.529  0.2709  0.4939  0.0232
10656TIP3    H153383   4.034   1.340   0.610  1.3192  0.9179  0.6672
10656TIP3    H253384   4.133   1.251   0.537  1.5244  1.2368  0.5523
10657TIP3   OH253385   1.241   0.609   1.092 -0.7208 -0.1285 -0.5672
10657TIP3    H153386   1.224   0.672   1.162  1.7299  1.1289 -0.9867
10657TIP3    H253387   1.318   0.561   1.121  0.0595  0.0939 -2.1264
10658TIP3   OH253388   4.758   0.329   3.885 -0.3604 -0.7982  0.6802
10658TIP3    H153389   4.706   0.388   3.830 -0.0242  1.0232  2.2008
10658TIP3    H253390   4.701   0.310   3.960  0.6369  0.1406  1.7059
10659TIP3   OH253391   6.004   6.581   6.153  0.4735  0.4704  0.5821
10659TIP3    H153392   6.100   6.587   6.155  0.5131 -0.1365  0.6170
10659TIP3    H253393   5.979   6.568   6.244  0.4079 -0.0499  0.4928
10660TIP3   OH253394   5.018   6.609  13.070  0.1416 -0.5849 -0.2531
10660TIP3    H153395   4.953   6.545  13.099 -0.2215 -1.2698 -2.4314
10660TIP3    H253396   4.969   6.670  13.015  0.8741  0.4374  0.1913
10661TIP3   OH253397   2.667   6.366   4.075 -0.0064 -0.1295  0.5264
10661TIP3    H153398   2.573   6.379   4.081  0.2644  2.4315  0.3254
10661TIP3    H253399   2.705   6.451   4.096  2.2357 -0.7754 -0.5348
10662TIP3   OH253400   6.177   1.831  10.841  0.1261  0.3118  0.2093
10662TIP3    H153401   6.195   1.803  10.751 -1.3212 -0.6160  0.1681
10662TIP3    H253402   6.196   1.754  10.894  0.2667  0.6257  0.6165
10663TIP3   OH253403   6.059   3.839  14.329 -0.6910 -0.2050 -0.4177
10663TIP3    H153404   5.987   3.860  14.269 -1.1224 -1.7591 -0.4934
10663TIP3    H253405   6.031   3.875  14.413  0.0206  2.1840 -1.1320
10664TIP3   OH253406   1.191   0.206  15.812 -0.1084 -0.5952  0.3807
10664TIP3    H153407   1.188   0.122  15.767 -0.5392  0.7223 -2.2662
10664TIP3    H253408   1.099   0.233  15.817  0.0782  0.0190  0.6086
10665TIP3   OH253409   3.364   2.405   4.200  0.1912  0.2214  0.4907
10665TIP3    H153410   3.455   2.409   4.169  0.0706  2.0167  0.2884
10665TIP3    H253411   3.331   2.324   4.162  1.3126  0.2293 -0.6031
10666TIP3   OH253412   0.581   4.744   5.066  0.4692  0.2513 -0.3143
10666TIP3    H153413   0.586   4.806   5.138  1.5359  0.4839 -0.5753
10666TIP3    H253414   0.540   4.666   5.105 -2.1781  1.5380 -0.3181
10667TIP3   OH253415   2.126   6.684   6.442 -0.2568 -0.9171  0.2591
10667TIP3    H153416   2.099   6.763   6.489 -0.9219 -0.9411 -0.0647
10667TIP3    H253417   2.217   6.671   6.467 -0.8546 -1.5108  2.3530
10668TIP3   OH253418   1.025   3.756   5.002  0.3676  0.3259 -0.9373
10668TIP3    H153419   1.110   3.744   4.959  0.4820  2.7754 -1.5564
10668TIP3    H253420   0.970   3.796   4.935 -0.6013  0.7761  0.0933
10669TIP3   OH253421   6.622   3.840  13.911 -0.2490  0.4413  0.1627
10669TIP3    H153422   6.600   3.805  13.825 -2.2363  1.2510  0.2894
10669TIP3    H253423   6.542   3.830  13.962 -0.0366  2.6163  1.0308
10670TIP3   OH253424   3.356   5.043   0.002 -0.0844  0.2227  0.6108
10670TIP3    H153425   3.326   4.952  -0.009 -3.1107  1.0230  1.3469
10670TIP3    H253426   3.389   5.047   0.091  0.4012 -0.2169  0.4576
10671TIP3   OH253427   6.298   3.549  15.299 -0.2777  0.4444  0.0761
10671TIP3    H153428   6.363   3.550  15.369 -0.2835 -1.8747  0.2037
10671TIP3    H253429   6.283   3.456  15.282  0.1024  0.8919 -3.3865
10672TIP3   OH253430   4.063   2.197   0.913  0.7701 -0.4118  0.3734
10672TIP3    H153431   4.019   2.128   0.863  1.1853 -1.2458  1.1242
10672TIP3    H253432   4.147   2.158   0.938  1.4682  0.7618 -0.0952
10673TIP3   OH253433   2.325   4.703  16.183  0.1268 -0.3103 -0.1573
10673TIP3    H153434   2.421   4.700  16.188  0.1704 -0.4322 -1.0221
10673TIP3    H253435   2.303   4.654  16.104 -0.7349 -1.5634  0.8169
10674TIP3   OH253436   4.827   4.010  13.205 -0.4120 -0.0809 -0.4176
10674TIP3    H153437   4.814   3.917  13.222 -1.8554 -0.1686 -1.7510
10674TIP3    H253438   4.799   4.053  13.286 -1.2762 -0.7397 -0.3468
10675TIP3   OH253439   2.194   3.703   5.486  0.6307 -0.0285  0.2159
10675TIP3    H153440   2.159   3.617   5.511  1.0916 -0.6359 -1.1465
10675TIP3    H253441   2.289   3.691   5.486  0.7110  0.5848  0.3274
10676TIP3   OH253442   4.889   5.169   3.954 -0.2735  0.3374  0.2180
10676TIP3    H153443   4.871   5.261   3.972  0.2110  0.3771  0.5164
10676TIP3    H253444   4.848   5.153   3.869 -0.9874  0.6335  0.5022
10677TIP3   OH253445   3.009   0.771   4.927  0.3657 -0.3027  0.6297
10677TIP3    H153446   3.047   0.748   5.012  1.5780  0.1991  0.2368
10677TIP3    H253447   3.061   0.723   4.863  1.1251  1.2776  0.0041
10678TIP3   OH253448   3.802   5.873   0.683  0.3895  0.5212 -0.0955
10678TIP3    H153449   3.879   5.914   0.643  2.0993 -0.7741  1.6299
10678TIP3    H253450   3.772   5.810   0.618  1.3537  0.4238 -0.4609
10679TIP3   OH253451   4.271   0.947   5.294  0.3152 -1.0371 -0.0565
10679TIP3    H153452   4.207   0.998   5.243  0.5602  0.6042  1.1834
10679TIP3    H253453   4.256   0.857   5.267 -2.3697 -0.7014 -0.0041
10680TIP3   OH253454   2.440   4.000   2.052  0.0460 -0.3266 -0.3392
10680TIP3    H153455   2.399   4.050   2.122  1.3288  0.6254 -0.2334
10680TIP3    H253456   2.370   3.945   2.018 -1.1571  0.8171  0.2035
10681TIP3   OH253457   5.948   6.102  11.170  0.7818 -0.5088  0.4850
10681TIP3    H153458   6.000   6.071  11.245  0.5983  0.0929  0.8660
10681TIP3    H253459   5.971   6.194  11.161 -0.2962 -0.1937  0.7375
10682TIP3   OH253460   0.636   5.837   5.675  0.1586 -0.8388 -0.0265
10682TIP3    H153461   0.577   5.841   5.600 -1.0161 -2.3635  0.7421
10682TIP3    H253462   0.709   5.895   5.652 -0.4131 -0.8584 -2.0884
10683TIP3   OH253463   5.904   5.779  16.863  0.2334  0.5300  0.4391
10683TIP3    H153464   5.825   5.763  16.916 -0.5029  0.9480 -0.5094
10683TIP3    H253465   5.896   5.718  16.790  0.3860  1.1166 -0.0751
10684TIP3   OH253466   1.795   0.848  12.854 -0.4090 -0.2193  0.7423
10684TIP3    H153467   1.774   0.804  12.772 -0.7394  0.3600  0.5133
10684TIP3    H253468   1.851   0.785  12.901  1.2696  0.1198 -0.6671
10685TIP3   OH253469   6.086   1.630  15.139  0.4101 -0.3044  0.5021
10685TIP3    H153470   6.014   1.680  15.102  1.5843 -0.0849 -1.6642
10685TIP3    H253471   6.115   1.573  15.067  3.3950  0.7822  0.6647
10686TIP3   OH253472   3.961   3.906   0.816  0.1211  0.0436  0.1440
10686TIP3    H153473   4.018   3.832   0.836  0.7270  0.1740 -0.9983
10686TIP3    H253474   3.944   3.898   0.722  0.0129  1.2210  0.0487
10687TIP3   OH253475   4.965   0.680   2.602 -0.0489  0.3908 -0.0407
10687TIP3    H153476   5.003   0.653   2.518 -0.1505  0.3697 -0.0800
10687TIP3    H253477   5.036   0.726   2.647  0.2780 -0.3755  0.2388
10688TIP3   OH253478   1.369   6.549   1.095 -0.1351 -0.3107  0.2499
10688TIP3    H153479   1.399   6.462   1.122  2.3631 -1.4883 -5.1440
10688TIP3    H253480   1.438   6.609   1.125  0.4558 -0.8845  0.0539
10689TIP3   OH253481   5.964   2.100  11.902 -0.6631 -0.4224  0.1535
10689TIP3    H153482   6.000   2.188  11.891  1.5924 -1.0351  1.8931
10689TIP3    H253483   5.879   2.114  11.944  0.5794  0.9308  2.4336
10690TIP3   OH253484   0.318   2.387  14.896  0.0124 -0.5208  0.0679
10690TIP3    H153485   0.388   2.323  14.883  1.4499  0.9973 -0.0385
10690TIP3    H253486   0.305   2.390  14.990  1.4393  0.4921  0.2735
10691TIP3   OH253487   1.763   0.576   2.991 -0.6612  0.0016  0.2729
10691TIP3    H153488   1.679   0.531   2.988 -1.4916  1.4888  0.3160
10691TIP3    H253489   1.778   0.593   3.084  0.7999 -2.1443  0.5305
10692TIP3   OH253490   0.242   2.763  16.161  0.2749 -0.6408  0.0483
10692TIP3    H153491   0.280   2.704  16.226 -0.6293  0.0183  1.2075
10692TIP3    H253492   0.318   2.809  16.124  0.7866 -0.6715  1.0093
10693TIP3   OH253493   2.036   1.250   5.392  0.0107  0.2808  0.7393
10693TIP3    H153494   1.999   1.217   5.474  3.2789  1.3583  2.8185
10693TIP3    H253495   2.130   1.233   5.399  0.6712  2.1772 -1.9235
10694TIP3   OH253496   0.200   4.775  16.531  0.8688  0.0873 -0.2622
10694TIP3    H153497   0.110   4.808  16.534  0.1607 -1.5688 -1.6007
10694TIP3    H253498   0.253   4.852  16.510 -0.2616  1.0368  0.2634
10695TIP3   OH253499   3.001   5.289  13.205  0.3737 -0.5685  0.5021
10695TIP3    H153500   2.913   5.305  13.171  1.0896 -0.1730 -1.2600
10695TIP3    H253501   2.999   5.324  13.294 -1.7816 -2.2494  1.2183
10696TIP3   OH253502   6.377   5.927  15.448 -0.0708 -0.4249 -0.5257
10696TIP3    H153503   6.317   5.962  15.514  0.8605 -1.5870  1.0037
10696TIP3    H253504   6.322   5.914  15.371 -1.8335 -1.4389  0.8116
10697TIP3   OH253505   1.052   3.286  11.191 -0.2280 -0.4531  0.1816
10697TIP3    H153506   1.075   3.298  11.283  0.0503 -0.0442  0.0618
10697TIP3    H253507   1.087   3.364  11.147 -1.9242  0.2505  0.0112
10698TIP3   OH253508   3.490   0.695   2.674  0.2264 -0.4052  0.3767
10698TIP3    H153509   3.424   0.632   2.643  1.6854 -2.5532  1.3993
10698TIP3    H253510   3.528   0.730   2.594 -0.6298 -0.8184 -0.2337
10699TIP3   OH253511   1.933   5.995  13.839 -0.1638 -0.0353 -0.3299
10699TIP3    H153512   1.854   6.048  13.828 -0.0816 -0.0608 -1.0634
10699TIP3    H253513   2.001   6.057  13.865 -0.2664  0.0811 -0.3400
10700TIP3   OH253514   3.062   4.032   1.413  0.2448 -0.6993 -0.2921
10700TIP3    H153515   3.086   4.058   1.323 -0.4573  0.5647 -0.1458
10700TIP3    H253516   2.968   4.053   1.419  0.8436  1.8662  1.5716
10701TIP3   OH253517   4.554   2.445  16.775 -0.1938  0.1126  0.5669
10701TIP3    H153518   4.538   2.426  16.683  1.2855 -0.1409  0.3393
10701TIP3    H253519   4.517   2.371  16.822  0.6430 -0.6629  0.0381
10702TIP3   OH253520   6.487   6.018  16.951  0.0680  0.2477 -0.6653
10702TIP3    H153521   6.491   5.988  17.041 -1.8447  3.4458  0.6418
10702TIP3    H253522   6.571   6.060  16.935  1.0453 -1.7454 -1.0187
10703TIP3   OH253523   1.274   6.175   3.490 -0.0223 -0.6873 -0.0453
10703TIP3    H153524   1.315   6.232   3.425 -0.7058 -0.9809 -0.7560
10703TIP3    H253525   1.333   6.100   3.497 -0.1627 -0.8648 -0.6725
10704TIP3   OH253526   0.571   5.366   2.909  0.1692  0.0689  0.2830
10704TIP3    H153527   0.494   5.414   2.937 -0.7266 -1.4572  0.5401
10704TIP3    H253528   0.636   5.382   2.977 -0.6909 -0.4557  1.2453
10705TIP3   OH253529   1.821   5.635  17.457  0.0759 -0.4671 -0.5348
10705TIP3    H153530   1.826   5.541  17.475  0.1873 -0.8369 -2.2623
10705TIP3    H253531   1.728   5.651  17.439  0.0450 -0.2251 -0.1684
10706TIP3   OH253532   4.700   4.224   6.071  0.3854  0.0635  0.1597
10706TIP3    H153533   4.793   4.229   6.096  0.4623 -1.7940  0.3623
10706TIP3    H253534   4.656   4.194   6.150 -0.0952 -1.0032 -0.5048
10707TIP3   OH253535   2.990   5.426   3.372  0.1803 -0.1894 -0.0224
10707TIP3    H153536   2.900   5.394   3.370 -0.8574  2.5208 -1.5435
10707TIP3    H253537   3.035   5.377   3.303 -0.9498  0.5214 -1.2936
10708TIP3   OH253538   4.554   2.792  15.970  0.2168 -0.4479 -0.0615
10708TIP3    H153539   4.587   2.730  15.905 -0.5568 -0.8636 -0.0652
10708TIP3    H253540   4.462   2.806  15.946  0.4055  0.7985 -0.1330
10709TIP3   OH253541   2.829   4.607  15.492 -0.1006  0.8330 -0.3995
10709TIP3    H153542   2.879   4.601  15.411 -0.1507  0.9294 -0.4372
10709TIP3    H253543   2.889   4.573  15.559 -0.0738  0.7188 -0.4830
10710TIP3   OH253544   6.598   4.761   6.327 -0.3872 -0.2723  0.1305
10710TIP3    H153545   6.553   4.679   6.306  0.1994 -1.0275  1.6365
10710TIP3    H253546   6.635   4.791   6.244 -0.1887 -1.8107 -0.3663
10711TIP3   OH253547   4.841   4.540   0.440  0.7015 -0.6703 -0.3123
10711TIP3    H153548   4.858   4.577   0.527 -0.4920 -1.9397  0.5042
10711TIP3    H253549   4.883   4.601   0.379  1.8084  0.0926  1.1638
10712TIP3   OH253550   6.708   5.864   6.816  0.4936 -0.1203  0.1558
10712TIP3    H153551   6.738   5.804   6.884 -0.3346 -0.0638  0.5794
10712TIP3    H253552   6.787   5.908   6.786  0.9544 -0.6180  0.6237
10713TIP3   OH253553   0.187   5.873   3.985 -0.1667 -0.0598  0.6718
10713TIP3    H153554   0.121   5.819   4.028 -1.7827  0.0948 -1.4967
10713TIP3    H253555   0.137   5.937   3.935  1.6768  2.4999  1.8697
10714TIP3   OH253556   5.628   1.008  12.036  0.3241  0.5135  0.3133
10714TIP3    H153557   5.639   0.922  11.995  2.2880 -0.0794  1.9411
10714TIP3    H253558   5.694   1.011  12.104  0.2597  3.3191  0.3713
10715TIP3   OH253559   2.169   6.001   0.278 -0.6267  0.4093 -0.0247
10715TIP3    H153560   2.228   6.076   0.283 -0.9004  0.9109 -2.7266
10715TIP3    H253561   2.217   5.929   0.319  0.6778  1.4725  0.3587
10716TIP3   OH253562   2.640   0.633  12.084 -0.1056  0.2821  0.2408
10716TIP3    H153563   2.575   0.623  12.154  0.4000 -0.1327  0.6695
10716TIP3    H253564   2.700   0.560  12.098  0.6351  0.8444  0.0618
10717TIP3   OH253565   6.589   3.012   0.919 -0.7874 -0.2589 -0.5821
10717TIP3    H153566   6.675   2.985   0.954  1.4215  1.8753 -3.8075
10717TIP3    H253567   6.535   3.026   0.997  3.4209  3.3609  2.1774
10718TIP3   OH253568   5.126   4.794  17.041 -0.4450 -0.1257 -0.0864
10718TIP3    H153569   5.195   4.819  16.979  0.1113  0.1004  0.6056
10718TIP3    H253570   5.095   4.709  17.011 -0.0516 -0.1012 -0.5641
10719TIP3   OH253571   0.763   1.069   0.544 -0.0011  0.0822  0.0026
10719TIP3    H153572   0.728   1.119   0.617  0.7432  0.2967  0.2143
10719TIP3    H253573   0.685   1.028   0.505 -0.3027 -1.0130  1.6297
10720TIP3   OH253574   5.271   1.514   5.323 -0.6285 -0.0713  0.2366
10720TIP3    H153575   5.227   1.582   5.272 -0.4015 -0.2567 -0.2105
10720TIP3    H253576   5.328   1.562   5.383 -0.4707  0.1356 -0.0772
10721TIP3   OH253577   2.264   6.316   0.197 -0.4091  0.2017 -0.0813
10721TIP3    H153578   2.239   6.401   0.233 -1.5812  0.1008 -0.6202
10721TIP3    H253579   2.215   6.309   0.115  0.0146 -0.8116 -0.2632
10722TIP3   OH253580   3.633   3.861   4.571 -0.1954  0.1780  0.1998
10722TIP3    H153581   3.613   3.796   4.504  2.0840 -0.6749  0.2573
10722TIP3    H253582   3.658   3.939   4.521  1.1162 -0.3337  0.0168
10723TIP3   OH253583   1.369   2.668   6.565 -0.2809 -0.2418  0.0281
10723TIP3    H153584   1.446   2.679   6.620  0.0443  3.5645 -0.9313
10723TIP3    H253585   1.401   2.682   6.475 -1.8981  0.4731 -0.4780
10724TIP3   OH253586   6.645   2.118  16.903 -0.2376 -0.3838 -0.3914
10724TIP3    H153587   6.584   2.125  16.976 -0.4688 -1.6815 -0.4348
10724TIP3    H253588   6.594   2.145  16.826  0.1565  1.4817 -0.0313
10725TIP3   OH253589   2.871   2.915  16.439 -0.2806  0.3657  0.4597
10725TIP3    H153590   2.806   2.981  16.465  0.1468 -0.4594  4.0070
10725TIP3    H253591   2.835   2.832  16.469  1.7370 -0.2786  1.2729
10726TIP3   OH253592   0.865   1.831   0.165 -0.3981  0.3560  0.2774
10726TIP3    H153593   0.898   1.785   0.242  1.2716 -0.9694 -1.1446
10726TIP3    H253594   0.777   1.859   0.189 -0.9878 -2.4442  1.7014
10727TIP3   OH253595   2.191   2.049  17.059 -0.0870  0.6590 -0.7293
10727TIP3    H153596   2.123   2.105  17.095 -0.6304  0.3429 -1.2419
10727TIP3    H253597   2.214   2.090  16.976 -1.1900 -0.3824 -1.5866
10728TIP3   OH253598   5.884   3.421   2.272  0.4179  0.0854 -0.4423
10728TIP3    H153599   5.941   3.347   2.293  2.4807  1.2119 -1.8067
10728TIP3    H253600   5.875   3.468   2.355  1.0111 -0.4207 -0.0814
10729TIP3   OH253601   2.560   2.093  11.156 -0.3978  0.3078  0.5680
10729TIP3    H153602   2.536   2.065  11.068 -0.5556 -0.4088  0.8376
10729TIP3    H253603   2.655   2.106  11.152 -0.5825  1.6689 -0.0878
10730TIP3   OH253604   0.218   2.201   1.048 -0.0558  0.0094  0.1028
10730TIP3    H153605   0.295   2.206   0.991 -0.6460 -0.1065 -0.7225
10730TIP3    H253606   0.164   2.275   1.021  0.4979  1.1067  1.8200
10731TIP3   OH253607   4.833   4.746   5.781  0.0038 -0.6369  0.3166
10731TIP3    H153608   4.786   4.763   5.862 -1.2615  1.4352 -0.7560
10731TIP3    H253609   4.918   4.790   5.793  0.0964 -0.9350  0.7674
10732TIP3   OH253610   0.551   5.877  12.776 -0.1615  0.1791  0.0562
10732TIP3    H153611   0.475   5.839  12.819 -2.6057  2.7233 -1.7147
10732TIP3    H253612   0.573   5.953  12.830  1.0162 -0.3653  0.3873
10733TIP3   OH253613   2.003   4.471   2.610 -0.3045 -0.1752 -0.8503
10733TIP3    H153614   2.015   4.547   2.553 -0.1517 -0.9990 -1.9612
10733TIP3    H253615   2.046   4.399   2.563 -0.9681 -1.0720 -0.1219
10734TIP3   OH253616   4.088   2.294   5.219  0.1873  0.9612 -0.2478
10734TIP3    H153617   4.118   2.341   5.141  1.3867  0.5217 -0.0700
10734TIP3    H253618   4.025   2.231   5.187  0.6845  0.7744 -0.8734
10735TIP3   OH253619   4.344   4.354   4.288  0.4706  0.7494  0.2404
10735TIP3    H153620   4.394   4.435   4.288 -0.5010  1.3626  0.8125
10735TIP3    H253621   4.402   4.290   4.245  1.8932  1.3330  1.2120
10736TIP3   OH253622   5.884   0.013   2.587  0.0302  0.3208 -0.2486
10736TIP3    H153623   5.945   0.086   2.594  0.5384 -0.1087 -0.1367
10736TIP3    H253624   5.905  -0.043   2.663 -2.6861  1.7761  1.7585
10737TIP3   OH253625   5.910   6.306   0.379  0.2824  0.2692  0.3820
10737TIP3    H153626   5.921   6.401   0.379  1.2423  0.2044 -1.3861
10737TIP3    H253627   5.855   6.288   0.455  0.3959  2.1924  0.9716
10738TIP3   OH253628   4.065   1.522   4.790 -0.0961  0.3385  0.0258
10738TIP3    H153629   4.160   1.537   4.783  0.3210 -1.1014  1.7102
10738TIP3    H253630   4.038   1.495   4.702  0.9159  1.3504 -0.6295
10739TIP3   OH253631   4.278   4.479   6.363  0.2675  0.5395  0.3833
10739TIP3    H153632   4.233   4.544   6.419 -0.0077  1.2344 -0.6204
10739TIP3    H253633   4.367   4.513   6.354 -0.0966  1.2299 -0.8031
10740TIP3   OH253634   6.472   3.974  11.439  0.1425  0.3121 -0.1374
10740TIP3    H153635   6.402   3.987  11.374 -0.3865  0.3395  0.4270
10740TIP3    H253636   6.547   3.944  11.387 -0.3213  0.1719 -0.7447
10741TIP3   OH253637   5.015   5.356  13.653 -0.0418  0.2661 -0.1974
10741TIP3    H153638   5.108   5.349  13.633  0.0223  1.6588 -0.4805
10741TIP3    H253639   4.973   5.293  13.595  0.8073 -1.2027  0.7398
10742TIP3   OH253640   2.487   4.315  16.330  0.2854 -0.4763  0.2007
10742TIP3    H153641   2.441   4.317  16.415 -0.9091  0.3553 -0.4335
10742TIP3    H253642   2.513   4.224  16.319 -2.3495 -1.2852  0.0538
10743TIP3   OH253643   0.210   5.854   2.982 -0.3035 -0.4337  0.3636
10743TIP3    H153644   0.186   5.804   2.904  0.4404 -0.0432 -0.1324
10743TIP3    H253645   0.151   5.823   3.050 -2.0119  0.2825 -0.7152
10744TIP3   OH253646   0.376   5.040  12.531 -0.0078  0.5943 -0.4758
10744TIP3    H153647   0.349   5.017  12.620 -0.4764 -1.5045 -1.1196
10744TIP3    H253648   0.471   5.027  12.531  0.0324  0.8616 -0.2323
10745TIP3   OH253649   3.484   5.201   5.215  0.3813 -0.0978 -0.3049
10745TIP3    H153650   3.560   5.194   5.272 -1.8654 -2.3060  2.7732
10745TIP3    H253651   3.434   5.274   5.251 -0.2027 -0.3632 -0.5629
10746TIP3   OH253652   0.398   5.928  12.276 -0.5599  0.0544  0.0588
10746TIP3    H153653   0.381   6.022  12.263 -0.6084 -0.0498 -0.6851
10746TIP3    H253654   0.468   5.925  12.341 -1.5632  0.5669  1.1880
10747TIP3   OH253655   3.085   4.816   2.134  0.0245 -0.3246  0.3495
10747TIP3    H153656   3.145   4.796   2.062  2.1391  1.0433  1.6037
10747TIP3    H253657   3.107   4.753   2.203 -1.2883 -0.9831  0.2026
10748TIP3   OH253658   2.396   3.459   1.259  0.1422  0.1525 -0.0447
10748TIP3    H153659   2.314   3.414   1.241 -0.3752  0.5295  1.3178
10748TIP3    H253660   2.393   3.480   1.352  2.3486 -0.9548  0.3531
10749TIP3   OH253661   0.423   1.960  11.751 -0.2694 -0.3528 -0.3669
10749TIP3    H153662   0.385   1.942  11.665 -1.0691  0.7710 -0.2699
10749TIP3    H253663   0.350   1.994  11.803  0.4641  0.0785  0.4013
10750TIP3   OH253664   2.166   3.361   6.398  0.1162 -0.0721 -0.1812
10750TIP3    H153665   2.136   3.446   6.365 -0.5164 -0.9521 -2.0379
10750TIP3    H253666   2.088   3.305   6.392  0.6790 -0.9328  0.4289
10751TIP3   OH253667   5.656   0.193   0.117  0.1457 -0.0637  0.3111
10751TIP3    H153668   5.597   0.218   0.046 -1.6815 -1.3543  1.2879
10751TIP3    H253669   5.637   0.101   0.133  2.4985 -0.5635  0.6703
10752TIP3   OH253670   2.357   2.501  10.538 -0.1205  0.2160 -0.2654
10752TIP3    H153671   2.309   2.567  10.487  0.5356  0.4016 -0.6537
10752TIP3    H253672   2.298   2.478  10.610 -0.0330  1.8110  0.3389
10753TIP3   OH253673   4.221   2.438   4.617  0.6131 -0.1584  0.2284
10753TIP3    H153674   4.163   2.460   4.544 -1.3717  0.4650  1.9012
10753TIP3    H253675   4.292   2.502   4.612 -0.2192  0.7418 -0.3715
10754TIP3   OH253676   0.354   5.358  13.760  0.2811  0.1449 -0.2700
10754TIP3    H153677   0.287   5.291  13.769  0.4200  0.1964  1.4180
10754TIP3    H253678   0.305   5.439  13.747  0.0661 -0.0411 -0.6263
10755TIP3   OH253679   3.868   5.042  11.663  0.3509 -0.1000 -0.1968
10755TIP3    H153680   3.778   5.015  11.681  0.3633  0.8169  1.4115
10755TIP3    H253681   3.861   5.101  11.587 -0.5910  1.0243  0.7348
10756TIP3   OH253682   6.101   3.040  14.295 -0.0425  0.3761 -0.0228
10756TIP3    H153683   6.127   3.125  14.331 -0.9547  0.8087 -0.3536
10756TIP3    H253684   6.102   3.052  14.200  0.5411 -0.2086 -0.0977
10757TIP3   OH253685   3.514   6.202  16.946  0.5451 -0.3030  0.2510
10757TIP3    H153686   3.523   6.181  16.853 -1.8813  1.3273 -0.4520
10757TIP3    H253687   3.580   6.270  16.961 -1.3337  2.0897 -1.3486
10758TIP3   OH253688   6.148   2.406   0.266 -0.2670  0.1230 -0.0486
10758TIP3    H153689   6.215   2.351   0.225 -0.3209  0.8525 -1.1524
10758TIP3    H253690   6.107   2.349   0.331 -0.0148 -0.9906 -0.8384
10759TIP3   OH253691   3.423   5.389   4.515  0.2381 -0.3581 -0.0916
10759TIP3    H153692   3.476   5.439   4.453 -0.0077 -1.1365 -0.9498
10759TIP3    H253693   3.436   5.434   4.599  1.8651 -0.2340 -0.3715
10760TIP3   OH253694   3.111   2.573   2.092  0.5627  0.1261  0.1571
10760TIP3    H153695   3.099   2.481   2.068 -1.5373  0.5066 -0.4694
10760TIP3    H253696   3.153   2.612   2.015  2.2048 -0.4213  0.7320
10761TIP3   OH253697   6.129   6.167  14.154 -0.0240 -0.1437  0.0202
10761TIP3    H153698   6.140   6.230  14.083  1.4270  1.6014  1.6835
10761TIP3    H253699   6.217   6.133  14.170 -0.2832 -0.3138  1.1583
10762TIP3   OH253700   1.247   4.107  12.868  0.0325 -0.3905 -0.1555
10762TIP3    H153701   1.200   4.188  12.849 -1.5314 -1.5336 -1.3634
10762TIP3    H253702   1.319   4.105  12.804 -1.0320 -0.8228 -1.3715
10763TIP3   OH253703   3.440   6.068  12.905 -0.4330  0.2180 -0.0649
10763TIP3    H153704   3.369   6.132  12.898  0.6130  1.2061 -3.0745
10763TIP3    H253705   3.499   6.105  12.970 -1.3201  0.7374  0.4758
10764TIP3   OH253706   5.371   1.242  14.597  0.0416  0.1184 -0.3232
10764TIP3    H153707   5.386   1.320  14.543  0.4519  1.2353  1.3282
10764TIP3    H253708   5.319   1.274  14.671  1.1590 -0.9221  0.9688
10765TIP3   OH253709   6.686   2.670  12.323 -0.1595  0.0403 -0.9785
10765TIP3    H153710   6.780   2.688  12.328  0.2767 -1.7052 -2.0151
10765TIP3    H253711   6.654   2.731  12.257 -0.3791  2.7016  1.4370
10766TIP3   OH253712   0.501   1.731  17.233 -1.0333  0.1314 -0.6727
10766TIP3    H153713   0.537   1.718  17.321 -0.9169 -1.6256 -0.9304
10766TIP3    H253714   0.442   1.805  17.241  0.0790  0.9280  0.5467
10767TIP3   OH253715   1.605   5.439   5.186  0.0142 -0.3501 -0.0202
10767TIP3    H153716   1.516   5.406   5.176 -0.1284 -0.9015  2.4368
10767TIP3    H253717   1.653   5.367   5.227  0.9933  0.7480  0.8194
10768TIP3   OH253718   6.222   6.314  14.863 -0.4973  0.2268 -0.2992
10768TIP3    H153719   6.126   6.309  14.863 -0.4576 -2.3119  1.3152
10768TIP3    H253720   6.250   6.232  14.822  0.8859 -1.6222  3.8557
10769TIP3   OH253721   3.552   3.241  16.468 -0.4581  0.6112  0.4172
10769TIP3    H153722   3.486   3.260  16.402  0.4015 -1.6222 -1.2005
10769TIP3    H253723   3.527   3.156  16.505  0.7142  0.4048  0.8001
10770TIP3   OH253724   4.223   2.679   5.707 -0.2264  0.0670  0.1392
10770TIP3    H153725   4.167   2.644   5.639 -3.7004  3.1823  1.0783
10770TIP3    H253726   4.252   2.764   5.673  0.8905  0.1380  1.1778
10771TIP3   OH253727   0.714   1.475   2.642 -0.4184  0.4524  0.2553
10771TIP3    H153728   0.667   1.489   2.560  0.7265 -1.0094 -0.6842
10771TIP3    H253729   0.791   1.424   2.618 -1.3994 -2.3747  2.5533
10772TIP3   OH253730   0.696   3.260   3.086 -0.1074 -0.3561 -0.0499
10772TIP3    H153731   0.627   3.253   3.020  0.1114  0.1473 -0.3380
10772TIP3    H253732   0.771   3.215   3.048  0.3540  0.8411 -0.6164
10773TIP3   OH253733   6.441   0.132  17.456  0.5017 -0.0842  0.1107
10773TIP3    H153734   6.432   0.169  17.368  2.1591 -1.5661 -0.7537
10773TIP3    H253735   6.532   0.102  17.460  0.4786 -0.0303  2.3620
10774TIP3   OH253736   1.417   6.684  14.529 -0.0101 -0.0336  0.1186
10774TIP3    H153737   1.398   6.717  14.617  1.0409  2.0826 -0.3736
10774TIP3    H253738   1.470   6.752  14.489  0.1217 -1.2558 -1.9436
10775TIP3   OH253739   6.600   2.608   1.993  0.2503 -0.7444  0.0190
10775TIP3    H153740   6.539   2.587   2.064 -1.5101 -0.7088 -1.4182
10775TIP3    H253741   6.548   2.656   1.930  1.6224 -1.2657 -1.5862
10776TIP3   OH253742   6.566   3.063  15.578 -0.0279 -0.5168 -0.0097
10776TIP3    H153743   6.606   2.978  15.596 -2.1293 -1.4233  0.7319
10776TIP3    H253744   6.481   3.059  15.621  0.6181  2.8268  1.9809
10777TIP3   OH253745   4.199   0.622   5.057 -0.3904 -0.0020 -0.3737
10777TIP3    H153746   4.276   0.585   5.015 -0.0452  1.0601 -0.7046
10777TIP3    H253747   4.226   0.639   5.147 -0.7006 -0.9797 -0.0837
10778TIP3   OH253748   1.867   3.459  12.157  0.1317  0.0231 -0.0209
10778TIP3    H153749   1.800   3.483  12.093  0.4179 -0.2461 -0.4209
10778TIP3    H253750   1.948   3.498  12.123 -0.0888  1.8084  1.2970
10779TIP3   OH253751   5.730   0.999   0.439  0.2549 -0.3173  0.0925
10779TIP3    H153752   5.799   0.952   0.393  1.7447  0.0451  1.8508
10779TIP3    H253753   5.702   0.939   0.508  0.1374  0.2659  0.5575
10780TIP3   OH253754   0.950   4.612   0.821  0.1386 -0.4704 -0.2960
10780TIP3    H153755   1.046   4.618   0.822  0.0924  0.3757  0.0982
10780TIP3    H253756   0.923   4.643   0.907 -0.4982 -0.6966 -0.4081
10781TIP3   OH253757   0.239   4.204  13.101 -0.1745  0.3665  0.0891
10781TIP3    H153758   0.311   4.170  13.154  0.3412 -0.9440 -1.4001
10781TIP3    H253759   0.191   4.262  13.161  1.0479 -0.1473  1.6314
10782TIP3   OH253760   2.360   5.837   4.914 -0.6224  0.5833 -0.2896
10782TIP3    H153761   2.379   5.761   4.860 -2.2352  0.1735 -0.3329
10782TIP3    H253762   2.264   5.837   4.923 -0.4408  0.5681  2.6572
10783TIP3   OH253763   0.798   3.165   4.667 -0.2633 -0.0219 -0.1919
10783TIP3    H153764   0.714   3.119   4.667 -0.0401 -0.5203 -2.2706
10783TIP3    H253765   0.795   3.220   4.746 -1.8847 -1.1563  0.5953
10784TIP3   OH253766   2.066   4.536   5.556 -0.3845 -0.1404 -0.4995
10784TIP3    H153767   2.061   4.572   5.645  1.3090 -1.1806  0.0661
10784TIP3    H253768   2.075   4.613   5.500  0.5110  0.4596  0.4251
10785TIP3   OH253769   0.094   1.807  17.453  0.1881 -0.1475 -0.6996
10785TIP3    H153770   0.081   1.714  17.433 -0.7869 -0.3155  0.6129
10785TIP3    H253771   0.149   1.807  17.531 -1.4599  0.3031  0.4994
10786TIP3   OH253772   6.420   0.227   1.456 -0.4740  0.7775  0.0260
10786TIP3    H153773   6.379   0.255   1.374 -1.3316  2.5401  0.9782
10786TIP3    H253774   6.363   0.158   1.489 -0.8181  0.9224 -0.2619
10787TIP3   OH253775   0.956   5.067  16.911  0.2078  0.0322  0.6246
10787TIP3    H153776   0.959   4.979  16.874  0.5976  0.9605 -1.7912
10787TIP3    H253777   0.871   5.101  16.883  0.8106  1.0139 -0.0935
10788TIP3   OH253778   3.764   2.111  15.526 -0.4461  0.0312  0.2179
10788TIP3    H153779   3.747   2.046  15.594 -1.2288  0.7965  0.7719
10788TIP3    H253780   3.731   2.193  15.562  1.6147  1.0043  0.0299
10789TIP3   OH253781   1.185   0.740   6.711 -0.0870 -0.3335 -0.1050
10789TIP3    H153782   1.275   0.736   6.679  1.0002 -0.7950  2.7391
10789TIP3    H253783   1.156   0.829   6.690  1.3582  0.1340 -0.2388
10790TIP3   OH253784   6.465   0.880   4.954  0.2585 -0.5120  0.3019
10790TIP3    H153785   6.382   0.894   5.000 -0.8808  1.9363 -2.2378
10790TIP3    H253786   6.451   0.915   4.867  3.6263 -1.1644 -0.6571
10791TIP3   OH253787   4.601   5.341   0.278  0.0925  0.2967  0.3666
10791TIP3    H153788   4.600   5.292   0.196 -0.5158  0.4993  0.2476
10791TIP3    H253789   4.546   5.291   0.337 -2.6123  2.0335 -0.4941
10792TIP3   OH253790   5.332   3.878   2.315  0.1301  0.1379  0.0368
10792TIP3    H153791   5.264   3.930   2.273  1.2703 -0.1871 -2.3891
10792TIP3    H253792   5.304   3.787   2.301  0.3550  0.0351  0.2574
10793TIP3   OH253793   2.591   6.108   4.681  0.1198  0.1729 -0.2304
10793TIP3    H153794   2.684   6.110   4.705  0.0541 -0.0690  0.0435
10793TIP3    H253795   2.587   6.049   4.606  0.0404 -0.6464  0.4055
10794TIP3   OH253796   6.396   6.127   0.507 -0.0038 -0.4192  0.3853
10794TIP3    H153797   6.372   6.207   0.461  2.4589  0.2250  0.0882
10794TIP3    H253798   6.315   6.098   0.548 -0.8116  2.7567  1.3227
10795TIP3   OH253799   4.074   1.087   6.678  0.0028  0.6596  0.3420
10795TIP3    H153800   4.028   1.070   6.596  1.1694  0.7147 -0.3489
10795TIP3    H253801   4.067   1.004   6.726 -0.4520  0.5342  0.0672
10796TIP3   OH253802   6.283   5.515   1.785  0.1311  0.2205  0.2853
10796TIP3    H153803   6.334   5.589   1.817 -0.2772  0.9815 -0.7702
10796TIP3    H253804   6.267   5.534   1.693 -1.6703 -0.2110  0.4620
10797TIP3   OH253805   2.503   0.931   0.166  0.5707 -0.1916  0.3484
10797TIP3    H153806   2.528   0.945   0.074  1.2659 -1.3773  0.3298
10797TIP3    H253807   2.586   0.932   0.213  0.2154  0.3950  0.9737
10798TIP3   OH253808   3.382   5.751  16.156  0.0834 -0.4219  0.0373
10798TIP3    H153809   3.403   5.714  16.071 -1.3862 -2.6035  0.5268
10798TIP3    H253810   3.293   5.785  16.147 -0.3968 -1.3900  0.8598
10799TIP3   OH253811   3.946   1.431  14.323 -0.0733 -0.0922 -0.2552
10799TIP3    H153812   3.907   1.346  14.303 -0.4798  0.0338 -0.0145
10799TIP3    H253813   3.931   1.483  14.244  1.5599 -0.7121 -1.0132
10800TIP3   OH253814   1.881   1.013  15.566 -0.5356 -0.0134  0.4457
10800TIP3    H153815   1.823   1.057  15.628  0.0121  0.2255  0.7913
10800TIP3    H253816   1.821   0.966  15.507 -1.1046  0.7989  0.3606
10801TIP3   OH253817   3.753   1.386   4.478  0.3576  0.0080  0.2372
10801TIP3    H153818   3.739   1.338   4.396  1.2092  2.6601 -1.5847
10801TIP3    H253819   3.847   1.384   4.492  0.5111  1.6930 -0.3096
10802TIP3   OH253820   6.315   0.440   6.746  0.1094  0.0576 -0.1405
10802TIP3    H153821   6.307   0.378   6.818 -1.4035 -0.9069 -1.0977
10802TIP3    H253822   6.234   0.491   6.749  1.1335  1.7595  0.3624
10803TIP3   OH253823   6.584   1.612   3.476 -0.1374 -0.3940 -0.7359
10803TIP3    H153824   6.492   1.594   3.457 -0.0350 -1.7606 -0.0957
10803TIP3    H253825   6.611   1.539   3.532  0.4423  1.7249  1.8985
10804TIP3   OH253826   0.849   2.346  12.961  0.1298  0.3079  0.3014
10804TIP3    H153827   0.789   2.388  12.899  0.0952  0.6999  0.5965
10804TIP3    H253828   0.872   2.416  13.022 -0.5655 -0.2940  1.2839
10805TIP3   OH253829   3.399   2.298  14.221 -0.1872 -0.0935 -0.3715
10805TIP3    H153830   3.363   2.290  14.133  0.1855 -0.2293 -0.5142
10805TIP3    H253831   3.337   2.354  14.268  0.0886  0.7375 -0.9818
10806TIP3   OH253832   1.040   5.228   2.835 -0.3360 -0.1060 -0.1593
10806TIP3    H153833   1.099   5.182   2.894  0.2780 -1.8132 -2.0151
10806TIP3    H253834   1.012   5.305   2.885  1.4590 -0.5689  1.6977
10807TIP3   OH253835   0.408   0.261   2.270  0.0762  0.3541  0.0337
10807TIP3    H153836   0.319   0.284   2.296  0.7009  0.3763  2.3665
10807TIP3    H253837   0.454   0.345   2.266 -0.0490  0.3793 -1.5180
10808TIP3   OH253838   3.553   4.945   3.540 -0.4453  0.1827 -0.4067
10808TIP3    H153839   3.560   4.990   3.624 -1.1147 -0.2584 -0.1081
10808TIP3    H253840   3.505   4.865   3.559  1.8300 -1.3431 -0.6891
10809TIP3   OH253841   0.646   1.260   0.693 -0.5323  0.0203  0.3674
10809TIP3    H153842   0.596   1.341   0.703  1.3506  1.2343  0.3688
10809TIP3    H253843   0.660   1.229   0.783 -1.5079 -0.5180  0.3556
10810TIP3   OH253844   0.518   3.958  12.937 -0.3803  0.0852  0.8377
10810TIP3    H153845   0.471   3.891  12.888 -1.6852  1.5000  0.0654
10810TIP3    H253846   0.486   3.950  13.027 -0.5913 -0.2477  0.7315
10811TIP3   OH253847   4.677   1.119  10.733 -0.0749  0.2230  0.1282
10811TIP3    H153848   4.587   1.095  10.752  0.0135  1.0308  1.7381
10811TIP3    H253849   4.728   1.043  10.764 -0.1239  0.3017  0.4047
10812TIP3   OH253850   0.095   2.932   1.447  0.1921 -0.1376 -0.9468
10812TIP3    H153851   0.146   2.891   1.378  3.9931  2.1101  0.2453
10812TIP3    H253852   0.145   2.915   1.527 -0.5653  2.6824  0.2488
10813TIP3   OH253853   5.355   3.382   0.819 -0.5232 -0.1668  0.0695
10813TIP3    H153854   5.424   3.355   0.758  0.6203 -1.7149  1.9161
10813TIP3    H253855   5.371   3.475   0.833 -1.2071  0.3960 -2.3714
10814TIP3   OH253856   4.989   0.556   5.465 -0.1323 -0.1762  0.3480
10814TIP3    H153857   5.071   0.573   5.418 -0.6282  1.1440 -0.0901
10814TIP3    H253858   4.970   0.464   5.447  0.4340 -0.0798 -0.8633
10815TIP3   OH253859   5.748   6.324  12.276 -0.4787 -0.1807  0.2870
10815TIP3    H153860   5.726   6.236  12.245  0.7816 -0.2965 -0.3300
10815TIP3    H253861   5.678   6.380  12.242 -0.2368 -0.6438 -1.0086
10816TIP3   OH253862   6.566   1.063  14.623 -0.1302 -0.1668 -0.0823
10816TIP3    H153863   6.513   1.102  14.554  0.6407  2.1349  0.5166
10816TIP3    H253864   6.639   1.021  14.577  0.7961  1.9907 -0.7371
10817TIP3   OH253865   2.681   6.703  13.714  0.3966 -0.2998 -0.0541
10817TIP3    H153866   2.645   6.696  13.802  0.5211 -0.3721 -0.0082
10817TIP3    H253867   2.637   6.635  13.664  0.5871 -0.4993  0.0443
10818TIP3   OH253868   5.210   5.438   1.406  0.4989  0.6405  0.8031
10818TIP3    H153869   5.199   5.522   1.362  0.5097  1.1788  1.8157
10818TIP3    H253870   5.120   5.407   1.421  0.4613  1.2481  1.8870
10819TIP3   OH253871   2.683   2.172   5.403  0.3281 -0.4863 -0.3081
10819TIP3    H153872   2.680   2.184   5.309 -1.5968 -0.9228 -0.3473
10819TIP3    H253873   2.738   2.095   5.416  1.1053 -0.0622 -1.0170
10820TIP3   OH253874   2.268   1.590   3.979  0.4573 -0.0939 -0.3773
10820TIP3    H153875   2.239   1.558   3.894 -2.0097 -0.7235  0.5862
10820TIP3    H253876   2.186   1.601   4.029  1.8520 -0.4643  2.1417
10821TIP3   OH253877   3.473   1.576   6.249  0.0868  0.7679  0.5684
10821TIP3    H153878   3.532   1.500   6.249  0.7100  1.2362  0.7351
10821TIP3    H253879   3.432   1.574   6.336 -0.2744  0.3425  0.3897
10822TIP3   OH253880   5.263   1.305  15.552  0.9153 -0.0541 -0.2186
10822TIP3    H153881   5.200   1.376  15.543  1.8897  0.7434 -1.0298
10822TIP3    H253882   5.230   1.236  15.495  1.3455  0.8066 -1.5736
10823TIP3   OH253883   2.192   1.393  11.894  0.3553 -0.4033  0.4156
10823TIP3    H153884   2.228   1.414  11.981 -0.5601  1.0365  0.4807
10823TIP3    H253885   2.187   1.478  11.850 -2.0888 -0.6482  0.0968
10824TIP3   OH253886   3.549   4.897  16.801 -0.1585  0.3621 -0.0310
10824TIP3    H153887   3.488   4.833  16.838 -1.9146  2.0838  0.2158
10824TIP3    H253888   3.594   4.934  16.877 -0.2995  0.5360 -0.0314
10825TIP3   OH253889   3.909   6.581  16.941 -0.2874 -0.0375 -0.1307
10825TIP3    H153890   3.998   6.555  16.917  0.2754  1.6774 -0.0784
10825TIP3    H253891   3.912   6.677  16.941 -2.3547  0.0771 -0.9081
10826TIP3   OH253892   1.955   2.091   3.279 -0.0706  0.2490  0.0389
10826TIP3    H153893   1.937   2.062   3.189 -1.8562  0.0233  0.4370
10826TIP3    H253894   2.019   2.162   3.269  1.2270 -1.0338 -1.2509
10827TIP3   OH253895   2.854   5.583   4.688 -0.1990  0.6469  0.3297
10827TIP3    H153896   2.830   5.512   4.747 -0.0220 -1.6668 -2.1832
10827TIP3    H253897   2.941   5.611   4.718 -0.8542  0.7966  2.1869
10828TIP3   OH253898   2.651   5.375   4.165 -0.2634  0.0794  0.2950
10828TIP3    H153899   2.700   5.337   4.238  0.5214 -0.1127 -0.3235
10828TIP3    H253900   2.560   5.349   4.181  0.5809 -6.0785 -2.4141
10829TIP3   OH253901   0.580   3.690   1.987  0.5215  0.5537 -0.0342
10829TIP3    H153902   0.615   3.753   2.049  2.2445  0.7500 -1.1293
10829TIP3    H253903   0.566   3.611   2.038 -1.1083  1.5951  1.2370
10830TIP3   OH253904   3.772   5.470  12.165 -0.2589  0.3772  0.3961
10830TIP3    H153905   3.741   5.524  12.093 -1.0414 -0.4356  0.0922
10830TIP3    H253906   3.764   5.526  12.242  2.8179  2.0882 -0.3781
10831TIP3   OH253907   4.272   3.689   6.155 -0.3818  0.5589  0.4695
10831TIP3    H153908   4.284   3.753   6.225 -1.6630  0.4967  0.7789
10831TIP3    H253909   4.197   3.636   6.183 -0.4867  0.0866 -0.6242
10832TIP3   OH253910   0.397   5.240   0.013  0.0392  0.3097 -0.0028
10832TIP3    H153911   0.418   5.258   0.104 -0.7821 -1.1456  0.5153
10832TIP3    H253912   0.457   5.170  -0.012 -1.3555 -1.0374  0.2349
10833TIP3   OH253913   3.522   3.896   5.481  0.2869 -0.1253  0.1026
10833TIP3    H153914   3.523   3.910   5.576 -0.2028 -2.2123  0.4570
10833TIP3    H253915   3.454   3.956   5.449 -0.9111 -0.7635  1.3521
10834TIP3   OH253916   2.249   5.576   1.640 -0.2854 -0.6218 -0.0601
10834TIP3    H153917   2.317   5.610   1.699 -0.3573 -0.2974 -0.1587
10834TIP3    H253918   2.269   5.483   1.631 -0.5911 -0.7975  0.9197
10835TIP3   OH253919   3.701   1.653   2.474  0.7296  0.2680  0.3267
10835TIP3    H153920   3.737   1.724   2.421 -0.6470  0.5044 -0.3343
10835TIP3    H253921   3.647   1.697   2.539  0.7743 -0.1283  0.6358
10836TIP3   OH253922   1.936   0.145  13.575 -0.2754  0.2408 -0.1377
10836TIP3    H153923   1.849   0.163  13.609  0.0890 -0.7142  1.3933
10836TIP3    H253924   1.922   0.121  13.483 -1.3457  2.3265 -0.5899
10837TIP3   OH253925   2.840   4.452   3.976 -0.0033  0.0404  0.1614
10837TIP3    H153926   2.919   4.415   3.937  0.5985  1.7109 -0.3129
10837TIP3    H253927   2.847   4.431   4.070  0.5982 -0.5008  0.0005
10838TIP3   OH253928   4.969   4.594   5.439 -0.3673  0.0709 -0.8651
10838TIP3    H153929   4.873   4.605   5.439 -0.4695 -0.6586  0.7017
10838TIP3    H253930   5.001   4.674   5.398 -1.4799  2.3662  2.3810
10839TIP3   OH253931   2.237   4.025  15.774  0.0871 -0.2816 -0.0798
10839TIP3    H153932   2.201   3.949  15.818 -0.7512  1.1862  1.9113
10839TIP3    H253933   2.331   4.020  15.793  0.1342 -1.1211 -0.4819
10840TIP3   OH253934   6.522   4.956  12.345 -0.4150  0.0528  0.6356
10840TIP3    H153935   6.506   4.976  12.253 -0.6038  0.3547  0.7297
10840TIP3    H253936   6.598   4.899  12.345 -1.2597 -1.1169  0.1985
10841TIP3   OH253937   6.031   3.374  12.120 -0.7876 -0.5061 -0.0238
10841TIP3    H153938   6.083   3.320  12.060 -1.2570  0.8833 -1.7782
10841TIP3    H253939   5.958   3.405  12.067 -1.3611  0.5992  1.3534
10842TIP3   OH253940   2.926   2.351   3.275 -0.0662  0.5200 -0.0263
10842TIP3    H153941   2.877   2.303   3.342 -0.4620  1.6377  0.5085
10842TIP3    H253942   2.947   2.285   3.209 -1.4152 -0.2042  0.2255
10843TIP3   OH253943   0.700   3.988   6.027 -0.3549 -0.1671  0.1323
10843TIP3    H153944   0.664   4.076   6.018  0.7922  0.3733  0.7256
10843TIP3    H253945   0.777   3.987   5.972 -1.0904 -1.2503 -0.9379
10844TIP3   OH253946   0.883   6.382  13.419 -0.2352 -0.1800 -0.7497
10844TIP3    H153947   0.833   6.443  13.472 -0.9921 -1.4377  0.0337
10844TIP3    H253948   0.823   6.355  13.350 -0.9817 -2.2635  0.6240
10845TIP3   OH253949   4.386   5.684   4.093 -0.5646 -0.3693  0.2234
10845TIP3    H153950   4.355   5.690   4.183 -1.2970 -0.0958 -0.0416
10845TIP3    H253951   4.308   5.666   4.041 -0.1674 -0.4274 -0.3738
10846TIP3   OH253952   5.572   5.209   3.887 -0.1384 -0.3856 -0.2536
10846TIP3    H153953   5.576   5.175   3.798  0.6489  0.2983 -0.4912
10846TIP3    H253954   5.489   5.176   3.922 -0.3483 -0.8391 -1.1600
10847TIP3   OH253955   6.047   3.322   4.351 -0.5411 -0.0931  0.9787
10847TIP3    H153956   6.007   3.236   4.360 -1.0651  0.1413  0.9282
10847TIP3    H253957   6.124   3.307   4.297 -0.3839 -0.6025  1.3395
10848TIP3   OH253958   4.069   3.821  12.818  0.2709  0.5279 -0.5258
10848TIP3    H153959   4.080   3.824  12.913  1.3738  0.8181 -0.6441
10848TIP3    H253960   4.145   3.869  12.784  0.5128 -0.5501 -1.5770
10849TIP3   OH253961   0.260   6.340   1.114  0.3985 -0.0243  0.0960
10849TIP3    H153962   0.275   6.247   1.132  0.4489 -0.0602 -0.1278
10849TIP3    H253963   0.232   6.343   1.022 -0.2030  0.1218  0.2803
10850TIP3   OH253964   1.443   5.923   2.534 -0.4404  0.0144  0.3079
10850TIP3    H153965   1.495   5.933   2.614  1.1894  0.9977 -0.8430
10850TIP3    H253966   1.491   5.970   2.467 -1.5223 -1.2036 -1.4019
10851TIP3   OH253967   1.514   5.620  16.449  0.5229 -0.3117 -0.5608
10851TIP3    H153968   1.533   5.708  16.417 -0.9003 -0.5818 -2.2951
10851TIP3    H253969   1.597   5.573  16.444  0.6944  0.1167 -2.4892
10852TIP3   OH253970   4.017   1.733   0.035 -0.6483 -0.0465 -0.2055
10852TIP3    H153971   4.080   1.799   0.064 -0.6858 -0.5119  0.9832
10852TIP3    H253972   4.033   1.724  -0.059 -0.2335  1.2053 -0.2704
10853TIP3   OH253973   5.577   1.874   1.713  0.1468  0.1948  0.2878
10853TIP3    H153974   5.533   1.789   1.704 -1.6405  1.2273 -1.6863
10853TIP3    H253975   5.638   1.877   1.640  0.8196  0.3070  0.8429
10854TIP3   OH253976   2.340   4.871   3.186  0.6198 -0.4337 -0.0465
10854TIP3    H153977   2.292   4.880   3.268  1.6877 -1.1024  0.6708
10854TIP3    H253978   2.272   4.869   3.118 -0.4555 -2.4436  1.0111
10855TIP3   OH253979   0.040   3.396   2.336 -0.2078 -0.2675  0.2242
10855TIP3    H153980   0.030   3.491   2.336 -3.5274 -0.4922  1.4298
10855TIP3    H253981   0.008   3.368   2.250  3.7760 -0.2625 -1.4910
10856TIP3   OH253982   0.400   3.279  11.985  0.6220 -0.3325  0.2644
10856TIP3    H153983   0.418   3.369  11.960  1.1871 -0.0237  1.6615
10856TIP3    H253984   0.403   3.230  11.903  0.6831  0.8553 -0.4658
10857TIP3   OH253985   2.263   6.688   6.004 -0.2624  0.3698 -0.6599
10857TIP3    H153986   2.255   6.771   5.956 -0.8168 -0.7613 -2.6679
10857TIP3    H253987   2.331   6.639   5.957 -0.0935 -0.4041  0.3575
10858TIP3   OH253988   3.253   2.053  12.628 -0.5389  0.9767  0.0282
10858TIP3    H153989   3.259   2.013  12.541 -0.2712  1.0988 -0.0113
10858TIP3    H253990   3.335   2.101  12.638 -0.9334  1.6772 -0.0062
10859TIP3   OH253991   3.785   0.075   4.888  0.1038 -0.2618  0.0263
10859TIP3    H153992   3.849   0.140   4.859  0.7448 -0.9467 -0.1206
10859TIP3    H253993   3.835  -0.006   4.895 -0.8210 -0.8865 -0.4102
10860TIP3   OH253994   2.532   4.078   1.098 -0.0553 -0.2498 -0.2192
10860TIP3    H153995   2.508   4.009   1.036 -0.1117 -1.4512  1.0939
10860TIP3    H253996   2.448   4.113   1.129 -0.0549 -0.7531  0.3616
10861TIP3   OH253997   2.663   3.796  13.632 -0.1045 -0.3531  0.5015
10861TIP3    H153998   2.572   3.822  13.643 -0.4683 -2.1867  2.7203
10861TIP3    H253999   2.712   3.856  13.688  0.1299  0.8043 -0.8985
10862TIP3   OH254000   4.797   2.736  11.979 -0.4597  0.6988  0.1289
10862TIP3    H154001   4.791   2.649  11.938  0.7031 -0.2371  1.8213
10862TIP3    H254002   4.706   2.762  11.993 -0.8293 -0.2384 -0.4063
10863TIP3   OH254003   4.672   2.660  13.460  0.0366  0.2552 -0.2189
10863TIP3    H154004   4.584   2.628  13.440  0.0357 -0.0100  0.1945
10863TIP3    H254005   4.722   2.581  13.479  0.3888  0.3996 -0.5445
10864TIP3   OH254006   5.631   3.715   0.576  0.0926 -0.4161  0.2750
10864TIP3    H154007   5.701   3.650   0.578  1.4843  1.0134  0.7486
10864TIP3    H254008   5.672   3.793   0.539 -1.1731  0.5594  0.8542
10865TIP3   OH254009   5.662   2.905   3.179 -0.3791  0.5789 -0.2154
10865TIP3    H154010   5.753   2.920   3.204 -0.2328 -0.3008 -0.1833
10865TIP3    H254011   5.611   2.936   3.254 -0.0085 -0.6585  0.5955
10866TIP3   OH254012   2.057   0.378  16.898 -0.1141  0.6779  0.3856
10866TIP3    H154013   2.012   0.294  16.898 -0.0092  0.6212  0.3403
10866TIP3    H254014   2.150   0.356  16.887 -0.1123  0.8112  0.1168
10867TIP3   OH254015   1.074   2.938  12.051 -0.0553  0.4408 -0.2417
10867TIP3    H154016   1.159   2.946  12.094 -0.1520 -1.2310  0.3489
10867TIP3    H254017   1.082   2.991  11.972  1.9771 -0.6065 -0.8213
10868TIP3   OH254018   5.544   5.791  11.970 -0.3045 -0.2743 -0.9571
10868TIP3    H154019   5.607   5.858  11.944  0.5825 -0.8529 -0.3313
10868TIP3    H254020   5.554   5.784  12.065 -2.5349  0.8345 -0.5633
10869TIP3   OH254021   3.045   5.872  15.508 -0.2605 -0.2914 -0.6257
10869TIP3    H154022   3.018   5.791  15.464 -0.2466 -1.0557  0.7262
10869TIP3    H254023   3.141   5.874  15.497 -0.2904 -0.3014 -0.9017
10870TIP3   OH254024   0.068   6.544   5.450 -0.2962 -0.2524  0.0146
10870TIP3    H154025   0.126   6.496   5.509 -0.6174 -2.5459 -1.3689
10870TIP3    H254026  -0.007   6.485   5.438  0.1660 -0.3639 -3.3055
10871TIP3   OH254027   0.273   0.713  14.513 -0.2853 -0.2821 -0.2960
10871TIP3    H154028   0.327   0.792  14.517 -0.3014 -0.2500 -0.7037
10871TIP3    H254029   0.290   0.668  14.596 -0.1720  0.0800 -0.1206
10872TIP3   OH254030   6.348   2.213  14.654 -0.1353  0.4751 -0.4322
10872TIP3    H154031   6.380   2.124  14.645 -0.7801 -0.0815  1.9244
10872TIP3    H254032   6.426   2.268  14.656  0.3694 -0.2455 -0.2001
10873TIP3   OH254033   6.564   5.110  14.557 -0.3017  0.2768 -0.5023
10873TIP3    H154034   6.616   5.154  14.489 -2.0622  1.1402 -1.3512
10873TIP3    H254035   6.553   5.177  14.625  0.1247 -0.0810 -0.0734
10874TIP3   OH254036   4.031   5.098  14.233  0.0449  0.6007 -0.2495
10874TIP3    H154037   3.942   5.125  14.254 -0.6430 -2.6216  1.5524
10874TIP3    H254038   4.024   5.047  14.153  0.4365  0.9500 -0.5177
10875TIP3   OH254039   3.383   5.203  16.980 -0.3062  0.9383  0.4758
10875TIP3    H154040   3.376   5.227  16.888 -1.1557  0.8317  0.5080
10875TIP3    H254041   3.468   5.160  16.987 -0.5802  0.2154 -0.4316
10876TIP3   OH254042   2.086   5.119   6.738 -0.3907  0.0202  0.2154
10876TIP3    H154043   2.046   5.034   6.720 -1.1003  0.5037 -0.5612
10876TIP3    H254044   2.012   5.177   6.754  0.0021  0.8182 -0.7645
10877TIP3   OH254045   5.841   6.539   3.994  0.1087  0.1559  0.1549
10877TIP3    H154046   5.913   6.575   4.045 -1.5288  0.4833  2.3847
10877TIP3    H254047   5.805   6.469   4.048 -1.0995 -0.1606 -1.0018
10878TIP3   OH254048   1.150   4.788   2.008  0.4012 -0.0855  0.1720
10878TIP3    H154049   1.135   4.883   2.004  1.5123  0.0782 -0.7590
10878TIP3    H254050   1.209   4.776   2.082 -0.3113 -0.1461  0.7393
10879TIP3   OH254051   4.144   2.461   2.192 -0.1329 -0.1151  0.0226
10879TIP3    H154052   4.170   2.501   2.109  0.4105 -0.4681  0.0143
10879TIP3    H254053   4.085   2.390   2.166  1.8414 -1.7287 -0.2683
10880TIP3   OH254054   0.699   3.989   1.976  0.2537  0.0013 -0.2960
10880TIP3    H154055   0.699   4.084   1.982 -2.9873  0.2205 -1.3880
10880TIP3    H254056   0.714   3.958   2.065 -0.0195  1.5787  0.3193
10881TIP3   OH254057   2.720   3.211  11.906  0.2068 -1.0280  0.2090
10881TIP3    H154058   2.664   3.285  11.884 -1.7588 -3.3219 -3.4118
10881TIP3    H254059   2.808   3.250  11.914 -0.7893  1.7457 -0.9210
10882TIP3   OH254060   5.116   5.741   3.797  0.0353  0.4592 -0.1930
10882TIP3    H154061   5.049   5.781   3.743 -0.3040 -2.6886 -2.3885
10882TIP3    H254062   5.187   5.720   3.736  1.1697 -0.1145  1.2504
10883TIP3   OH254063   4.304   5.989   2.857 -1.0447  0.7145  0.4677
10883TIP3    H154064   4.326   5.898   2.876 -0.3362  0.8096  0.1167
10883TIP3    H254065   4.221   5.983   2.809 -1.3019  0.2929  0.9565
10884TIP3   OH254066   2.701   1.613  14.050  0.9469 -0.5838  0.0643
10884TIP3    H154067   2.764   1.556  14.093  0.5996  0.3099  1.8545
10884TIP3    H254068   2.732   1.702  14.070 -0.0190 -0.1422 -0.3446
10885TIP3   OH254069   0.871   3.404   1.090  0.6274  0.0915  0.4347
10885TIP3    H154070   0.843   3.474   1.030  0.4292 -0.2067  0.1772
10885TIP3    H254071   0.792   3.385   1.142  0.1132 -1.2664 -0.7946
10886TIP3   OH254072   4.365   0.463  15.774 -0.2468 -0.0108  0.0172
10886TIP3    H154073   4.329   0.376  15.757 -0.1338  0.2414 -1.7379
10886TIP3    H254074   4.433   0.474  15.708 -0.0159  1.2751  0.4352
10887TIP3   OH254075   1.197   0.037  11.333 -0.6886  0.1951  0.0856
10887TIP3    H154076   1.287   0.011  11.311 -1.6154 -1.6145 -1.8172
10887TIP3    H254077   1.188   0.013  11.426  0.8208  0.5801  0.3648
10888TIP3   OH254078   0.734   3.065   3.795 -0.4931  0.3823  0.2120
10888TIP3    H154079   0.671   3.056   3.724 -0.4721  2.0360 -0.0565
10888TIP3    H254080   0.689   3.120   3.860  0.3900  0.9702  0.3429
10889TIP3   OH254081   0.396   0.948  14.652 -0.0736  0.2677  0.5696
10889TIP3    H154082   0.333   0.917  14.717  0.4221  0.6142  1.2302
10889TIP3    H254083   0.399   1.043  14.666 -1.8820  0.7452 -1.6846
10890TIP3   OH254084   0.910   2.643   3.198  0.0312  0.2902 -0.5332
10890TIP3    H154085   0.827   2.689   3.213  0.1448  0.2550  0.2934
10890TIP3    H254086   0.901   2.604   3.112 -1.0871 -0.2816 -0.1791
10891TIP3   OH254087   0.846   5.996   5.145  0.1327 -0.2880 -0.4498
10891TIP3    H154088   0.826   5.902   5.139  0.0240 -0.2269 -1.0335
10891TIP3    H254089   0.908   6.001   5.218  2.2305 -1.1827 -2.0327
10892TIP3   OH254090   5.103   2.929  13.517 -0.2385  0.0399  0.0174
10892TIP3    H154091   5.156   2.859  13.556 -0.4924 -0.6680 -0.8920
10892TIP3    H254092   5.090   2.902  13.426 -0.3356  1.2754 -0.3568
10893TIP3   OH254093   4.449   2.360   5.866  0.2521 -0.5190 -0.2226
10893TIP3    H154094   4.513   2.420   5.827  0.0071  1.1690  1.7873
10893TIP3    H254095   4.409   2.316   5.791  0.8268  1.4353 -1.7668
10894TIP3   OH254096   0.264   4.663  16.229  0.0632 -0.3612 -0.3687
10894TIP3    H154097   0.285   4.754  16.247 -1.0633 -0.3443  1.0459
10894TIP3    H254098   0.169   4.663  16.215  0.2267 -1.1368 -1.5983
10895TIP3   OH254099   2.343   6.029   2.549 -0.6553 -0.0285 -0.2804
10895TIP3    H154100   2.367   6.042   2.640 -0.0475 -1.8206 -0.1570
10895TIP3    H254101   2.421   5.993   2.508 -1.2489 -0.2421 -1.2681
10896TIP3   OH254102   6.187   6.362   1.255 -0.0870  0.5144  0.5776
10896TIP3    H154103   6.126   6.366   1.329 -0.6002  1.4465  0.1202
10896TIP3    H254104   6.134   6.330   1.182  0.3424 -0.0968  0.5227
10897TIP3   OH254105   2.374   3.043   4.092  0.0783 -0.0137 -0.1972
10897TIP3    H154106   2.365   3.104   4.018  0.0179  0.8416  0.5038
10897TIP3    H254107   2.296   3.058   4.145 -1.0426 -2.2090 -1.0540
10898TIP3   OH254108   0.006   0.802  12.679 -0.7219  1.0450 -0.8082
10898TIP3    H154109   0.078   0.779  12.620  0.0046 -0.7722  0.7080
10898TIP3    H254110   0.008   0.735  12.747 -4.5191  0.2718 -1.2335
10899TIP3   OH254111   2.993   4.170  12.409 -0.1712 -0.7126  0.0538
10899TIP3    H154112   2.966   4.248  12.362 -1.7380 -1.2860 -0.0486
10899TIP3    H254113   2.960   4.097  12.355  2.3227 -1.5213 -0.5196
10900TIP3   OH254114   2.342   1.027   2.139  0.0057  0.3105  0.0320
10900TIP3    H154115   2.255   1.039   2.099 -0.0603  2.3288  0.6573
10900TIP3    H254116   2.402   1.032   2.065 -0.3723 -0.8354 -0.3746
10901TIP3   OH254117   2.757   6.290  17.490 -0.3784 -0.1699  0.2716
10901TIP3    H154118   2.723   6.362  17.437  1.2838  0.8428  0.4958
10901TIP3    H254119   2.786   6.225  17.426 -0.4105  0.0733  0.0068
10902TIP3   OH254120   6.419   4.908  14.694 -0.0748  0.2343  0.6123
10902TIP3    H154121   6.334   4.930  14.732  0.3328  1.1044  1.0408
10902TIP3    H254122   6.450   4.989  14.654  0.6140 -0.0407  0.5689
10903TIP3   OH254123   6.307   5.083  16.408  0.0489  0.2759 -0.5028
10903TIP3    H154124   6.299   5.049  16.496 -0.2356  0.0049 -0.6349
10903TIP3    H254125   6.221   5.071  16.369  0.2354  0.1844 -0.8927
10904TIP3   OH254126   2.092   6.661   1.606  0.5016 -0.0747  0.2585
10904TIP3    H154127   2.092   6.756   1.609  1.0361 -0.0778  2.6559
10904TIP3    H254128   2.116   6.634   1.695  3.0400 -2.4365 -0.9790
10905TIP3   OH254129   6.051   3.828   3.985  0.2425 -0.6888  0.0001
10905TIP3    H154130   6.069   3.890   3.914 -0.0711 -0.0237  0.4847
10905TIP3    H254131   6.105   3.752   3.966  0.9110 -0.1141 -0.4115
10906TIP3   OH254132   3.090   1.984  16.463  0.9523 -0.0260 -0.6231
10906TIP3    H154133   3.120   2.027  16.544  0.4016  1.3158 -1.1130
10906TIP3    H254134   3.049   1.903  16.493  1.0747  0.2822  0.4187
10907TIP3   OH254135   3.089   5.929   2.805  0.0275 -0.3888 -0.1733
10907TIP3    H154136   2.999   5.959   2.820 -0.3726 -1.3925 -0.4825
10907TIP3    H254137   3.144   6.000   2.839 -0.8769  0.2913 -0.0911
10908TIP3   OH254138   2.752   0.548  17.438  0.0787  0.0985 -0.2726
10908TIP3    H154139   2.785   0.462  17.413 -2.4610 -0.4291 -2.2462
10908TIP3    H254140   2.705   0.532  17.521 -2.1076 -0.9854 -1.6147
10909TIP3   OH254141   5.976   4.906   3.988  0.3469 -0.6237  0.3949
10909TIP3    H154142   6.020   4.866   3.913  1.5914 -0.1198  0.8400
10909TIP3    H254143   5.900   4.850   4.004 -0.5316 -0.2221 -1.8400
10910TIP3   OH254144   6.322   5.764   2.997  0.1922  1.1226  0.9643
10910TIP3    H154145   6.361   5.729   3.077 -0.9110 -0.3467  0.9077
10910TIP3    H254146   6.230   5.777   3.019  0.1828  2.2091  0.3762
10911TIP3   OH254147   1.520   2.042  12.941 -0.0347 -0.3430  0.6751
10911TIP3    H154148   1.607   2.002  12.928  0.0237  0.4036 -1.6481
10911TIP3    H254149   1.526   2.126  12.896 -1.6436  0.2035  1.4417
10912TIP3   OH254150   5.120   1.345   1.785  0.4667  0.3820  0.5045
10912TIP3    H154151   5.032   1.356   1.821 -0.0279 -2.2022  0.3093
10912TIP3    H254152   5.179   1.365   1.857 -0.4406 -1.8172  1.9576
10913TIP3   OH254153   3.424   6.204  11.397 -0.9380  0.0420 -0.1833
10913TIP3    H154154   3.342   6.206  11.447 -1.5237 -0.2737 -1.0906
10913TIP3    H254155   3.422   6.283  11.343  0.0990  0.8315  0.8858
10914TIP3   OH254156   2.878   3.743   3.053  0.0106  0.2236  0.6000
10914TIP3    H154157   2.784   3.761   3.048  0.1724  1.7452  2.2433
10914TIP3    H254158   2.918   3.805   2.992 -0.0802 -1.2676 -1.0642
10915TIP3   OH254159   2.092   1.011  16.563 -0.3971  0.1883  0.1164
10915TIP3    H154160   2.113   0.933  16.614  1.4022  1.4936  1.5501
10915TIP3    H254161   2.002   0.999  16.535 -0.9866 -1.3007  2.3987
10916TIP3   OH254162   4.234   5.580   2.651  0.0131 -0.5641 -0.4459
10916TIP3    H154163   4.268   5.610   2.735  1.8184 -1.7083 -0.7025
10916TIP3    H254164   4.304   5.526   2.615 -1.9250 -2.7297 -1.2470
10917TIP3   OH254165   4.084   2.028  11.626  0.0379 -0.3195  0.1331
10917TIP3    H154166   4.012   2.051  11.567 -0.2654 -0.8252  0.3005
10917TIP3    H254167   4.096   2.106  11.680  0.3344  0.1551 -0.6057
10918TIP3   OH254168   0.257   5.281  15.830  0.1441 -0.0236  0.0948
10918TIP3    H154169   0.210   5.308  15.751  1.4361  1.8259 -0.1198
10918TIP3    H254170   0.311   5.358  15.853  0.5699 -0.8767  2.1863
10919TIP3   OH254171   1.531   3.792   5.449 -0.3998  0.1313  0.1738
10919TIP3    H154172   1.535   3.800   5.354  4.4969 -0.5420  0.0728
10919TIP3    H254173   1.494   3.705   5.464 -0.5786 -0.0378 -1.1232
10920TIP3   OH254174   5.763   5.966  10.722  0.0996  0.6328 -0.6045
10920TIP3    H154175   5.779   5.946  10.629  1.6085  0.9392 -0.4397
10920TIP3    H254176   5.670   5.987  10.727  0.1472  1.3350 -2.1853
10921TIP3   OH254177   0.585   1.583  12.496  0.4361  0.1039 -0.2699
10921TIP3    H154178   0.681   1.585  12.498  0.4260  0.3479  1.4461
10921TIP3    H254179   0.558   1.666  12.535 -0.4243 -0.7538  1.0807
10922TIP3   OH254180   5.062   4.334   3.486 -0.0511  0.2005 -0.1108
10922TIP3    H154181   5.043   4.369   3.573 -0.9356  0.7362 -0.5066
10922TIP3    H254182   5.045   4.240   3.493  0.3326  0.1664  0.4152
10923TIP3   OH254183   6.597   4.648  14.558  0.0087  0.4172  0.2127
10923TIP3    H154184   6.568   4.736  14.536  1.9222  1.3130  1.0585
10923TIP3    H254185   6.565   4.634  14.648  0.0165  0.3775  0.2092
10924TIP3   OH254186   0.617   4.993   4.229 -0.2986 -0.5742 -0.3464
10924TIP3    H154187   0.524   4.978   4.246 -0.0686 -0.2553  1.4244
10924TIP3    H254188   0.625   5.088   4.223  0.2781 -0.3569  2.4158
10925TIP3   OH254189   1.281   3.892   4.396  0.1862  0.4978  0.6546
10925TIP3    H154190   1.201   3.933   4.364 -1.3139 -4.0463 -2.3352
10925TIP3    H254191   1.348   3.915   4.331  0.1345  0.6415  0.6533
10926TIP3   OH254192   2.441   2.371   1.860  0.1101  0.5460  0.1907
10926TIP3    H154193   2.353   2.339   1.840  0.5283  0.1993 -1.1958
10926TIP3    H254194   2.486   2.295   1.896  0.1158  0.4847  0.0530
10927TIP3   OH254195   3.501   1.815  17.422  0.2210 -0.1027 -0.7482
10927TIP3    H154196   3.439   1.871  17.375  0.0263  0.9730  0.7097
10927TIP3    H254197   3.486   1.727  17.387 -1.9012  0.1874 -0.6784
10928TIP3   OH254198   2.589   1.774   2.720  0.5168 -0.8152 -0.4096
10928TIP3    H154199   2.501   1.766   2.756 -0.2799 -0.2224 -2.1431
10928TIP3    H254200   2.623   1.856   2.756 -0.9364  0.6785 -2.2898
10929TIP3   OH254201   1.264   5.726   1.771 -0.3436 -0.1659 -0.3110
10929TIP3    H154202   1.327   5.683   1.829 -0.9078 -0.1000  0.3715
10929TIP3    H254203   1.206   5.656   1.742  0.8712 -0.4959 -2.1028
10930TIP3   OH254204   0.040   0.412  15.284 -0.2939  0.5042 -0.1565
10930TIP3    H154205   0.052   0.376  15.372  1.1339 -2.7028 -1.5310
10930TIP3    H254206  -0.039   0.370  15.251 -0.0069  0.5751 -0.9404
10931TIP3   OH254207   2.636   4.706  15.247  0.1888 -0.2104  0.4146
10931TIP3    H154208   2.645   4.728  15.340 -2.2463  2.4963  0.1566
10931TIP3    H254209   2.708   4.751  15.204 -0.0874  0.6199  0.7876
10932TIP3   OH254210   2.256   3.738   4.566 -0.4011 -0.4878  0.5584
10932TIP3    H154211   2.162   3.719   4.567 -0.3843 -0.5958  0.2454
10932TIP3    H254212   2.298   3.653   4.573 -0.3260 -0.4713  0.3080
10933TIP3   OH254213   3.587   2.218  17.379  0.1483 -0.1552 -0.2182
10933TIP3    H154214   3.680   2.209  17.396  0.6335  0.5481 -2.2451
10933TIP3    H254215   3.579   2.297  17.325 -1.7406  0.3690  0.7474
10934TIP3   OH254216   0.588   2.243   4.431 -0.3095 -0.1528  0.2361
10934TIP3    H154217   0.607   2.258   4.524  1.6025  0.7119 -0.2395
10934TIP3    H254218   0.598   2.329   4.390 -0.2170 -0.6874 -0.9125
10935TIP3   OH254219   3.004   0.445  15.711  0.2965 -0.3238  0.3056
10935TIP3    H154220   3.054   0.492  15.778  1.2439 -1.4009  0.3864
10935TIP3    H254221   3.070   0.420  15.646 -0.5454  0.3764 -0.8605
10936TIP3   OH254222   1.181   0.450  13.459  0.3479  0.5292 -0.4816
10936TIP3    H154223   1.253   0.390  13.439  0.6582  1.3167 -1.8496
10936TIP3    H254224   1.222   0.519  13.512 -0.0747 -0.5732  1.3664
10937TIP3   OH254225   0.672   4.736   5.598 -0.3138  0.2966 -0.1173
10937TIP3    H154226   0.709   4.771   5.517 -0.8313 -0.0307 -0.5013
10937TIP3    H254227   0.743   4.742   5.662 -0.2363  1.5722 -0.3028
10938TIP3   OH254228   3.158   6.521   5.127  0.2124 -0.2959  0.2772
10938TIP3    H154229   3.114   6.505   5.210  2.9847 -3.4766  1.3814
10938TIP3    H254230   3.241   6.562   5.151  1.5451 -2.2488 -0.7009
10939TIP3   OH254231   6.633   3.721  13.661 -0.1295 -0.2963  0.3583
10939TIP3    H154232   6.669   3.633  13.670  3.5760  1.1406  1.7586
10939TIP3    H254233   6.705   3.773  13.624 -1.5505  2.4657  1.1584
10940TIP3   OH254234   6.492   4.374  13.562 -0.1402 -0.0714 -0.4601
10940TIP3    H154235   6.522   4.283  13.553 -1.2310 -0.3869 -1.1066
10940TIP3    H254236   6.451   4.377  13.649 -0.3439 -0.2737 -0.5475
10941TIP3   OH254237   6.228   0.631  12.949  0.9228  0.0936 -0.1087
10941TIP3    H154238   6.268   0.544  12.958  0.6946 -0.0649 -0.5722
10941TIP3    H254239   6.270   0.668  12.871  1.0814  0.4372  0.1387
10942TIP3   OH254240   2.896   4.204  15.284 -0.5171  0.0162 -1.0900
10942TIP3    H154241   2.875   4.265  15.213  0.5557 -0.8727 -2.2081
10942TIP3    H254242   2.985   4.176  15.266 -0.6058 -1.0579  0.0225
10943TIP3   OH254243   5.768   0.850   4.158 -0.3680 -0.3700 -0.4143
10943TIP3    H154244   5.724   0.801   4.227 -0.4499  0.6819  0.2953
10943TIP3    H254245   5.831   0.788   4.122 -1.2438 -1.3538 -0.3060
10944TIP3   OH254246   4.916   6.653  13.395  0.3155 -0.2713 -0.2004
10944TIP3    H154247   5.009   6.651  13.373  0.6086 -0.0046  0.9529
10944TIP3    H254248   4.894   6.562  13.414  1.1290  0.0315  2.5495
10945TIP3   OH254249   2.954   0.549   0.653 -0.3394 -0.3713  0.6477
10945TIP3    H154250   2.987   0.600   0.728  0.2424 -2.0355  1.5861
10945TIP3    H254251   3.018   0.564   0.584 -0.4468  0.5597  0.7390
10946TIP3   OH254252   6.157   4.242  13.786 -0.0922  0.0498 -0.0231
10946TIP3    H154253   6.082   4.219  13.731  0.2547 -1.3155  0.0509
10946TIP3    H254254   6.144   4.192  13.867  0.5834  0.2885  0.2415
10947TIP3   OH254255   0.770   2.140  11.519  0.4645 -0.3085 -0.3807
10947TIP3    H154256   0.859   2.106  11.524  1.3559  1.6593 -1.5829
10947TIP3    H254257   0.734   2.103  11.438 -0.2889 -2.0345  0.6900
10948TIP3   OH254258   5.136   6.609   3.085  0.8456 -0.3687  0.5438
10948TIP3    H154259   5.153   6.699   3.057 -0.4144 -0.5669 -1.0516
10948TIP3    H254260   5.073   6.617   3.156 -1.8198  0.0329 -1.6641
10949TIP3   OH254261   0.515   5.043   4.813 -0.0331  0.1460  0.0227
10949TIP3    H154262   0.445   5.062   4.875 -0.0750  1.8936 -0.5024
10949TIP3    H254263   0.596   5.050   4.864  0.0026  2.6214 -0.2620
10950TIP3   OH254264   5.898   3.824  12.563 -0.4480  0.1733  0.3553
10950TIP3    H154265   5.916   3.916  12.580  0.0868  0.0666  0.3823
10950TIP3    H254266   5.886   3.785  12.650  1.8271 -0.2788  0.5444
10951TIP3   OH254267   0.137   0.838  13.113 -0.3350  0.1024  0.0907
10951TIP3    H154268   0.203   0.861  13.177 -0.5428 -1.9165  1.1241
10951TIP3    H254269   0.093   0.920  13.092  2.2386  1.4665 -0.4124
10952TIP3   OH254270   5.411   1.491  15.777 -0.2915 -0.5784  0.7814
10952TIP3    H154271   5.404   1.551  15.702  1.0758 -1.1210  0.1821
10952TIP3    H254272   5.344   1.521  15.838 -1.0651  0.2372 -0.4118
10953TIP3   OH254273   0.279   4.290  12.528  0.0621 -0.1208  0.3475
10953TIP3    H154274   0.198   4.314  12.573  0.1954  1.2885 -0.1255
10953TIP3    H254275   0.292   4.358  12.462  0.9579 -1.0256 -0.4532
10954TIP3   OH254276   0.495   0.112  15.916 -0.6512  0.2642  0.0403
10954TIP3    H154277   0.551   0.087  15.989 -1.1253 -0.3905  0.1914
10954TIP3    H254278   0.413   0.063  15.930 -0.6741 -0.0496 -1.0337
10955TIP3   OH254279   4.746   3.491  13.555  0.8102 -0.2610 -0.5557
10955TIP3    H154280   4.697   3.502  13.474  0.9542 -2.2071 -0.9566
10955TIP3    H254281   4.683   3.455  13.617  0.8237  0.7622  0.0761
10956TIP3   OH254282   6.412   3.096  14.215 -0.0918  0.2764 -0.3286
10956TIP3    H154283   6.476   3.158  14.249  0.6618 -0.5265 -0.2477
10956TIP3    H254284   6.385   3.044  14.291 -0.7082  0.4857 -0.3963
10957TIP3   OH254285   0.072   4.976   2.957  0.5362  0.1425  0.3314
10957TIP3    H154286   0.080   5.044   3.024 -1.0156  2.4769 -1.6879
10957TIP3    H254287   0.121   5.010   2.882  0.6385 -1.5156 -0.4024
10958TIP3   OH254288   4.430   4.928   1.317 -0.3333 -0.1645 -0.1278
10958TIP3    H154289   4.439   5.022   1.330  0.6056 -0.4814  1.8141
10958TIP3    H254290   4.337   4.910   1.335 -0.5269  0.3606 -0.5564
10959TIP3   OH254291   0.330   3.751   5.571 -0.0820  0.5501  0.1999
10959TIP3    H154292   0.261   3.746   5.637  0.3534 -2.5425  0.5721
10959TIP3    H254293   0.289   3.792   5.495 -2.0784 -0.4475  0.6949
10960TIP3   OH254294   1.236   1.977  13.627  0.0396  0.3514 -0.0172
10960TIP3    H154295   1.312   1.940  13.672 -0.4055 -0.2876  0.2130
10960TIP3    H254296   1.160   1.935  13.668 -0.6329  2.8769  1.6236
10961TIP3   OH254297   0.360   2.990   2.715 -0.3649 -0.0392  0.3281
10961TIP3    H154298   0.307   3.068   2.733  0.5653  0.7048 -0.1067
10961TIP3    H254299   0.296   2.926   2.684 -0.8519  1.2965 -1.5841
10962TIP3   OH254300   4.206   5.155  11.188  0.7642  0.3299  0.4135
10962TIP3    H154301   4.136   5.091  11.199  0.1847  1.1613  1.8083
10962TIP3    H254302   4.283   5.113  11.226  0.4414  0.3584  1.1154
10963TIP3   OH254303   4.658   1.390  14.154  0.2793 -0.1803  0.7515
10963TIP3    H154304   4.706   1.448  14.095 -2.5669 -1.2434 -3.0932
10963TIP3    H254305   4.713   1.312  14.160  0.8631  0.1320 -0.2205
10964TIP3   OH254306   6.268   5.662   1.435 -0.3089 -0.1739  0.3802
10964TIP3    H154307   6.268   5.699   1.347 -0.2760 -0.2895  0.3303
10964TIP3    H254308   6.178   5.671   1.465 -0.5517 -1.0034 -0.0427
10965TIP3   OH254309   4.688   3.709  14.328 -0.0840  0.4269  0.3419
10965TIP3    H154310   4.600   3.742  14.308  0.9040  1.4725 -2.8784
10965TIP3    H254311   4.687   3.619  14.297  0.6224  1.1846 -2.0264
10966TIP3   OH254312   6.630   4.181  14.095 -0.0226  0.2533 -0.1342
10966TIP3    H154313   6.600   4.230  14.172  1.7472 -1.9638  2.1306
10966TIP3    H254314   6.557   4.123  14.074  0.1448 -0.4435  1.1140
10967TIP3   OH254315   0.820   0.808   6.186  0.5294  0.1701  0.3156
10967TIP3    H154316   0.915   0.812   6.174  0.4079 -1.0684 -1.5223
10967TIP3    H254317   0.790   0.744   6.121 -1.5337  0.2735  1.0783
10968TIP3   OH254318   3.953   6.261   2.352 -0.1036 -0.2844 -0.4863
10968TIP3    H154319   4.041   6.240   2.319 -0.3782 -0.0547 -1.3839
10968TIP3    H254320   3.965   6.345   2.397  0.4620 -1.0466  0.8433
10969TIP3   OH254321   5.742   4.085  16.339  0.8255 -0.4663  0.3465
10969TIP3    H154322   5.811   4.033  16.299  1.1085 -0.0988  0.3522
10969TIP3    H254323   5.785   4.167  16.362  0.6387 -0.6176  1.2744
10970TIP3   OH254324   5.546   6.306   2.260 -0.2975 -0.0121 -0.1144
10970TIP3    H154325   5.455   6.281   2.275 -0.2656  0.0835  0.2309
10970TIP3    H254326   5.544   6.355   2.178 -0.5633  0.0230 -0.0875
10971TIP3   OH254327   2.810   1.722  11.048  0.0215  0.0166 -0.2167
10971TIP3    H154328   2.851   1.636  11.041 -1.2887 -0.7707  1.2564
10971TIP3    H254329   2.798   1.750  10.957 -0.5968 -1.8897 -0.7686
10972TIP3   OH254330   4.184   6.372  15.143 -0.2535  0.4707 -0.3810
10972TIP3    H154331   4.114   6.368  15.078 -0.6050  1.3079 -0.0760
10972TIP3    H254332   4.242   6.441  15.112  0.8344 -0.6813 -0.9939
10973TIP3   OH254333   0.948   4.973  14.937 -0.0182 -0.1890 -0.3600
10973TIP3    H154334   0.962   5.054  14.985  0.2833 -0.6419  0.3348
10973TIP3    H254335   0.977   4.904  14.997 -2.1517 -0.9650 -0.1301
10974TIP3   OH254336   0.348   5.520  16.483 -0.1770 -0.4798 -0.8219
10974TIP3    H154337   0.264   5.528  16.438  0.5580 -0.1333 -2.1981
10974TIP3    H254338   0.365   5.607  16.519  0.0477 -0.2787 -1.4043
10975TIP3   OH254339   1.935   1.519   3.201  0.2100  0.4177 -0.3940
10975TIP3    H154340   1.867   1.523   3.134 -0.1619  1.0249  0.0045
10975TIP3    H254341   1.891   1.487   3.279  0.5133  0.2482 -0.2902
10976TIP3   OH254342   2.369   3.431  11.097  0.0587 -0.4943 -0.6365
10976TIP3    H154343   2.308   3.365  11.132  0.2852 -1.1861 -1.4888
10976TIP3    H254344   2.325   3.463  11.018  0.4409 -0.4200 -0.8190
10977TIP3   OH254345   4.399   6.330  13.045 -0.1338  0.1746  0.1126
10977TIP3    H154346   4.427   6.418  13.067 -0.3693  0.4669 -0.7223
10977TIP3    H254347   4.379   6.333  12.952  0.3172 -0.8791 -0.0415
10978TIP3   OH254348   2.338   2.548  12.059  0.1156  0.3527  0.4430
10978TIP3    H154349   2.312   2.467  12.015 -1.2018  2.0998 -2.2299
10978TIP3    H254350   2.421   2.571  12.018 -0.6933  1.5491 -0.5832
10979TIP3   OH254351   2.717   2.301   2.949  0.2508  0.1141 -0.0148
10979TIP3    H154352   2.668   2.283   3.029  2.0802 -0.8532  0.9451
10979TIP3    H254353   2.774   2.375   2.972 -0.2168  0.7665 -0.8895
10980TIP3   OH254354   4.461   3.475   4.719  0.3110 -0.1409  0.3309
10980TIP3    H154355   4.488   3.474   4.811  1.3457 -0.6662  0.0340
10980TIP3    H254356   4.543   3.476   4.669 -0.2304  0.8583 -0.5952
10981TIP3   OH254357   3.211   2.006  13.657  0.2515 -0.3337 -0.0499
10981TIP3    H154358   3.198   2.014  13.562  0.7722 -0.3228 -0.1226
10981TIP3    H254359   3.232   1.914  13.670  0.8782 -0.1896 -0.0310
10982TIP3   OH254360   0.441   4.241  11.024  0.1071 -0.4170  0.4179
10982TIP3    H154361   0.518   4.293  11.048 -0.7633  0.3377  1.6987
10982TIP3    H254362   0.396   4.294  10.958 -0.6927  0.4504  1.6040
10983TIP3   OH254363   3.803   2.732  12.969 -0.4241  0.4544 -0.1257
10983TIP3    H154364   3.726   2.738  12.913  1.4705  1.1473 -2.8437
10983TIP3    H254365   3.828   2.639  12.966 -0.0980  0.5589 -0.7977
10984TIP3   OH254366   6.429   3.930  11.696 -0.5442  0.0518  0.5908
10984TIP3    H154367   6.513   3.959  11.732 -0.4588  1.6826 -0.7908
10984TIP3    H254368   6.436   3.947  11.602 -1.4418 -2.3151  0.0108
10985TIP3   OH254369   6.079   4.856  13.697  0.4060  0.6328 -0.0637
10985TIP3    H154370   6.119   4.942  13.683 -0.2873  1.3217  1.9273
10985TIP3    H254371   6.037   4.862  13.783  0.3323 -1.7061  0.1254
10986TIP3   OH254372   4.372   0.884   3.977 -0.1668  0.0567 -0.1280
10986TIP3    H154373   4.350   0.818   3.911  3.4978 -1.0175 -0.4973
10986TIP3    H254374   4.361   0.839   4.060  0.7094 -0.5592 -0.3190
10987TIP3   OH254375   3.155   1.139   1.926 -0.0219  0.1452 -0.0284
10987TIP3    H154376   3.114   1.074   1.983  0.8170 -0.5080 -0.1647
10987TIP3    H254377   3.202   1.088   1.860  3.3916  0.7277  1.7233
10988TIP3   OH254378   2.145   2.300  10.683 -0.1582  0.0020  0.0931
10988TIP3    H154379   2.100   2.215  10.687 -0.7142  0.3186  2.3862
10988TIP3    H254380   2.074   2.364  10.673  0.2756  0.2382 -1.9075
10989TIP3   OH254381   4.008   1.094   5.917 -0.1931  0.2873 -0.5773
10989TIP3    H154382   3.924   1.137   5.930 -0.8569 -0.6867 -1.4693
10989TIP3    H254383   4.010   1.024   5.983  0.4585  1.0439  0.2311
10990TIP3   OH254384   4.710   3.396  14.479  0.2447  0.3857 -0.0324
10990TIP3    H154385   4.730   3.306  14.503  2.3165  0.6566 -0.6013
10990TIP3    H254386   4.615   3.403  14.489  0.1501 -1.6095  0.8052
10991TIP3   OH254387   3.997   1.916  15.113  0.1498 -0.4957  0.2925
10991TIP3    H154388   3.948   1.968  15.176 -0.8123  0.7951 -1.4297
10991TIP3    H254389   3.931   1.877  15.056  0.9569 -2.1339  0.4169
10992TIP3   OH254390   1.837   3.432   1.533  0.2952 -0.3408 -0.1572
10992TIP3    H154391   1.794   3.347   1.529 -1.2454  0.2698  1.5894
10992TIP3    H254392   1.849   3.448   1.627  0.0118  1.5826 -0.4104
10993TIP3   OH254393   5.223   0.621  14.181 -0.2519 -0.1300  0.0547
10993TIP3    H154394   5.240   0.674  14.259  3.2362 -0.1860 -0.5001
10993TIP3    H254395   5.254   0.676  14.109 -0.0701 -1.4658 -0.9146
10994TIP3   OH254396   5.694   5.732   2.495  0.8538  0.4310  0.2733
10994TIP3    H154397   5.785   5.762   2.495  1.5019 -1.3720  0.0381
10994TIP3    H254398   5.701   5.637   2.489 -1.0234  0.1273  1.8460
10995TIP3   OH254399   6.687   1.865   6.734 -0.2543  0.7829 -0.3616
10995TIP3    H154400   6.773   1.827   6.746 -0.5115  0.3986  0.3189
10995TIP3    H254401   6.658   1.833   6.649 -0.9784 -1.5985  0.7096
10996TIP3   OH254402   1.017   3.803   2.162  0.2083 -0.2150  0.3855
10996TIP3    H154403   0.996   3.875   2.222  2.0792  0.4697  0.2934
10996TIP3    H254404   1.068   3.742   2.216  2.2548  0.5943 -0.5364
10997TIP3   OH254405   5.743   0.475  11.728 -0.3160 -0.1831  0.2784
10997TIP3    H154406   5.686   0.500  11.801  1.2230 -1.7356  2.1227
10997TIP3    H254407   5.751   0.555  11.676 -0.3234  1.4629  2.6154
10998TIP3   OH254408   5.302   4.046  12.069  0.5936 -0.0358 -0.1545
10998TIP3    H154409   5.231   4.073  12.011  0.3837  1.7214  0.8325
10998TIP3    H254410   5.382   4.078  12.026  0.4816  0.8187  0.2471
10999TIP3   OH254411   0.306   4.274  14.179  0.0410 -0.7901  0.4596
10999TIP3    H154412   0.279   4.186  14.153  0.3030 -0.7640  0.0936
10999TIP3    H254413   0.226   4.315  14.211 -0.3076 -0.8015 -0.3640
11000TIP3   OH254414   5.613   5.479  12.767  0.1838  0.7208 -0.3308
11000TIP3    H154415   5.567   5.517  12.692 -0.3481  1.5282  0.3975
11000TIP3    H254416   5.586   5.387  12.767 -0.2731  0.8498 -0.7781
11001TIP3   OH254417   0.909   1.303  15.769  0.4714  0.2190 -0.2881
11001TIP3    H154418   0.828   1.342  15.738  1.4125  1.7758 -0.8965
11001TIP3    H254419   0.924   1.229  15.710  2.5099  3.4061 -4.2456
11002TIP3   OH254420   3.001   5.698  12.976 -0.1221  0.1095 -0.4595
11002TIP3    H154421   3.091   5.676  12.998 -0.3924  0.0452  0.6592
11002TIP3    H254422   3.008   5.772  12.916  0.6524  0.7989  0.4584
11003TIP3   OH254423   5.244   0.990   4.610 -0.5070  0.2710 -0.0978
11003TIP3    H154424   5.200   0.928   4.553 -1.6228 -0.6347  1.6515
11003TIP3    H254425   5.269   1.063   4.553 -1.1484 -0.7804 -1.7830
11004TIP3   OH254426   3.339   5.165   3.403  0.4068  0.0256  0.0209
11004TIP3    H154427   3.270   5.122   3.352  0.2144 -1.0330  1.1403
11004TIP3    H254428   3.420   5.142   3.358  0.1987 -0.5084 -0.0863
11005TIP3   OH254429   6.412   2.431  13.944 -0.4658  0.5153  0.8770
11005TIP3    H154430   6.421   2.345  13.986  0.2149  0.5325  0.7819
11005TIP3    H254431   6.500   2.469  13.949 -0.0100 -0.0356 -1.7469
11006TIP3   OH254432   6.498   4.869  13.798  0.0204  0.3792  0.6074
11006TIP3    H154433   6.509   4.954  13.756  0.9524  0.9365  1.9194
11006TIP3    H254434   6.586   4.843  13.823 -0.0519 -1.6506 -0.9780
11007TIP3   OH254435   2.916   1.253   2.541 -0.5730  0.0561 -0.0538
11007TIP3    H154436   2.853   1.324   2.556 -0.2749  0.2431  0.3018
11007TIP3    H254437   3.001   1.296   2.536 -0.2636 -0.3735  1.1518
11008TIP3   OH254438   2.358   0.043  16.869  0.2946 -0.4565 -0.7928
11008TIP3    H154439   2.373   0.123  16.920 -0.6660 -0.4693 -0.4823
11008TIP3    H254440   2.347   0.074  16.779  0.6192 -0.3052 -0.7811
11009TIP3   OH254441   1.616   1.550  12.824 -0.4051  0.9513 -0.5450
11009TIP3    H154442   1.528   1.542  12.786 -0.4282 -2.8215 -0.0369
11009TIP3    H254443   1.623   1.476  12.884  2.9028  1.5303 -0.0381
11010TIP3   OH254444   6.476   3.665  14.173 -0.1937  0.0208  0.0764
11010TIP3    H154445   6.430   3.708  14.245  0.1026  0.2376  0.1377
11010TIP3    H254446   6.563   3.706  14.171  0.1493 -0.6631  0.2335
11011TIP3   OH254447   0.299   3.655  13.214  0.5214  0.1775  0.1824
11011TIP3    H154448   0.375   3.689  13.262 -0.8158  0.9830  1.8366
11011TIP3    H254449   0.284   3.568  13.252 -0.8922  1.0521  1.6916
11012TIP3   OH254450   5.294   2.196   3.065  0.7458  0.1858  0.2459
11012TIP3    H154451   5.252   2.180   2.980  0.5577  1.3200  0.1079
11012TIP3    H254452   5.237   2.152   3.128  1.4207 -1.5355 -0.2699
11013TIP3   OH254453   0.153   5.572   5.425 -0.0820  0.0582 -0.0571
11013TIP3    H154454   0.211   5.562   5.500  0.6079  1.1479 -0.4204
11013TIP3    H254455   0.138   5.667   5.419  0.5837  0.0800 -1.8124
11014TIP3   OH254456   3.456   1.344  12.664 -0.0579 -0.5571  0.4745
11014TIP3    H154457   3.537   1.297  12.645  0.7740  1.2662 -0.8391
11014TIP3    H254458   3.422   1.369  12.578 -0.7308  0.7839  1.1005
11015TIP3   OH254459   0.474   3.042   0.587 -0.0417 -0.3430  0.6828
11015TIP3    H154460   0.444   3.131   0.605  1.9603  0.8433 -1.3819
11015TIP3    H254461   0.569   3.046   0.597  0.1675 -2.0202 -0.2778
11016TIP3   OH254462   1.681   1.803  13.212  0.0261  0.2554  0.2734
11016TIP3    H154463   1.659   1.712  13.192  0.0914  0.1838  0.5272
11016TIP3    H254464   1.664   1.812  13.306  1.5180  0.0738  0.5788
11017TIP3   OH254465   2.293   2.745   3.285  1.0281  0.0787  0.6765
11017TIP3    H154466   2.352   2.788   3.224 -0.4759 -0.8727 -1.6011
11017TIP3    H254467   2.260   2.815   3.341  1.9504  1.1105 -0.0479
11018TIP3   OH254468   2.375   3.813   0.023  0.1528 -0.1181  0.3328
11018TIP3    H154469   2.398   3.841   0.112 -0.4108  1.1133  0.1017
11018TIP3    H254470   2.457   3.782  -0.014  0.6014  0.3209  0.9407
11019TIP3   OH254471   5.882   4.883   0.576 -0.4662  0.0520  0.1840
11019TIP3    H154472   5.810   4.853   0.631 -0.9643  2.5232  1.0113
11019TIP3    H254473   5.896   4.974   0.602  1.4433  0.3389 -1.5636
11020TIP3   OH254474   6.621   0.531   2.447  0.1083 -0.6381 -0.0033
11020TIP3    H154475   6.649   0.600   2.508 -1.9323  1.0561 -0.8646
11020TIP3    H254476   6.555   0.482   2.496  0.6772 -1.2294  0.1816
11021TIP3   OH254477   3.400   4.420   1.523  0.4363 -0.2559 -0.2531
11021TIP3    H154478   3.453   4.388   1.450  0.3327 -1.1175  0.0415
11021TIP3    H254479   3.385   4.513   1.503 -0.2851 -0.6619 -1.7608
11022TIP3   OH254480   3.083   1.420   1.361 -0.0134  0.0736  0.1190
11022TIP3    H154481   3.009   1.385   1.311  0.4682 -1.2858  0.3229
11022TIP3    H254482   3.148   1.442   1.294 -0.4533  0.9649 -0.0358
11023TIP3   OH254483   0.656   3.111   2.721 -0.0050  0.6483 -0.1480
11023TIP3    H154484   0.716   3.052   2.768  0.0788  1.2205  0.4754
11023TIP3    H254485   0.572   3.067   2.725 -0.5922  1.7748  2.7451
11024TIP3   OH254486   2.091   4.037  14.059  0.0400 -0.9036 -0.1423
11024TIP3    H154487   2.103   4.124  14.098 -0.9896 -0.6548 -0.3563
11024TIP3    H254488   2.103   4.051  13.965 -0.1263 -0.9902 -0.1771
11025TIP3   OH254489   3.347   2.439   0.238  0.3956 -0.1358  0.3838
11025TIP3    H154490   3.375   2.352   0.211 -0.3286 -0.5419  0.9288
11025TIP3    H254491   3.264   2.426   0.284 -0.6296  1.0318 -1.0383
11026TIP3   OH254492   3.063   0.147  16.213  0.4302  0.1520 -0.1787
11026TIP3    H154493   3.054   0.182  16.124 -3.0325  1.0211  0.3753
11026TIP3    H254494   2.994   0.082  16.220 -0.1244  0.9128  2.2069
11027TIP3   OH254495   5.064   0.922  14.783  0.0477  0.1186 -0.3435
11027TIP3    H154496   5.064   0.950  14.875 -0.6939  1.6151 -0.7551
11027TIP3    H254497   5.031   0.999  14.735 -1.1908 -1.1800 -1.6857
11028TIP3   OH254498   3.181   6.092   4.818  0.1227 -0.0261 -1.2065
11028TIP3    H154499   3.272   6.080   4.791 -0.2135 -0.4565 -2.2006
11028TIP3    H254500   3.178   6.180   4.855  1.3249 -0.6709  0.5307
11029TIP3   OH254501   6.005   0.788  13.983 -0.0868 -0.6629 -0.6231
11029TIP3    H154502   5.935   0.853  13.992 -0.6282 -1.3246  0.0546
11029TIP3    H254503   6.066   0.809  14.053 -0.1290 -0.7200 -0.5696
11030TIP3   OH254504   6.189   4.160  17.459  0.0562  0.7388  0.2806
11030TIP3    H154505   6.255   4.169  17.528  0.2530  0.2117  0.1702
11030TIP3    H254506   6.240   4.139  17.381 -0.3022 -0.5502  0.3771
11031TIP3   OH254507   4.877   3.165   5.322 -0.0728 -0.2817  0.0933
11031TIP3    H154508   4.959   3.117   5.336 -1.0653 -1.7741  1.2030
11031TIP3    H254509   4.827   3.151   5.403 -1.4582  0.4997 -0.5866
11032TIP3   OH254510   6.376   4.113   0.162 -0.7343 -0.3026  0.4604
11032TIP3    H154511   6.312   4.158   0.217 -1.3597 -1.1743  0.4486
11032TIP3    H254512   6.345   4.023   0.156  0.2364 -0.6249  0.0630
11033TIP3   OH254513   3.357   1.973   1.787 -0.0857  0.3847 -0.7368
11033TIP3    H154514   3.287   1.995   1.849 -0.0342 -0.5017 -0.3353
11033TIP3    H254515   3.368   1.878   1.798  0.8251  0.4373 -1.1668
11034TIP3   OH254516   5.329   2.296  16.468 -0.8711 -0.1019 -0.0680
11034TIP3    H154517   5.318   2.371  16.410  0.4777  0.3326  0.2112
11034TIP3    H254518   5.288   2.323  16.550  2.0571  1.5588  1.0079
11035TIP3   OH254519   2.098   0.451   3.238 -0.2395 -0.5948 -0.5668
11035TIP3    H154520   2.007   0.478   3.240 -0.0750 -0.0295  1.8637
11035TIP3    H254521   2.147   0.530   3.261  0.9031 -0.8900 -1.8253
11036TIP3   OH254522   5.025   2.105  15.340 -0.0429  0.0734  0.1835
11036TIP3    H154523   4.994   2.191  15.314  2.1261  1.1117  0.8064
11036TIP3    H254524   5.019   2.104  15.435  1.2314  0.1106  0.2853
11037TIP3   OH254525   6.630   5.874  14.834  0.0026  1.1440  0.0812
11037TIP3    H154526   6.720   5.895  14.808 -0.6820  1.4543 -2.2340
11037TIP3    H254527   6.578   5.947  14.801 -1.1134  1.0546  1.5449
11038TIP3   OH254528   5.608   3.594   0.273 -0.1570 -0.3147  0.3011
11038TIP3    H154529   5.559   3.572   0.194 -1.4029  0.9605  0.6692
11038TIP3    H254530   5.540   3.616   0.338  0.8335 -1.2475  1.7043
11039TIP3   OH254531   0.659   3.487   0.273 -0.1482  0.5843 -0.6189
11039TIP3    H154532   0.581   3.461   0.224  0.8353  1.1489 -2.5868
11039TIP3    H254533   0.625   3.530   0.351 -1.7840 -0.2645 -0.8037
11040TIP3   OH254534   0.680   2.741   6.137 -0.0643 -0.1386 -0.3991
11040TIP3    H154535   0.601   2.688   6.131 -0.1733 -0.5220  2.6348
11040TIP3    H254536   0.741   2.687   6.187  1.3424  1.0016 -0.8211
11041TIP3   OH254537   1.719   5.729   0.969 -0.0227 -0.0339  0.5360
11041TIP3    H154538   1.625   5.728   0.991  0.0589  0.0629  0.8913
11041TIP3    H254539   1.727   5.663   0.900 -0.5177  0.6518 -0.1915
11042TIP3   OH254540   2.827   5.949  16.485 -0.2375 -0.3956 -0.4736
11042TIP3    H154541   2.907   5.970  16.438 -0.3949  0.3635 -0.4135
11042TIP3    H254542   2.758   5.997  16.439 -0.4123  0.2433  0.4223
11043TIP3   OH254543   3.758   2.621   2.051 -0.0714 -0.1719  0.4788
11043TIP3    H154544   3.818   2.572   1.994  0.4676 -0.7877  1.5499
11043TIP3    H254545   3.733   2.558   2.119 -2.7972 -0.2940 -0.5072
11044TIP3   OH254546   4.797   6.015   1.780  0.1692  0.1213  0.6140
11044TIP3    H154547   4.847   6.009   1.698  0.4107  0.7117  0.7080
11044TIP3    H254548   4.846   6.079   1.832 -0.3764  0.2798  0.9364
11045TIP3   OH254549   0.302   1.226   2.592 -0.0866  0.2405 -0.0861
11045TIP3    H154550   0.213   1.194   2.577 -0.6851  1.4373  0.7392
11045TIP3    H254551   0.299   1.263   2.680  1.2891  0.1280  0.0254
11046TIP3   OH254552   5.703   3.981  17.078  0.1570 -0.0258  0.0131
11046TIP3    H154553   5.639   3.964  17.148 -1.0446  0.6218 -0.8910
11046TIP3    H254554   5.767   4.040  17.118 -0.8206  0.7807  0.4213
11047TIP3   OH254555   4.524   5.333   2.868 -0.0380 -0.0380 -0.0697
11047TIP3    H154556   4.432   5.358   2.877  0.0561  0.2646  0.0550
11047TIP3    H254557   4.532   5.305   2.776 -0.0268  0.8890 -0.3563
11048TIP3   OH254558   0.462   2.142  14.477  0.3796 -0.5832  0.5427
11048TIP3    H154559   0.522   2.213  14.500  0.6626 -0.9456  0.9456
11048TIP3    H254560   0.496   2.108  14.394 -0.6153  0.6994 -0.4277
11049TIP3   OH254561   5.820   4.851  11.812 -0.0569 -0.1426  0.7173
11049TIP3    H154562   5.833   4.814  11.900  1.5701  1.7049  1.3301
11049TIP3    H254563   5.725   4.850  11.799 -0.2270 -2.2496  1.6449
11050TIP3   OH254564   1.825   2.355   6.529 -0.8098 -0.2658 -0.1388
11050TIP3    H154565   1.759   2.340   6.462 -0.1089 -1.3904 -0.5988
11050TIP3    H254566   1.903   2.383   6.480 -0.1573 -1.5370  0.1319
11051TIP3   OH254567   5.571   4.131  13.790 -0.3325 -0.3102  0.2472
11051TIP3    H154568   5.487   4.152  13.832 -0.7211 -0.4799 -0.4276
11051TIP3    H254569   5.552   4.135  13.696  0.6536  0.5824  0.0745
11052TIP3   OH254570   5.923   5.036   6.390 -0.2070  0.2673  0.0633
11052TIP3    H154571   5.837   5.018   6.426  0.8642  0.3604  2.8953
11052TIP3    H254572   5.946   5.123   6.423  1.3111 -0.1085  0.1075
11053TIP3   OH254573   4.116   2.359  13.508  0.7025 -0.3434  0.2677
11053TIP3    H154574   4.171   2.415  13.562 -0.0372  1.7228 -0.9960
11053TIP3    H254575   4.034   2.407  13.499  0.4426 -1.0621 -1.8114
11054TIP3   OH254576   1.706   1.341   3.168 -0.8721  0.0037 -0.3337
11054TIP3    H154577   1.712   1.245   3.177 -0.9546  0.0425  0.1698
11054TIP3    H254578   1.729   1.358   3.077 -0.7897 -0.4936 -0.4092
11055TIP3   OH254579   4.526   5.679   1.607  0.1513 -0.1371  0.5090
11055TIP3    H154580   4.584   5.689   1.683  1.1347  1.6129 -0.4139
11055TIP3    H254581   4.441   5.656   1.645  1.5409 -3.7854  1.8520
11056TIP3   OH254582   1.265   5.862   4.846 -0.0865  0.1778  0.4889
11056TIP3    H154583   1.183   5.906   4.869 -0.7075 -0.5526 -0.2466
11056TIP3    H254584   1.291   5.818   4.927 -1.0754 -0.5703  0.4295
11057TIP3   OH254585   4.317   1.601  15.710 -0.2649 -0.0900  0.9413
11057TIP3    H154586   4.391   1.661  15.720  0.5039 -1.0521  1.1222
11057TIP3    H254587   4.264   1.616  15.789  1.7126 -2.0466  2.7563
11058TIP3   OH254588   6.187   6.718  11.508  0.1718 -0.2758 -0.2270
11058TIP3    H154589   6.139   6.746  11.586 -0.7505  0.8896 -1.1776
11058TIP3    H254590   6.279   6.724  11.534 -0.0984 -2.4408  1.5876
11059TIP3   OH254591   3.680   2.696  17.317 -0.1678 -0.1205  0.0764
11059TIP3    H154592   3.621   2.624  17.341 -0.3406 -0.0762 -0.2115
11059TIP3    H254593   3.642   2.773  17.357  1.0563 -0.4662  2.0544
11060TIP3   OH254594   4.035   1.439  13.554  0.0149  0.1881  0.0269
11060TIP3    H154595   3.979   1.361  13.550  0.1575 -0.0215  1.5610
11060TIP3    H254596   4.077   1.434  13.640  3.3644 -0.3349 -1.4806
11061TIP3   OH254597   3.645   4.618  13.630 -0.1611 -0.1451 -0.0664
11061TIP3    H154598   3.721   4.675  13.641  0.2913 -0.5337 -1.0137
11061TIP3    H254599   3.639   4.605  13.535 -0.1103 -1.8621  0.1357
11062TIP3   OH254600   4.915   5.835  14.190  0.2341 -0.7812 -0.2806
11062TIP3    H154601   4.874   5.921  14.194 -1.2163 -1.4064 -0.9571
11062TIP3    H254602   4.969   5.831  14.269 -1.6061 -0.1785  1.1061
11063TIP3   OH254603   3.298   2.125   4.217 -0.4124  0.1383  0.3334
11063TIP3    H154604   3.260   2.134   4.304 -0.8816  0.4300  0.1030
11063TIP3    H254605   3.390   2.146   4.228 -0.2265 -0.9248  0.9694
11064TIP3   OH254606   4.678   1.000  16.459  0.3033  0.1518 -0.0916
11064TIP3    H154607   4.686   0.948  16.379  0.6144  1.3822 -0.8869
11064TIP3    H254608   4.714   1.085  16.436 -1.3568  1.1404  0.7901
11065TIP3   OH254609   4.718   6.468  12.366 -0.3329 -0.0280 -0.2263
11065TIP3    H154610   4.752   6.397  12.421  0.3928 -0.1204 -0.7820
11065TIP3    H254611   4.792   6.527  12.355 -0.3284 -0.2579 -1.4916
11066TIP3   OH254612   3.070   2.454  15.495 -0.2352  0.4230 -0.7190
11066TIP3    H154613   3.074   2.525  15.431 -0.9235  1.6085  0.4968
11066TIP3    H254614   3.150   2.464  15.547  0.4724 -0.7204 -1.5281
11067TIP3   OH254615   2.179   4.846   6.228  0.0818  0.6180 -0.0445
11067TIP3    H154616   2.157   4.933   6.194 -1.4914  0.0557 -0.5514
11067TIP3    H254617   2.114   4.830   6.296  0.9492  0.2197  0.6997
11068TIP3   OH254618   1.810   0.730   6.381 -0.2718  0.4652 -0.1995
11068TIP3    H154619   1.882   0.736   6.444 -1.1742 -0.7136  1.0179
11068TIP3    H254620   1.742   0.787   6.417  0.3541  2.3814 -1.8754
11069TIP3   OH254621   0.400   0.759   2.413  0.8266 -0.2237 -0.4438
11069TIP3    H154622   0.406   0.691   2.346 -0.1730 -1.2427  0.4417
11069TIP3    H254623   0.460   0.730   2.482 -1.3608 -1.5939  1.0255
11070TIP3   OH254624   6.320   3.805  12.254 -0.4508 -0.6135  0.7324
11070TIP3    H154625   6.409   3.803  12.289 -0.0352 -2.8032 -0.2866
11070TIP3    H254626   6.267   3.764  12.322 -0.3076 -1.2159  0.4906
11071TIP3   OH254627   4.221   1.248   3.382  0.2341  0.8054  0.4072
11071TIP3    H154628   4.185   1.161   3.398 -2.2567  2.0775  2.6388
11071TIP3    H254629   4.309   1.246   3.420 -0.0160 -0.5737  0.9596
11072TIP3   OH254630   1.220   6.113  15.814  0.6092 -0.2994  0.3490
11072TIP3    H154631   1.316   6.110  15.815  0.6054 -0.2317  0.9780
11072TIP3    H254632   1.194   6.082  15.901  0.0806  0.3432  0.4247
11073TIP3   OH254633   0.149   0.659  17.400 -0.3341  0.4828 -0.0714
11073TIP3    H154634   0.075   0.713  17.372 -0.4091  0.4168 -0.0017
11073TIP3    H254635   0.120   0.569  17.386 -0.5914  0.4268  0.7493
11074TIP3   OH254636   3.609   6.215   0.017  0.3836  0.1659 -0.5969
11074TIP3    H154637   3.590   6.233  -0.075  0.7514  2.3539 -0.2957
11074TIP3    H254638   3.582   6.295   0.063  0.4615 -0.7772  1.1728
11075TIP3   OH254639   1.381   4.531   1.299  0.3416 -0.0989  0.1921
11075TIP3    H154640   1.437   4.519   1.223  0.6699  1.9014  0.0510
11075TIP3    H254641   1.357   4.443   1.326  1.4120 -0.9004 -1.3342
11076TIP3   OH254642   1.367   0.376  12.427  0.1668 -0.5706 -0.2176
11076TIP3    H154643   1.346   0.335  12.511  0.6150 -0.3640 -0.0023
11076TIP3    H254644   1.419   0.452  12.450 -1.0596  0.4058 -0.5813
11077TIP3   OH254645   1.073   6.075  11.431  0.6538 -0.3262 -0.1267
11077TIP3    H154646   1.073   6.056  11.524 -1.3085 -0.2621 -0.0657
11077TIP3    H254647   1.084   6.170  11.426 -0.8792 -0.1005  0.1669
11078TIP3   OH254648   5.946   4.187  13.615 -0.9863  0.1369 -0.4739
11078TIP3    H154649   5.902   4.103  13.632 -1.6113  0.2014 -1.7013
11078TIP3    H254650   5.983   4.177  13.528 -1.5257  1.3368 -0.8490
11079TIP3   OH254651   3.747   2.816   6.810  0.3686 -0.1959  0.1204
11079TIP3    H154652   3.783   2.733   6.779  2.9818  1.1890 -0.9221
11079TIP3    H254653   3.801   2.882   6.768 -0.9772  2.0328  1.6749
11080TIP3   OH254654   6.206   0.589   3.684 -0.9920 -0.2294  0.4310
11080TIP3    H154655   6.205   0.643   3.605  1.4836 -0.2548  0.2869
11080TIP3    H254656   6.201   0.651   3.757 -0.6527  0.0163  0.2494
11081TIP3   OH254657   3.979   2.537  15.016  0.1267  0.2461  0.1929
11081TIP3    H154658   4.052   2.582  15.060 -0.5120 -0.0582  1.6357
11081TIP3    H254659   3.955   2.466  15.076 -0.0184 -0.9487 -1.2364
11082TIP3   OH254660   2.795   2.773   2.781  0.0649 -0.5305  0.4909
11082TIP3    H154661   2.858   2.774   2.709 -0.1007 -0.0145  0.3521
11082TIP3    H254662   2.819   2.847   2.836 -0.0723 -0.6683  0.7415
11083TIP3   OH254663   1.968   2.610  16.205 -0.1446  0.2749  0.8064
11083TIP3    H154664   1.969   2.563  16.122 -0.6763  1.6506 -0.0195
11083TIP3    H254665   1.878   2.601  16.237 -0.2942  0.8709  0.5577
11084TIP3   OH254666   4.246   2.175   0.291  0.4415 -0.2782  0.4303
11084TIP3    H154667   4.329   2.199   0.249  0.8526 -0.0117  1.3801
11084TIP3    H254668   4.271   2.111   0.358  0.0542  0.7696  1.5956
11085TIP3   OH254669   4.809   0.881  15.457  0.3705  0.2558 -0.0232
11085TIP3    H154670   4.791   0.973  15.438 -2.7789 -0.4663 -1.0252
11085TIP3    H254671   4.740   0.833  15.412  2.6264 -2.7509 -0.5777
11086TIP3   OH254672   0.643   0.781   0.716  0.2797  0.1961  0.6275
11086TIP3    H154673   0.579   0.718   0.749  0.3545 -1.3609 -1.9237
11086TIP3    H254674   0.592   0.843   0.665  0.6897 -1.5817 -2.2063
11087TIP3   OH254675   2.300   6.569   3.061 -0.0529  0.1691 -0.1137
11087TIP3    H154676   2.278   6.493   3.114 -0.6229  0.0493 -0.5027
11087TIP3    H254677   2.286   6.644   3.119 -2.3689  0.1603 -0.5552
11088TIP3   OH254678   1.111   1.678  11.922 -0.1169 -0.5990 -0.2206
11088TIP3    H154679   1.058   1.753  11.895 -1.2868 -1.2100  0.2624
11088TIP3    H254680   1.092   1.611  11.856 -1.1685 -1.3227  0.7680
11089TIP3   OH254681   1.728   3.567   2.003 -0.4058 -0.4142 -0.9647
11089TIP3    H154682   1.709   3.578   1.910 -0.5204  1.2895 -0.7639
11089TIP3    H254683   1.645   3.586   2.047  0.5489  2.9948 -0.3221
11090TIP3   OH254684   1.332   0.777   4.937 -0.2863 -0.0672  0.3473
11090TIP3    H154685   1.417   0.796   4.897 -0.1967  1.4787  1.1759
11090TIP3    H254686   1.340   0.687   4.968  0.9361 -0.0629  0.1002
11091TIP3   OH254687   3.171   4.631   5.256  0.3291 -0.0355 -0.7697
11091TIP3    H154688   3.203   4.623   5.346 -0.0571 -0.6764 -0.6881
11091TIP3    H254689   3.107   4.703   5.260 -0.8526 -1.0843 -0.1939
11092TIP3   OH254690   2.335   5.305   3.544 -0.7369 -0.0144  0.7731
11092TIP3    H154691   2.242   5.330   3.546 -0.4570  1.1651  0.0770
11092TIP3    H254692   2.352   5.283   3.452 -0.6955 -1.7902  1.1719
11093TIP3   OH254693   1.548   0.207  16.071 -0.1645 -0.0709 -0.0319
11093TIP3    H154694   1.464   0.246  16.046  0.6492  1.8811  0.1295
11093TIP3    H254695   1.592   0.276  16.121  1.6554 -0.9573 -0.3598
11094TIP3   OH254696   0.517   2.626  14.967  0.1778 -0.3719  0.4665
11094TIP3    H154697   0.558   2.560  14.910 -0.5753 -0.4463  0.0093
11094TIP3    H254698   0.590   2.661  15.018  0.7343 -0.8886  0.0418
11095TIP3   OH254699   2.428   6.307  16.443 -0.0944  0.6903  0.0263
11095TIP3    H154700   2.400   6.389  16.484 -1.3318  0.2562  0.1013
11095TIP3    H254701   2.378   6.240  16.488  1.2426 -0.1698  0.2745
11096TIP3   OH254702   0.616   5.311  14.812 -0.3099 -0.2114 -0.6083
11096TIP3    H154703   0.534   5.282  14.772 -1.9111  0.2262  2.1482
11096TIP3    H254704   0.680   5.309  14.740 -2.3747 -1.9363 -2.5189
11097TIP3   OH254705   1.734   3.109  12.606 -0.2096 -0.8214 -0.0160
11097TIP3    H154706   1.771   3.185  12.651  1.7278 -0.5225 -1.9332
11097TIP3    H254707   1.734   3.040  12.672  0.7746  0.0616  0.9490
11098TIP3   OH254708   3.321   6.456   2.803 -0.2785 -0.2512 -0.2111
11098TIP3    H154709   3.324   6.535   2.859 -0.0265 -1.0677  0.9689
11098TIP3    H254710   3.411   6.426   2.799 -0.6730 -1.8121  1.3662
11099TIP3   OH254711   3.065   6.221  14.042 -0.3095  0.1607  0.3344
11099TIP3    H154712   3.096   6.229  14.132 -1.3523 -0.2638  0.7433
11099TIP3    H254713   3.011   6.143  14.042  0.4456 -0.3801 -0.9020
11100TIP3   OH254714   4.622   6.522   2.091  0.2605 -0.5109 -0.0075
11100TIP3    H154715   4.605   6.471   2.170 -0.2984 -1.2503 -0.5892
11100TIP3    H254716   4.562   6.485   2.025  0.4583  0.3256 -0.6762
11101TIP3   OH254717   0.619   6.038   2.116  0.1288  0.0628 -0.4499
11101TIP3    H154718   0.607   5.999   2.203 -0.4454  0.0965 -0.5082
11101TIP3    H254719   0.707   6.077   2.119  0.8232 -1.4510 -0.4815
11102TIP3   OH254720   4.535   1.479   5.847  0.3650 -0.0537 -0.2345
11102TIP3    H154721   4.568   1.568   5.833 -0.1214  0.1581 -0.0481
11102TIP3    H254722   4.479   1.462   5.772 -0.0442  0.0344  0.0516
11103TIP3   OH254723   6.227   3.030   1.794 -0.2802  0.3539 -0.1385
11103TIP3    H154724   6.186   2.951   1.831  1.4434 -0.5895 -0.1397
11103TIP3    H254725   6.314   3.032   1.834 -0.4048  2.4871  0.1360
11104TIP3   OH254726   6.520   0.199   2.735 -0.1296  0.0737  0.4263
11104TIP3    H154727   6.556   0.135   2.674 -1.2518 -0.9583  0.8186
11104TIP3    H254728   6.578   0.195   2.811  0.0011 -0.2175  0.3118
11105TIP3   OH254729   2.261   5.491  14.372  0.3468  0.3474  0.3463
11105TIP3    H154730   2.212   5.410  14.361 -1.6808  1.2983  1.7588
11105TIP3    H254731   2.294   5.512  14.285 -0.9852 -0.8363 -0.4806
11106TIP3   OH254732   2.105   2.124   4.788  0.0930  0.0499  0.2280
11106TIP3    H154733   2.058   2.149   4.708 -0.2353  0.9090  0.6783
11106TIP3    H254734   2.104   2.203   4.842 -1.3092 -1.0190  1.8784
11107TIP3   OH254735   4.411   2.339  16.576 -0.6947 -0.2657 -0.0808
11107TIP3    H154736   4.381   2.250  16.597 -1.5315  0.0956  0.2934
11107TIP3    H254737   4.371   2.359  16.491  0.0168 -0.4803 -0.4751
11108TIP3   OH254738   6.658   1.165   1.869 -1.0616  0.1558  0.2483
11108TIP3    H154739   6.714   1.176   1.946 -1.7896 -0.1974  0.8361
11108TIP3    H254740   6.591   1.103   1.896  1.3183 -3.8205 -2.0744
11109TIP3   OH254741   5.618   6.446  17.412 -0.3946  0.2342 -0.2484
11109TIP3    H154742   5.575   6.374  17.365 -0.8694 -0.1843  0.7912
11109TIP3    H254743   5.699   6.461  17.364 -0.9555 -0.0468 -1.3097
11110TIP3   OH254744   3.609   3.989   6.902 -0.4812 -0.4380 -0.2146
11110TIP3    H154745   3.640   4.023   6.818 -1.0029 -2.2878 -1.2104
11110TIP3    H254746   3.521   4.024   6.912 -1.9120 -3.0414 -2.3233
11111TIP3   OH254747   2.991   2.051  12.539  0.2633 -0.0462 -0.7418
11111TIP3    H154748   2.950   2.079  12.621 -2.4232 -0.4450 -1.8196
11111TIP3    H254749   3.085   2.055  12.556 -0.1818  0.0252  2.2854
11112TIP3   OH254750   6.396   2.970   0.125  0.2562  0.2838 -0.3668
11112TIP3    H154751   6.332   3.033   0.159 -0.3346 -0.7281  0.4585
11112TIP3    H254752   6.426   2.922   0.202  2.2340  0.8900 -0.6959
11113TIP3   OH254753   1.620   2.722  14.854  0.3163 -0.0694  0.7130
11113TIP3    H154754   1.531   2.696  14.831  0.1519 -0.0996  1.3601
11113TIP3    H254755   1.637   2.798  14.799 -0.8078  1.0917  1.8746
11114TIP3   OH254756   0.041   6.248   3.683 -0.1837 -0.3300 -0.1662
11114TIP3    H154757  -0.021   6.318   3.660  0.8640 -0.1543 -2.8526
11114TIP3    H254758   0.004   6.169   3.641  1.2580 -0.2427 -1.7066
11115TIP3   OH254759   4.240   5.644  15.249  0.3573  0.4124 -0.3519
11115TIP3    H154760   4.243   5.612  15.159 -0.5458 -3.8332  0.9231
11115TIP3    H254761   4.306   5.592  15.295 -1.1254  0.4272  1.9556
11116TIP3   OH254762   2.030   5.879  17.113  0.0244 -0.1769  0.2541
11116TIP3    H154763   2.023   5.821  17.189  1.4417  0.6244  1.0364
11116TIP3    H254764   2.120   5.866  17.082 -0.2068  0.3019 -0.6408
11117TIP3   OH254765   2.529   1.115  13.231  0.9856 -0.3331  0.9556
11117TIP3    H154766   2.543   1.028  13.195 -1.6514  0.1532 -1.6185
11117TIP3    H254767   2.461   1.103  13.297  0.1862 -0.1887  0.1760
11118TIP3   OH254768   5.544   4.354   3.019  0.0311 -0.1521  0.6753
11118TIP3    H154769   5.544   4.450   3.015  0.0444 -0.1880 -0.5537
11118TIP3    H254770   5.607   4.328   2.952 -1.2868 -1.0547 -0.2383
11119TIP3   OH254771   5.453   6.628   2.092  0.2974  0.1160  0.2364
11119TIP3    H154772   5.474   6.629   2.185  0.2906  2.8397  0.3051
11119TIP3    H254773   5.490   6.710   2.058  0.3034 -0.7984 -2.1680
11120TIP3   OH254774   1.745   4.791  15.799  0.7687  0.3268  1.1532
11120TIP3    H154775   1.806   4.844  15.850  2.1625 -2.0039  2.0772
11120TIP3    H254776   1.793   4.770  15.719  1.1775 -1.3117  1.7762
11121TIP3   OH254777   5.146   3.684  11.483 -0.0293  0.0069 -0.1480
11121TIP3    H154778   5.128   3.750  11.549  0.7609  0.7979 -0.7032
11121TIP3    H254779   5.066   3.680  11.431  0.8694  2.7613 -1.9714
11122TIP3   OH254780   5.867   0.992  14.222 -0.1182  0.1822 -0.1075
11122TIP3    H154781   5.958   0.976  14.248 -0.4942 -0.1163  1.0666
11122TIP3    H254782   5.874   1.025  14.132  1.0522 -1.1743 -0.5460
11123TIP3   OH254783   0.711   1.436  17.212  0.1504  0.2033  0.0481
11123TIP3    H154784   0.712   1.463  17.120 -1.0729 -0.9133 -0.3275
11123TIP3    H254785   0.700   1.341  17.208 -1.4261  0.2940  1.3397
11124TIP3   OH254786   5.633   5.652  16.473 -0.1159 -0.3023 -0.6129
11124TIP3    H154787   5.705   5.602  16.510 -0.4404 -0.0355  0.4147
11124TIP3    H254788   5.558   5.592  16.474 -0.5741  0.2482  0.8742
11125TIP3   OH254789   2.539   4.163   2.801  0.5199  0.0732  0.0162
11125TIP3    H154790   2.545   4.246   2.752 -1.6086 -0.1136 -0.6916
11125TIP3    H254791   2.552   4.095   2.735 -1.5716 -0.1691 -0.2150
11126TIP3   OH254792   1.417   5.372   0.469 -0.6186 -0.1098 -0.0987
11126TIP3    H154793   1.480   5.320   0.420 -1.3211 -0.4255 -0.6912
11126TIP3    H254794   1.437   5.354   0.561 -0.7092 -1.2854 -0.2865
11127TIP3   OH254795   3.824   3.686   4.131 -0.0478 -0.4070  0.4009
11127TIP3    H154796   3.869   3.645   4.057 -0.2068  0.2852 -0.0892
11127TIP3    H254797   3.741   3.716   4.094  0.0192  0.2575  0.7786
11128TIP3   OH254798   2.749   2.827   5.380 -0.2961  0.2600  0.1754
11128TIP3    H154799   2.693   2.880   5.323  0.3666  0.4269 -0.3427
11128TIP3    H254800   2.690   2.766   5.423 -1.1486  1.6347  1.0453
11129TIP3   OH254801   5.544   2.373  17.448  0.2714 -0.0330  0.1095
11129TIP3    H154802   5.619   2.416  17.409  0.2818 -0.0818  0.0753
11129TIP3    H254803   5.581   2.313  17.513  0.2975 -0.4851 -0.3163
11130TIP3   OH254804   3.702   6.423  11.630 -0.2902 -0.6562 -0.1202
11130TIP3    H154805   3.638   6.404  11.698  0.7166 -0.6217  0.8866
11130TIP3    H254806   3.691   6.354  11.565 -2.5193  0.3411 -0.8857
11131TIP3   OH254807   6.133   5.134   4.718 -0.7329 -0.1056 -0.0842
11131TIP3    H154808   6.144   5.224   4.748  0.8938 -0.4933  0.5609
11131TIP3    H254809   6.104   5.086   4.795 -0.4900 -0.3495 -0.1439
11132TIP3   OH254810   5.343   4.322  12.894 -0.2824  0.1987  0.3163
11132TIP3    H154811   5.427   4.308  12.938 -0.2386  1.7167  0.7731
11132TIP3    H254812   5.358   4.296  12.804  1.2586  2.1864 -0.0598
11133TIP3   OH254813   2.333   2.394  15.711 -0.7226  0.2270  0.0271
11133TIP3    H154814   2.276   2.347  15.770  0.8938 -0.3564  1.1898
11133TIP3    H254815   2.412   2.411  15.762  0.2969  0.6783 -1.6169
11134TIP3   OH254816   1.656   4.394  13.789 -0.1983 -0.1695  0.4062
11134TIP3    H154817   1.728   4.412  13.729 -0.7858 -0.1936 -0.3222
11134TIP3    H254818   1.654   4.298  13.795  0.6973 -0.1514  1.5312
11135TIP3   OH254819   4.910   5.231  15.776 -0.2272  0.1723 -0.4843
11135TIP3    H154820   4.960   5.296  15.825  2.1898 -0.1838 -2.2506
11135TIP3    H254821   4.944   5.147  15.806 -0.3492 -0.1112 -1.1117
11136TIP3   OH254822   4.901   1.710  16.963  0.0793 -0.0196  0.2226
11136TIP3    H154823   4.860   1.761  17.033  0.3877  2.0967 -1.0373
11136TIP3    H254824   4.834   1.648  16.936 -0.5161  0.0514  1.4406
11137TIP3   OH254825   5.020   1.454   0.821 -0.4192  0.5929 -0.0933
11137TIP3    H154826   4.930   1.488   0.828 -0.5968  0.0080  0.6246
11137TIP3    H254827   5.011   1.376   0.766 -0.6890 -0.5333  1.4586
11138TIP3   OH254828   0.784   3.142  12.108 -0.1307 -0.0060  0.3533
11138TIP3    H154829   0.831   3.223  12.123  0.7051 -0.0227 -1.8146
11138TIP3    H254830   0.692   3.168  12.099 -0.1951  0.3714  1.8730
11139TIP3   OH254831   6.182   2.727  15.089 -0.3315 -0.0819 -0.6174
11139TIP3    H154832   6.221   2.794  15.033 -0.6284  1.0910  0.5193
11139TIP3    H254833   6.174   2.650  15.033  1.0105  0.5000 -1.6627
11140TIP3   OH254834   6.574   4.320  11.684  0.2424 -0.5462  1.0015
11140TIP3    H154835   6.599   4.293  11.772  0.3511  3.1135  2.2367
11140TIP3    H254836   6.496   4.267  11.664  0.3228 -1.5877  3.1730
11141TIP3   OH254837   1.467   5.998   1.435  0.5121 -0.6804  0.4329
11141TIP3    H154838   1.383   5.954   1.423 -1.4109  2.6866  0.0905
11141TIP3    H254839   1.498   6.015   1.346  0.2400  0.2521  0.5032
11142TIP3   OH254840   5.789   4.072  12.779 -0.3527  0.5706  0.5609
11142TIP3    H154841   5.868   4.077  12.725 -0.0617 -0.6806  0.8271
11142TIP3    H254842   5.757   4.162  12.783  0.3957  0.9074 -0.5307
11143TIP3   OH254843   5.148   3.564  12.987  0.4025 -0.3092 -0.4719
11143TIP3    H154844   5.069   3.511  12.997 -1.0520  1.7192 -0.7820
11143TIP3    H254845   5.170   3.558  12.894  0.7220 -0.9803 -0.3614
11144TIP3   OH254846   4.809   0.398   6.170 -0.0902 -0.5964  0.1374
11144TIP3    H154847   4.799   0.314   6.125  1.2100  0.0176 -1.4363
11144TIP3    H254848   4.770   0.462   6.109 -0.2883  0.0360  0.9143
11145TIP3   OH254849   0.357   5.897  13.962  0.2980  0.0620  0.2361
11145TIP3    H154850   0.364   5.873  14.055 -1.1318 -0.0735  0.3314
11145TIP3    H254851   0.348   5.993  13.963 -0.6578 -0.0233  0.3093
11146TIP3   OH254852   4.131   4.408  13.074 -0.1220  0.4366  0.1670
11146TIP3    H154853   4.074   4.345  13.029 -2.2211  1.7573  0.8049
11146TIP3    H254854   4.211   4.410  13.022 -0.6156 -1.5442 -0.7703
11147TIP3   OH254855   2.397   3.160   1.552  0.0117  0.4587  0.0251
11147TIP3    H154856   2.428   3.091   1.494 -1.1533  1.3463 -1.7303
11147TIP3    H254857   2.472   3.180   1.608  0.8859 -1.0450 -0.5612
11148TIP3   OH254858   6.537   3.842  12.557  0.2241  0.0801  0.6945
11148TIP3    H154859   6.624   3.876  12.577 -0.0436  0.6645  0.9050
11148TIP3    H254860   6.478   3.911  12.586 -0.2175  0.7382 -1.5923
11149TIP3   OH254861   4.850   0.046  12.846 -0.3138 -0.0591  0.2566
11149TIP3    H154862   4.943   0.062  12.858 -0.1291  0.0753 -1.1467
11149TIP3    H254863   4.812   0.133  12.832 -0.5079 -0.1838 -0.0046
11150TIP3   OH254864   6.175   0.133  14.156 -0.4683  0.1112 -0.2746
11150TIP3    H154865   6.212   0.119  14.243 -1.6616  0.6227  0.3427
11150TIP3    H254866   6.229   0.202  14.118  0.3108 -0.3915 -0.1006
11151TIP3   OH254867   3.016   5.916   5.747 -0.1216 -0.2980 -0.1353
11151TIP3    H154868   2.932   5.880   5.718  0.1918 -0.3158 -1.0437
11151TIP3    H254869   3.068   5.839   5.770 -0.7252 -0.2450  1.5289
11152TIP3   OH254870   2.970   5.296  16.814  0.2584  0.3063 -0.6389
11152TIP3    H154871   3.047   5.256  16.772  0.9162  1.6947 -0.7964
11152TIP3    H254872   2.979   5.390  16.796 -1.7115  0.4585 -1.0456
11153TIP3   OH254873   2.197   3.761  14.108 -0.3479  0.0691  0.0998
11153TIP3    H154874   2.233   3.738  14.023 -2.0343 -0.5395 -0.4809
11153TIP3    H254875   2.150   3.843  14.094 -0.5234  0.0359  0.4612
11154TIP3   OH254876   5.302   6.008   3.633 -0.2231  0.4642  0.7255
11154TIP3    H154877   5.355   5.949   3.687  0.9970  0.9705  0.1071
11154TIP3    H254878   5.277   6.078   3.692 -0.9440 -0.2131  1.2416
11155TIP3   OH254879   0.128   5.109  17.190 -0.0800 -0.1351 -0.0530
11155TIP3    H154880   0.090   5.025  17.217  0.2357 -0.3222 -0.1803
11155TIP3    H254881   0.074   5.137  17.116  0.5466 -0.8240 -0.7915
11156TIP3   OH254882   1.006   2.695  16.797  0.0839 -0.4356  0.4237
11156TIP3    H154883   0.952   2.616  16.790 -0.5095 -0.0722  0.8150
11156TIP3    H254884   0.950   2.765  16.762  0.6559 -0.2052 -0.0545
11157TIP3   OH254885   4.294   3.670   6.833  0.2075  0.1255 -0.1102
11157TIP3    H154886   4.347   3.622   6.770 -0.8771  0.3975 -1.3025
11157TIP3    H254887   4.204   3.662   6.799 -0.9469 -2.3366  3.0684
11158TIP3   OH254888   2.349   5.907  17.073  0.1191  0.0833  0.2521
11158TIP3    H154889   2.445   5.902  17.074  0.1394 -1.6439 -1.7850
11158TIP3    H254890   2.328   5.981  17.130  2.6718  0.7010  0.5226
11159TIP3   OH254891   5.061   1.069   4.830 -0.1733 -0.4617  0.3138
11159TIP3    H154892   5.081   1.041   4.741 -2.6464  1.2452 -0.8852
11159TIP3    H254893   5.119   1.144   4.846 -0.0763 -0.4610 -0.0517
11160TIP3   OH254894   0.164   4.167   4.180 -0.2125  0.4186 -0.5587
11160TIP3    H154895   0.122   4.210   4.254  0.2444  1.4396 -0.8674
11160TIP3    H254896   0.093   4.146   4.120 -0.8281 -2.0365  0.9001
11161TIP3   OH254897   6.001   5.305  11.239 -0.2286 -0.8183  0.1491
11161TIP3    H154898   5.943   5.372  11.276  0.7535 -0.7393  1.6185
11161TIP3    H254899   6.065   5.355  11.188 -0.0423 -0.6955  0.4956
11162TIP3   OH254900   6.170   6.712   3.736 -0.3047  0.1399 -0.7491
11162TIP3    H154901   6.178   6.743   3.646 -0.8837 -1.7569 -1.5062
11162TIP3    H254902   6.129   6.784   3.783  0.2269  1.2533 -1.9443
11163TIP3   OH254903   4.441   5.991  15.795 -0.3915 -0.0515  0.0662
11163TIP3    H154904   4.485   6.028  15.718 -1.4855  1.9344  0.3277
11163TIP3    H254905   4.367   5.942  15.758 -0.8892  0.8593 -0.1700
11164TIP3   OH254906   3.021   3.788  17.165 -0.5339  0.2418 -0.0043
11164TIP3    H154907   3.058   3.799  17.253 -0.5494 -3.6485  0.6798
11164TIP3    H254908   2.952   3.854  17.159  0.6702  1.8151  2.1420
11165TIP3   OH254909   4.273   0.290  13.503  0.9886 -0.3070 -0.5246
11165TIP3    H154910   4.196   0.291  13.561  1.5190 -0.1768  0.1960
11165TIP3    H254911   4.241   0.251  13.422 -0.3196  1.4610 -0.9300
11166TIP3   OH254912   5.124   5.377  15.022  0.3503 -0.4067 -0.2165
11166TIP3    H154913   5.078   5.344  14.945  0.2017  1.5084 -1.0042
11166TIP3    H254914   5.088   5.327  15.095 -0.9323 -0.9130 -1.1590
11167TIP3   OH254915   6.651   4.599  16.672 -0.2872 -0.0587 -0.3256
11167TIP3    H154916   6.559   4.622  16.659 -0.5935 -0.0850  1.5090
11167TIP3    H254917   6.685   4.666  16.731  0.6334 -0.5427 -0.2880
11168TIP3   OH254918   6.374   4.599   3.582  0.1744  0.4558 -0.0683
11168TIP3    H154919   6.391   4.560   3.668  0.5130  0.9160  0.0760
11168TIP3    H254920   6.407   4.688   3.589 -1.2400  1.0065 -0.1811
11169TIP3   OH254921   2.523   5.544   1.182 -0.2944 -0.3253  0.1890
11169TIP3    H154922   2.437   5.532   1.221 -0.2921  0.0304  0.3039
11169TIP3    H254923   2.541   5.461   1.138 -2.3702  0.7857 -3.1364
11170TIP3   OH254924   2.743   1.535  16.785 -0.0446 -0.3656  0.5763
11170TIP3    H154925   2.720   1.523  16.693  0.2246  2.4773  0.0543
11170TIP3    H254926   2.659   1.545  16.830 -0.1475  2.0789 -0.0432
11171TIP3   OH254927   5.144   4.561  17.484  0.0547 -0.2610  0.1351
11171TIP3    H154928   5.099   4.561  17.400 -2.7361 -0.0637  1.5090
11171TIP3    H254929   5.184   4.474  17.490 -1.0301 -0.8506 -0.7608
11172TIP3   OH254930   1.128   1.286   2.236 -0.2581 -0.3603 -0.0800
11172TIP3    H154931   1.171   1.371   2.239 -0.1885 -0.4172  0.7231
11172TIP3    H254932   1.102   1.275   2.144 -0.0478  0.4117 -0.2357
11173TIP3   OH254933   1.354   4.767  13.621 -0.3569 -0.1956  0.1540
11173TIP3    H154934   1.367   4.756  13.715  0.6393 -1.1816 -0.0832
11173TIP3    H254935   1.440   4.751  13.582 -0.2195  2.3247 -0.7953
11174TIP3   OH254936   1.452   2.493  15.080  0.3857  0.0532 -0.4548
11174TIP3    H154937   1.489   2.474  14.994 -0.0937 -4.1695  0.0514
11174TIP3    H254938   1.371   2.442  15.083  0.1542  0.4234  2.3309
11175TIP3   OH254939   1.284   1.188   4.130 -0.2231 -0.0750  0.4771
11175TIP3    H154940   1.368   1.199   4.086  0.0409  0.4587  1.0927
11175TIP3    H254941   1.268   1.272   4.173 -1.3516  0.0244 -0.0997
11176TIP3   OH254942   2.204   2.092   2.645 -0.6834  0.2919 -0.3975
11176TIP3    H154943   2.155   2.019   2.681 -0.3830  0.3080  0.0455
11176TIP3    H254944   2.154   2.170   2.669 -0.6106  0.2856 -0.2288
11177TIP3   OH254945   2.123   0.303   4.040  0.3404  0.1706 -0.4411
11177TIP3    H154946   2.152   0.233   3.982 -0.7418 -0.6066 -0.0792
11177TIP3    H254947   2.077   0.365   3.982  1.3164  0.6087 -0.7629
11178TIP3   OH254948   4.372   1.082   0.400 -0.3720  0.0286 -0.2310
11178TIP3    H154949   4.350   1.133   0.322  1.8645 -0.4262 -1.2476
11178TIP3    H254950   4.373   0.991   0.369  0.7125 -0.1405  0.2564
11179TIP3   OH254951   0.242   2.778   1.255 -0.1806  0.0435 -0.7070
11179TIP3    H154952   0.267   2.734   1.336 -1.2294  1.7034  0.5795
11179TIP3    H254953   0.249   2.711   1.188  0.7323 -1.3781  0.7545
11180TIP3   OH254954   4.250   0.035   2.058 -0.7044  0.9617  0.3356
11180TIP3    H154955   4.261   0.015   2.151  0.3444  1.0217  0.2341
11180TIP3    H254956   4.310   0.109   2.042 -1.6144  1.6079 -0.1698
11181TIP3   OH254957   1.772   2.259  14.271 -0.1267 -0.1797 -0.0756
11181TIP3    H154958   1.694   2.257  14.326 -1.1836 -2.3497 -1.5194
11181TIP3    H254959   1.740   2.236  14.183  1.9120  0.3787 -1.0153
11182TIP3   OH254960   2.084   6.643  16.334  0.3125  0.2640  0.3893
11182TIP3    H154961   2.137   6.599  16.268 -0.9807 -0.4330 -0.2339
11182TIP3    H254962   2.141   6.652  16.410  1.5374  0.2425 -0.5114
11183TIP3   OH254963   5.696   2.331   5.920  0.1583 -0.4802 -0.0941
11183TIP3    H154964   5.765   2.268   5.941  1.1688  0.4457 -0.5456
11183TIP3    H254965   5.663   2.360   6.005  0.5028 -0.7392  0.1285
11184TIP3   OH254966   5.538   5.846  13.285  0.2573  0.0328 -0.4735
11184TIP3    H154967   5.452   5.871  13.252 -0.1399  0.5819  0.9224
11184TIP3    H254968   5.562   5.916  13.346  1.2480 -0.6175 -0.0926
11185TIP3   OH254969   5.042   6.382   3.495 -0.0059 -0.0649 -0.7204
11185TIP3    H154970   5.099   6.378   3.572 -4.0940 -0.6896  2.6314
11185TIP3    H254971   5.025   6.291   3.473 -1.1851  0.0744 -0.4224
11186TIP3   OH254972   0.988   3.348  15.151 -0.2940 -0.0154 -0.2833
11186TIP3    H154973   1.049   3.276  15.170 -1.3357 -0.5123  1.4956
11186TIP3    H254974   1.019   3.420  15.206  0.3123  0.6935 -1.5105
11187TIP3   OH254975   2.516   1.503  13.852 -0.4563 -0.5119 -0.1832
11187TIP3    H154976   2.450   1.572  13.859 -0.2192 -0.3211  0.1933
11187TIP3    H254977   2.589   1.534  13.905  1.1156  0.6222 -2.8033
11188TIP3   OH254978   6.283   2.874   3.394 -0.8167 -0.5352 -0.2709
11188TIP3    H154979   6.246   2.939   3.454 -1.2499 -0.4338 -0.6382
11188TIP3    H254980   6.305   2.924   3.316  0.1128 -0.5940 -0.0641
11189TIP3   OH254981   0.780   4.315   2.957  0.7994 -0.7155 -0.1339
11189TIP3    H154982   0.727   4.391   2.932  1.8260 -0.6574 -2.4942
11189TIP3    H254983   0.737   4.279   3.034 -2.7334 -0.7250 -1.9022
11190TIP3   OH254984   3.832   0.019  15.735  0.1434 -0.4425  0.3696
11190TIP3    H154985   3.770  -0.050  15.759  0.0534 -0.9760 -1.3179
11190TIP3    H254986   3.778   0.097  15.725 -0.1293 -0.7016 -0.2053
11191TIP3   OH254987   3.061   3.196   1.302  0.0349 -0.1392 -0.1265
11191TIP3    H154988   3.100   3.186   1.215  0.1091  2.0143 -0.4062
11191TIP3    H254989   3.046   3.290   1.310 -0.8469 -0.4037  1.8338
11192TIP3   OH254990   0.663   4.004  15.061 -0.5713 -0.2142  0.2029
11192TIP3    H154991   0.656   4.096  15.037  0.4294 -0.6984 -2.2940
11192TIP3    H254992   0.623   3.998  15.147  0.1768  2.7137  0.8569
11193TIP3   OH254993   4.747   1.074   0.205 -0.3622  0.7962 -0.3415
11193TIP3    H154994   4.712   1.017   0.274 -2.3753  1.2178 -0.9360
11193TIP3    H254995   4.757   1.159   0.248  1.4935  0.3230  0.2322
11194TIP3   OH254996   5.398   5.144   2.236  0.1868  0.0069 -0.0664
11194TIP3    H154997   5.390   5.211   2.305 -1.3149  1.1844 -1.3130
11194TIP3    H254998   5.314   5.099   2.237 -0.3373  0.8662 -1.9041
11195TIP3   OH254999   2.213   2.553   3.449 -0.2368  0.0893 -0.0941
11195TIP3    H155000   2.272   2.571   3.522  0.2236 -1.1486 -0.1490
11195TIP3    H255001   2.239   2.616   3.381  0.7706 -0.1869  0.0246
11196TIP3   OH255002   1.764   3.266   3.970 -0.7654 -0.6376 -0.4764
11196TIP3    H155003   1.786   3.193   3.912  0.7631 -1.1677  0.6952
11196TIP3    H255004   1.840   3.324   3.967 -0.4242 -0.9237  1.3142
11197TIP3   OH255005   4.477   3.935   4.396  0.0077 -0.1635 -0.5537
11197TIP3    H155006   4.558   3.903   4.356 -0.5898 -2.3050 -0.1636
11197TIP3    H255007   4.410   3.871   4.371 -1.3764  0.9855 -0.0007
11198TIP3   OH255008   4.848   1.843  16.428 -0.1891 -0.4498  0.4431
11198TIP3    H155009   4.803   1.801  16.501  0.2346  0.8071  1.4566
11198TIP3    H255010   4.941   1.838  16.452 -0.0900  0.5034  0.2907
11199TIP3   OH255011   5.188   3.556  11.912  0.0114 -0.3133  0.0677
11199TIP3    H155012   5.202   3.600  11.996  2.1575 -0.8841  0.0635
11199TIP3    H255013   5.139   3.477  11.933  0.7406 -0.5721  0.8252
11200TIP3   OH255014   3.359   3.932   0.193 -0.3985  0.1280 -0.5478
11200TIP3    H155015   3.438   3.881   0.177  0.1587 -1.3103  4.6639
11200TIP3    H255016   3.287   3.870   0.179 -0.0589 -0.6280  0.8550
11201TIP3   OH255017   5.614   0.235   4.127  0.1506  0.0903  0.3061
11201TIP3    H155018   5.552   0.210   4.059 -0.4655 -0.1199  0.9292
11201TIP3    H255019   5.700   0.225   4.087 -0.2289  1.6062 -0.9956
11202TIP3   OH255020   1.318   5.291  13.202  0.4433 -0.1589 -0.2359
11202TIP3    H155021   1.241   5.260  13.251  1.4881 -1.2187  0.8011
11202TIP3    H255022   1.348   5.214  13.154  0.5302  0.4055 -1.1116
11203TIP3   OH255023   2.214   1.057   0.592 -0.0188 -0.1670  0.6889
11203TIP3    H155024   2.300   1.055   0.550  0.2046 -1.5166  1.1365
11203TIP3    H255025   2.172   0.976   0.563 -0.6206 -0.1610  1.5121
11204TIP3   OH255026   2.998   1.125  15.990  0.3578 -0.0242 -0.1037
11204TIP3    H155027   2.926   1.160  16.043  1.6279 -0.0453  1.7542
11204TIP3    H255028   2.991   1.172  15.907 -1.4788  0.3365  0.2021
11205TIP3   OH255029   4.242   1.413  16.444  0.4870 -0.0272  0.6567
11205TIP3    H155030   4.190   1.414  16.525  0.4586 -0.5065  0.6525
11205TIP3    H255031   4.183   1.445  16.377  0.2878 -0.2788  0.7085
11206TIP3   OH255032   0.692   4.842  13.336  0.6405 -0.6267 -0.4000
11206TIP3    H155033   0.686   4.760  13.386  2.7238  0.6618  2.1584
11206TIP3    H255034   0.731   4.816  13.253  1.6550 -2.2143  0.5152
11207TIP3   OH255035   0.240   1.137   5.357 -0.1956  0.4533  0.0994
11207TIP3    H155036   0.333   1.157   5.356 -0.0377 -0.1606  1.3045
11207TIP3    H255037   0.205   1.189   5.430 -0.9300  1.1652 -0.7267
11208TIP3   OH255038   3.569   4.552  11.773  0.1783  0.0898 -0.5503
11208TIP3    H155039   3.501   4.487  11.756 -0.1356 -0.0060  0.9123
11208TIP3    H255040   3.610   4.523  11.855  0.5160  1.3281 -0.2508
11209TIP3   OH255041   4.126   3.703  14.398 -0.0243  1.1939 -0.2009
11209TIP3    H155042   4.219   3.682  14.404 -0.2746 -0.5803 -1.7012
11209TIP3    H255043   4.104   3.740  14.483  2.1866  2.3259 -0.0548
11210TIP3   OH255044   3.515   5.239  16.458 -1.0042  0.4058  0.1079
11210TIP3    H155045   3.464   5.170  16.501  0.1907 -0.6759 -0.1645
11210TIP3    H255046   3.577   5.268  16.525  2.5163 -2.9302 -1.2950
11211TIP3   OH255047   6.457   1.964  14.590  0.7408 -0.7188  0.1207
11211TIP3    H155048   6.541   1.930  14.623  0.1619 -1.3625  0.9658
11211TIP3    H255049   6.412   1.887  14.556 -0.4731 -0.8139  1.8000
11212TIP3   OH255050   3.990   6.420  11.390 -0.6133  0.3239 -0.2980
11212TIP3    H155051   4.012   6.401  11.481 -0.9112 -0.8436 -0.4605
11212TIP3    H255052   4.003   6.515  11.382  0.0200  0.3458  0.7829
11213TIP3   OH255053   5.354   0.053  12.949 -0.0064  0.3862 -0.2761
11213TIP3    H155054   5.411   0.102  12.890 -1.5192  1.5243 -0.8564
11213TIP3    H255055   5.299   0.000  12.892 -1.0904  1.0527  0.1225
11214TIP3   OH255056   4.779   4.140   2.115  0.2188  0.1461 -0.3753
11214TIP3    H155057   4.737   4.080   2.053 -1.2334  0.2183  0.4722
11214TIP3    H255058   4.707   4.196   2.146  1.3570  1.6831 -0.4121
11215TIP3   OH255059   4.928   5.388   2.034 -0.2052  0.0407 -0.1379
11215TIP3    H155060   4.977   5.356   2.110  2.3796  1.0687 -1.2680
11215TIP3    H255061   4.876   5.312   2.006  1.5185 -1.4637  0.5336
11216TIP3   OH255062   3.167   5.053  13.576  0.4228 -0.6439 -0.5721
11216TIP3    H155063   3.126   5.136  13.554 -3.0434 -1.2811  2.5284
11216TIP3    H255064   3.211   5.069  13.659  0.7433 -1.6378 -0.5286
11217TIP3   OH255065   0.885   3.595   4.600  0.1484 -0.2026 -0.4086
11217TIP3    H155066   0.866   3.543   4.522 -1.2226 -0.9872  0.3984
11217TIP3    H255067   0.977   3.620   4.591  0.0722 -0.4548 -2.1524
11218TIP3   OH255068   5.381   0.364   0.157 -0.1072 -0.0300 -0.6298
11218TIP3    H155069   5.320   0.429   0.121  0.1315  0.8174  0.4236
11218TIP3    H255070   5.463   0.382   0.112 -0.4186 -0.6031 -1.4302
11219TIP3   OH255071   6.170   5.235   0.542 -0.2578 -0.3279 -0.0023
11219TIP3    H155072   6.251   5.198   0.506  0.9175  2.0035  0.0744
11219TIP3    H255073   6.169   5.326   0.511 -1.9093  0.2238  1.5026
11220TIP3   OH255074   3.839   6.359   2.927 -0.4628 -0.1016  0.0665
11220TIP3    H155075   3.875   6.383   2.841 -0.6925  0.2628  0.0746
11220TIP3    H255076   3.831   6.442   2.974  0.3726 -0.3741  0.7205
11221TIP3   OH255077   0.824   4.682   4.977  0.3614  0.4459  0.0520
11221TIP3    H155078   0.745   4.690   5.029  0.6837 -1.5141  0.9403
11221TIP3    H255079   0.795   4.698   4.887 -1.4094 -1.6604  0.1503
11222TIP3   OH255080   2.831   1.317   5.623  0.3796 -0.1233 -0.1671
11222TIP3    H155081   2.766   1.340   5.556 -1.0220 -0.3832  1.0456
11222TIP3    H255082   2.870   1.236   5.592 -0.9285 -0.7471 -0.2479
11223TIP3   OH255083   6.218   0.026  14.883  0.5201  0.3742  0.0811
11223TIP3    H155084   6.200   0.118  14.898 -0.2484  0.4422 -1.1330
11223TIP3    H255085   6.265   0.023  14.800  1.3823 -0.2618  0.5707
11224TIP3   OH255086   1.730   2.425  11.589 -0.1423  0.0546  0.5842
11224TIP3    H155087   1.684   2.413  11.672 -0.5503 -0.9846  0.2339
11224TIP3    H255088   1.720   2.341  11.544  1.0623  0.2178 -0.0327
11225TIP3   OH255089   5.867   1.978  12.639 -0.2632 -0.5413  0.1279
11225TIP3    H155090   5.859   2.054  12.581 -1.0913  0.2626  1.2500
11225TIP3    H255091   5.905   1.909  12.583  0.1977  0.5802 -1.0008
11226TIP3   OH255092   5.893   0.871   0.252 -0.2244  0.6701  0.1450
11226TIP3    H155093   5.942   0.838   0.176  0.7707 -1.6887  1.7088
11226TIP3    H255094   5.960   0.889   0.318 -1.1684  1.2912  0.9667
11227TIP3   OH255095   3.844   2.275   1.769  0.1264 -0.3745 -0.4428
11227TIP3    H155096   3.794   2.256   1.689 -0.0667 -1.0807 -0.1559
11227TIP3    H255097   3.906   2.203   1.776 -0.2623 -0.6360  0.3762
11228TIP3   OH255098   0.099   2.928   3.729 -0.0752  0.0056  0.2994
11228TIP3    H155099   0.191   2.910   3.748 -0.2195 -0.0176  0.9823
11228TIP3    H255100   0.101   2.981   3.649  0.6693  2.0473  1.6050
11229TIP3   OH255101   2.897   5.612  11.890 -0.2194 -0.1531 -0.0992
11229TIP3    H155102   2.839   5.675  11.934 -1.1409 -1.6047  0.8276
11229TIP3    H255103   2.883   5.629  11.797 -1.5422  0.0813  0.1162
11230TIP3   OH255104   3.723   3.953  13.961  0.0984 -0.0411  0.3151
11230TIP3    H155105   3.733   3.890  13.889 -1.9836 -0.2087  0.1130
11230TIP3    H255106   3.679   3.904  14.030 -0.6474  0.9178  0.5436
11231TIP3   OH255107   6.712   6.311   2.343 -0.3241 -0.4811  0.6360
11231TIP3    H155108   6.718   6.216   2.359  0.3156 -0.1518  2.6658
11231TIP3    H255109   6.764   6.325   2.263  0.1925 -1.7506  0.7202
11232TIP3   OH255110   1.454   4.487  16.515 -0.0574 -0.1806 -0.1505
11232TIP3    H155111   1.498   4.571  16.503 -0.9622  0.0187 -2.9539
11232TIP3    H255112   1.426   4.487  16.606  1.8106  1.6107  0.5029
11233TIP3   OH255113   1.331   6.241  13.529 -0.5956  0.4454 -0.2843
11233TIP3    H155114   1.411   6.268  13.576 -1.3081  1.2151  0.5302
11233TIP3    H255115   1.262   6.296  13.566 -1.3437  0.4865 -1.6707
11234TIP3   OH255116   5.235   2.122   0.227  0.0751 -0.9962  0.2614
11234TIP3    H155117   5.306   2.058   0.220  0.0044 -0.9342 -1.1780
11234TIP3    H255118   5.214   2.146   0.137 -0.5530  0.3545  0.7378
11235TIP3   OH255119   1.316   4.054   5.800  0.1746 -0.0841 -0.8299
11235TIP3    H155120   1.325   4.032   5.708  0.8533 -0.6667 -0.6393
11235TIP3    H255121   1.358   3.981   5.846 -0.4852  0.0153 -0.0482
11236TIP3   OH255122   3.107   3.691   3.211  0.3764 -0.4887 -0.3867
11236TIP3    H155123   3.161   3.761   3.172 -0.0406  0.1201  0.1123
11236TIP3    H255124   3.019   3.708   3.178  0.2943 -0.8679 -0.3644
11237TIP3   OH255125   1.678   5.411  13.957 -0.4543 -0.0816  0.3608
11237TIP3    H155126   1.684   5.493  14.007 -0.2427 -0.3522  0.7800
11237TIP3    H255127   1.723   5.429  13.875  1.6815 -0.4994  1.3826
11238TIP3   OH255128   0.880   6.069  14.206 -0.2612 -0.2299  0.1220
11238TIP3    H155129   0.831   6.036  14.130  0.5627 -1.9882  0.3005
11238TIP3    H255130   0.813   6.086  14.272 -0.7407 -2.0906  0.1812
11239TIP3   OH255131   4.809   3.202   6.179  0.0577 -1.0795  0.1557
11239TIP3    H155132   4.878   3.153   6.223 -0.0305 -1.0908  0.2789
11239TIP3    H255133   4.829   3.192   6.086  0.2371 -1.0621  0.1911
11240TIP3   OH255134   2.948   2.475   3.754  0.2148 -0.6325  0.2624
11240TIP3    H155135   2.893   2.537   3.705  1.3949 -0.6631 -1.1742
11240TIP3    H255136   3.033   2.480   3.711  1.0313 -1.4343  1.7150
11241TIP3   OH255137   2.568   5.491   6.136 -0.0830 -0.3369  0.3179
11241TIP3    H155138   2.626   5.421   6.167  2.3669  1.4261  0.0021
11241TIP3    H255139   2.564   5.552   6.209  0.6336  0.8296 -0.5898
11242TIP3   OH255140   6.033   2.871  14.605 -0.0170 -0.5387  0.1248
11242TIP3    H155141   6.099   2.827  14.550 -1.7986 -1.3732 -1.4638
11242TIP3    H255142   5.952   2.825  14.586 -1.1940  0.8210  1.6038
11243TIP3   OH255143   2.382   0.986  15.926 -0.6736 -0.3071 -0.0106
11243TIP3    H155144   2.354   1.048  15.993 -1.0304  0.4293 -0.8210
11243TIP3    H255145   2.323   0.911  15.936 -2.3721  0.8054 -1.0378
11244TIP3   OH255146   5.408   5.391  15.053  0.1960  0.5260  0.1081
11244TIP3    H155147   5.419   5.474  15.098 -1.6705  1.1025 -0.4208
11244TIP3    H255148   5.314   5.386  15.035  0.6010 -0.6112 -1.9120
11245TIP3   OH255149   4.458   0.746   6.532  0.2115 -0.4807  0.2439
11245TIP3    H155150   4.482   0.804   6.460 -0.2844  0.5047  0.8454
11245TIP3    H255151   4.387   0.792   6.577  0.6011 -1.0053  1.4391
11246TIP3   OH255152   6.703   6.125  13.804  0.8485  0.2994  0.2648
11246TIP3    H155153   6.788   6.101  13.767  0.3096 -1.7487  0.1902
11246TIP3    H255154   6.716   6.123  13.898  0.9224  0.0606  0.2523
11247TIP3   OH255155   6.325   3.890   1.288 -0.4658 -0.1035  0.2889
11247TIP3    H155156   6.412   3.885   1.249 -0.0381 -2.5737  1.3298
11247TIP3    H255157   6.336   3.850   1.375 -1.8725  2.9062  2.0224
11248TIP3   OH255158   2.385   1.217   0.199  0.5460  0.1876  0.4271
11248TIP3    H155159   2.473   1.181   0.207  0.0398 -0.9660  0.9145
11248TIP3    H255160   2.329   1.142   0.181 -0.2679  0.9852 -0.5786
11249TIP3   OH255161   5.639   3.717  11.781  0.3958 -0.4140  0.2551
11249TIP3    H155162   5.568   3.659  11.752 -0.2100  1.0911 -1.4707
11249TIP3    H255163   5.707   3.705  11.715  0.6639  0.1085  0.4404
11250TIP3   OH255164   1.876   2.321   2.675  0.1331 -0.0550  0.4918
11250TIP3    H155165   1.894   2.305   2.583  0.6757 -1.0677  0.7612
11250TIP3    H255166   1.962   2.344   2.713  0.0201 -0.2227  0.8577
11251TIP3   OH255167   1.064   1.038  11.971  0.3295 -0.2525  0.5493
11251TIP3    H155168   1.106   1.118  12.005  0.9471 -0.3409  0.0088
11251TIP3    H255169   1.070   1.046  11.876  0.0041 -0.7438  0.4861
11252TIP3   OH255170   3.728   0.606  10.395  0.0685 -0.2468  0.5782
11252TIP3    H155171   3.802   0.592  10.337 -1.8518 -2.4083 -1.5687
11252TIP3    H255172   3.751   0.684  10.446  2.8797  0.3592 -1.4193
11253TIP3   OH255173   6.203   4.214  12.798  0.1300  0.1425 -0.5343
11253TIP3    H155174   6.229   4.194  12.888 -0.4449 -0.4916 -0.4993
11253TIP3    H255175   6.279   4.257  12.759  0.3047  0.6391  0.3246
11254TIP3   OH255176   5.367   2.346   1.760  0.0359 -0.4673  0.3088
11254TIP3    H155177   5.421   2.267   1.754 -2.3324 -2.0640 -1.5275
11254TIP3    H255178   5.350   2.371   1.669 -1.0367  0.8959  0.8492
11255TIP3   OH255179   0.453   0.286   3.641  0.5322  0.2429  0.0131
11255TIP3    H155180   0.444   0.194   3.617  1.7905 -0.0913  0.7128
11255TIP3    H255181   0.502   0.326   3.569  0.5195  0.2162 -0.0100
11256TIP3   OH255182   4.385   6.304   2.163 -0.2312 -0.6682 -0.7062
11256TIP3    H155183   4.450   6.239   2.192  2.1156  1.4816 -0.8150
11256TIP3    H255184   4.392   6.305   2.068 -1.9731 -1.8472 -0.8920
11257TIP3   OH255185   2.859   5.578   1.916  0.3308  0.3431  0.4371
11257TIP3    H155186   2.939   5.585   1.864  0.3246  1.4212  0.5482
11257TIP3    H255187   2.817   5.498   1.885  0.9549  0.2996 -0.3252
11258TIP3   OH255188   6.674   1.654  14.119  0.4502  0.0063 -0.0841
11258TIP3    H155189   6.617   1.590  14.161  0.4580 -1.9019 -2.7134
11258TIP3    H255190   6.635   1.668  14.033  0.1885  4.0316  0.4896
11259TIP3   OH255191   4.242   3.915  12.122 -0.2237 -0.1619 -0.6117
11259TIP3    H155192   4.174   3.976  12.152  0.4961 -1.0346  3.3685
11259TIP3    H255193   4.322   3.967  12.121 -0.1932 -0.2118 -0.7901
11260TIP3   OH255194   5.708   6.715  16.577  0.2308  0.0358  0.2583
11260TIP3    H155195   5.688   6.746  16.665  0.9828 -1.0842  0.8475
11260TIP3    H255196   5.726   6.621  16.588 -0.5966 -0.3241 -1.2335
11261TIP3   OH255197   4.577   2.407   5.597  0.5143 -0.1373  0.3227
11261TIP3    H155198   4.497   2.457   5.577  1.0486 -0.2456 -2.4917
11261TIP3    H255199   4.641   2.474   5.621  0.2933  0.2312 -0.0818
11262TIP3   OH255200   0.932   6.342   0.131  0.0258  0.0662  0.1769
11262TIP3    H155201   1.021   6.326   0.100 -0.5507 -2.9256 -0.2210
11262TIP3    H255202   0.885   6.373   0.054 -0.0592 -1.8101 -0.5755
11263TIP3   OH255203   2.865   2.674  13.668  0.5067  0.0098  0.0167
11263TIP3    H155204   2.795   2.608  13.674  0.3652  0.2508  4.0376
11263TIP3    H255205   2.944   2.626  13.692  0.9615  0.6316 -0.2532
11264TIP3   OH255206   1.513   5.782  17.154  0.1086 -0.1961 -0.4280
11264TIP3    H155207   1.596   5.792  17.106 -0.0625 -0.4235 -0.7719
11264TIP3    H255208   1.462   5.859  17.129 -0.2028 -0.6045 -1.0596
11265TIP3   OH255209   6.430   4.548  11.775 -0.0850  0.3691 -0.3282
11265TIP3    H155210   6.508   4.494  11.765 -0.5282 -0.5831  0.9861
11265TIP3    H255211   6.371   4.519  11.706  1.0212  1.7252 -1.9100
11266TIP3   OH255212   4.024   3.482  15.301 -0.5347 -0.6151  0.2014
11266TIP3    H155213   4.010   3.465  15.208  0.4026  1.7919 -0.4507
11266TIP3    H255214   4.064   3.402  15.334  2.3075 -0.3926 -2.2507
11267TIP3   OH255215   3.633   6.389   1.148 -0.2140  0.2976  0.2009
11267TIP3    H155216   3.548   6.385   1.104 -0.4103 -1.3890  0.6564
11267TIP3    H255217   3.689   6.333   1.094  0.0808 -0.1477  0.9596
11268TIP3   OH255218   0.765   5.960   3.252 -0.1056 -0.1506 -0.5953
11268TIP3    H155219   0.733   6.045   3.281 -0.6846 -0.4604 -0.3013
11268TIP3    H255220   0.834   5.937   3.316 -1.0569 -0.6206  0.2889
11269TIP3   OH255221   4.479   5.333   1.021 -0.1720 -0.2545  0.6230
11269TIP3    H155222   4.394   5.299   1.048 -1.0085  2.4857  1.7935
11269TIP3    H255223   4.496   5.405   1.081  2.7484 -0.3508  0.0576
11270TIP3   OH255224   4.011   6.691   0.368  0.1613 -0.4804  0.3205
11270TIP3    H155225   4.011   6.616   0.428 -0.8036 -0.2246  0.6475
11270TIP3    H255226   3.991   6.653   0.283 -0.8005 -0.5392  0.5649
11271TIP3   OH255227   4.390   0.126   4.665 -0.0592  0.8810  0.2855
11271TIP3    H155228   4.397   0.144   4.571  0.5886  0.1907  0.1985
11271TIP3    H255229   4.418   0.208   4.706  0.3565  0.9514 -0.1230
11272TIP3   OH255230   6.054   2.744   4.167 -0.3591  0.2690 -0.1674
11272TIP3    H155231   6.020   2.719   4.253  0.8626 -3.1134 -0.5140
11272TIP3    H255232   5.987   2.714   4.105  0.7055 -1.4507 -0.5541
11273TIP3   OH255233   1.976   2.590   4.515  0.3866 -0.2341 -0.1914
11273TIP3    H155234   2.017   2.677   4.512  1.1349 -0.6066 -2.2572
11273TIP3    H255235   1.918   2.588   4.439 -1.3123 -0.7912  1.0555
11274TIP3   OH255236   4.823   1.816   0.562  0.2429 -0.4241 -0.0088
11274TIP3    H155237   4.762   1.749   0.595 -0.0305  0.0616  0.4814
11274TIP3    H255238   4.870   1.845   0.640  0.8343 -0.5142 -0.3252
11275TIP3   OH255239   6.427   6.480  16.479  0.4789 -0.0882  0.7534
11275TIP3    H155240   6.332   6.473  16.477  0.5167 -0.6314  0.6406
11275TIP3    H255241   6.456   6.397  16.516  0.9519 -0.3512 -0.1811
11276TIP3   OH255242   6.303   1.309   4.253  0.0395  0.2161 -0.4685
11276TIP3    H155243   6.217   1.314   4.212 -0.5563  1.3223  0.8090
11276TIP3    H255244   6.324   1.400   4.275 -0.0721 -0.3212  2.3288
11277TIP3   OH255245   0.859   3.674  11.058  0.0868 -0.0549  0.1247
11277TIP3    H155246   0.796   3.709  10.994 -0.0546  1.4150  1.0169
11277TIP3    H255247   0.919   3.621  11.005 -1.5282 -0.9945 -0.8318
11278TIP3   OH255248   4.047   6.311   1.507 -0.1469 -0.0762  0.1367
11278TIP3    H155249   4.057   6.367   1.585  0.3657 -0.7542  0.5729
11278TIP3    H255250   4.078   6.225   1.536  0.6647 -0.1865 -1.0022
11279TIP3   OH255251   4.862   5.398  15.476 -0.3204  0.3016  0.1002
11279TIP3    H155252   4.904   5.482  15.458 -0.1845 -0.1852 -2.1650
11279TIP3    H255253   4.914   5.360  15.547  0.2179  1.6904  0.4892
11280TIP3   OH255254   2.746   5.471  11.334 -0.2910  0.0692  0.1719
11280TIP3    H155255   2.675   5.491  11.274 -0.2254 -1.4474 -0.4477
11280TIP3    H255256   2.825   5.500  11.288 -0.1586 -1.8267 -0.8891
11281TIP3   OH255257   0.465   5.826  15.821  0.0918 -0.7977  0.2925
11281TIP3    H155258   0.510   5.849  15.740 -2.3525 -1.6675 -1.4187
11281TIP3    H255259   0.476   5.731  15.830 -0.9716 -0.9512  0.0962
11282TIP3   OH255260   5.492   2.813  13.841  0.0426  0.1851 -0.2727
11282TIP3    H155261   5.515   2.906  13.845  0.8517  0.1783 -3.0504
11282TIP3    H255262   5.536   2.775  13.917  2.0187  1.6545 -0.5903
11283TIP3   OH255263   4.101   3.530   6.672  0.3132 -0.6732 -0.0723
11283TIP3    H155264   4.068   3.483   6.748  1.5737 -1.4031  0.0633
11283TIP3    H255265   4.080   3.474   6.598 -1.0772  0.1239 -0.3127
11284TIP3   OH255266   2.332   1.716  16.170  0.2618 -0.7910  0.4612
11284TIP3    H155267   2.252   1.712  16.117  1.1124  1.1789 -1.0891
11284TIP3    H255268   2.303   1.750  16.255 -0.6808 -0.9551  0.2121
11285TIP3   OH255269   4.949   2.541  17.403  0.7328  0.1732 -0.0180
11285TIP3    H155270   4.859   2.555  17.374  0.1786 -0.7525  1.1818
11285TIP3    H255271   4.992   2.501  17.327  0.7286  2.4794 -1.3207
11286TIP3   OH255272   0.641   0.018  14.808 -0.4110 -0.5222  0.2106
11286TIP3    H155273   0.676  -0.057  14.760  2.6843  1.7860 -1.4730
11286TIP3    H255274   0.622   0.083  14.741  0.1582  1.3597  1.7792
11287TIP3   OH255275   5.196   3.770   5.226  0.2002 -0.4919  0.3399
11287TIP3    H155276   5.125   3.833   5.241  0.6180 -0.1244  0.8491
11287TIP3    H255277   5.226   3.788   5.137 -1.4626 -1.8109 -0.5561
11288TIP3   OH255278   6.092   4.954  14.275  0.1639 -0.5646 -0.4651
11288TIP3    H155279   6.155   4.887  14.302 -0.9250 -1.2541  0.4428
11288TIP3    H255280   6.012   4.906  14.256 -0.7978  0.4871  0.7083
11289TIP3   OH255281   0.205   1.135  13.524 -0.0446 -0.0386  0.0112
11289TIP3    H155282   0.137   1.136  13.456  0.0402 -1.9003 -0.1375
11289TIP3    H255283   0.284   1.164  13.478  0.1058 -1.6695 -0.8287
11290TIP3   OH255284   4.155   2.392   6.275  0.0433 -0.9386  0.3852
11290TIP3    H155285   4.245   2.375   6.306  0.5767 -0.0603 -0.6094
11290TIP3    H255286   4.155   2.361   6.185 -0.1317  0.5940 -0.1694
11291TIP3   OH255287   1.795   3.615   5.298 -1.2860  0.0145  0.6518
11291TIP3    H155288   1.750   3.689   5.258 -0.0459  0.4899  0.0960
11291TIP3    H255289   1.759   3.538   5.253 -1.5748  0.3755  0.2552
11292TIP3   OH255290   1.352   3.818  11.299  0.0884  0.3987 -0.2008
11292TIP3    H155291   1.363   3.904  11.258 -5.1501  2.6604  2.2008
11292TIP3    H255292   1.384   3.830  11.388  1.2334 -0.9585 -0.3901
11293TIP3   OH255293   4.458   3.424   6.140 -0.4797 -0.0473 -0.1528
11293TIP3    H155294   4.366   3.400   6.132 -0.4036 -0.5336  0.3228
11293TIP3    H255295   4.466   3.506   6.093 -1.1105 -0.1174 -0.3906
11294TIP3   OH255296   5.374   5.827   1.316  0.1360 -0.0786 -0.1023
11294TIP3    H155297   5.385   5.791   1.228 -0.5800 -0.1681 -0.1623
11294TIP3    H255298   5.363   5.921   1.302  1.1082  0.0594 -0.0153
11295TIP3   OH255299   2.980   0.009  15.115  0.2739 -0.3517 -0.3428
11295TIP3    H155300   2.930   0.013  15.196  1.8187 -0.3303  0.6538
11295TIP3    H255301   3.069   0.035  15.140  0.8017 -0.3744 -2.0363
11296TIP3   OH255302   3.946   3.464  11.684 -0.1161  0.0129 -0.0794
11296TIP3    H155303   3.936   3.526  11.612  0.5817  1.7282  1.2167
11296TIP3    H255304   4.036   3.431  11.676 -0.0381  0.2048 -0.0029
11297TIP3   OH255305   6.477   3.089  15.162 -0.3795  0.2705  0.2468
11297TIP3    H155306   6.399   3.035  15.173  0.0239 -0.4514 -0.3716
11297TIP3    H255307   6.532   3.066  15.237  0.1404 -0.8022 -0.4418
11298TIP3   OH255308   0.311   2.797   0.703  0.4607 -0.4473 -0.7497
11298TIP3    H155309   0.350   2.863   0.646  0.5764  1.4598  1.4223
11298TIP3    H255310   0.225   2.833   0.725  1.1573 -0.1405  1.7573
11299TIP3   OH255311   2.837   2.403   4.004  0.1415  0.0493 -0.1380
11299TIP3    H155312   2.865   2.424   3.915  0.2115 -1.6531 -0.5502
11299TIP3    H255313   2.893   2.331   4.030  0.0241  0.4334  1.2523
11300TIP3   OH255314   5.436   0.290  16.711 -0.3723  0.1443 -0.5544
11300TIP3    H155315   5.398   0.224  16.769 -2.4384  1.1176 -0.7173
11300TIP3    H255316   5.384   0.285  16.631 -1.0741  2.3943 -0.3037
11301TIP3   OH255317   2.727   3.477   2.728  0.0224 -0.0027  0.4627
11301TIP3    H155318   2.669   3.504   2.799  1.2212  0.3840  1.3127
11301TIP3    H255319   2.792   3.420   2.770  0.1055 -0.6614 -0.5220
11302TIP3   OH255320   0.132   4.788   4.165  0.1174  0.0913  0.3650
11302TIP3    H155321   0.171   4.835   4.238  0.3125  1.9431 -0.8528
11302TIP3    H255322   0.176   4.823   4.087 -0.9530 -0.9033 -0.7401
11303TIP3   OH255323   0.973   6.706   2.500  0.4207 -0.3166  0.0376
11303TIP3    H155324   0.954   6.659   2.581 -0.1700 -1.7134 -0.8645
11303TIP3    H255325   0.887   6.724   2.462  0.6470  1.2188  0.1642
11304TIP3   OH255326   3.925   0.654   4.009  0.2605 -0.2502  0.1498
11304TIP3    H155327   3.963   0.731   4.050 -1.0554  0.0650  0.8506
11304TIP3    H255328   3.909   0.680   3.918 -0.6599  0.5111  0.5082
11305TIP3   OH255329   5.122   0.015  15.137  0.2870  0.5730 -0.1393
11305TIP3    H155330   5.075   0.061  15.207 -0.0742 -0.4098  0.2825
11305TIP3    H255331   5.068  -0.062  15.118  0.1443  1.0326 -1.8218
11306TIP3   OH255332   5.222   3.381  17.192 -0.0393  0.0438  0.2311
11306TIP3    H155333   5.185   3.314  17.250  0.0545  0.3135  0.6026
11306TIP3    H255334   5.165   3.380  17.115 -0.9667  0.6300  0.8962
11307TIP3   OH255335   3.371   4.304  14.080  0.0865 -0.1462 -0.0353
11307TIP3    H155336   3.418   4.285  13.999 -1.9957 -0.8437 -1.1483
11307TIP3    H255337   3.365   4.400  14.082  0.8191 -0.0872 -0.2849
11308TIP3   OH255338   1.028   1.535   4.183 -0.2934  0.8283 -0.6301
11308TIP3    H155339   1.053   1.482   4.107  0.2730 -0.0611  0.1503
11308TIP3    H255340   1.041   1.626   4.154 -2.8484  0.6802 -2.5462
11309TIP3   OH255341   5.149   5.113   3.912  0.2027 -0.3508  0.7666
11309TIP3    H155342   5.169   5.161   3.832  1.4174 -1.4001  0.4152
11309TIP3    H255343   5.064   5.147   3.940 -0.1432  0.1725 -0.8550
11310TIP3   OH255344   5.415   0.866  15.230  0.1308 -0.0320 -0.0710
11310TIP3    H155345   5.482   0.820  15.282  0.5964  0.5768 -0.1247
11310TIP3    H255346   5.448   0.862  15.140 -0.6586 -1.0564 -0.3439
11311TIP3   OH255347   6.299   0.430   3.004 -0.3393 -0.2417 -0.3123
11311TIP3    H155348   6.226   0.380   2.968 -0.5687  0.2033 -0.4750
11311TIP3    H255349   6.261   0.514   3.029 -0.1472 -0.4792  0.8347
11312TIP3   OH255350   1.794   6.298   5.437 -0.2204 -0.2845 -0.2223
11312TIP3    H155351   1.787   6.213   5.480  0.3714 -0.2726 -0.0903
11312TIP3    H255352   1.719   6.348   5.469 -1.5896 -1.3307 -1.6350
11313TIP3   OH255353   5.394   2.806  17.029 -0.2416  0.1724  0.3544
11313TIP3    H155354   5.447   2.807  17.108  0.6131 -1.0132 -0.1752
11313TIP3    H255355   5.441   2.749  16.969 -1.7054 -0.2735 -0.4303
11314TIP3   OH255356   1.612   3.569   1.076  0.5433  0.1314  0.4093
11314TIP3    H155357   1.517   3.580   1.088  0.4383  2.1437 -1.6156
11314TIP3    H255358   1.620   3.526   0.991  1.4543 -0.9749  1.0374
11315TIP3   OH255359   3.394   1.623   1.898  0.3248 -0.5829 -0.2548
11315TIP3    H155360   3.425   1.631   1.988 -0.4792  0.9235 -0.0960
11315TIP3    H255361   3.468   1.651   1.844 -0.6464  3.1579  0.1261
11316TIP3   OH255362   3.524   2.456   2.899  0.3952  0.0006  0.2038
11316TIP3    H155363   3.534   2.446   2.804 -0.5441 -0.9551  0.1951
11316TIP3    H255364   3.580   2.531   2.920  1.4620 -0.4316 -0.9365
11317TIP3   OH255365   6.347   0.443  15.402 -0.5995 -0.2412 -0.0994
11317TIP3    H155366   6.304   0.487  15.328  0.1295 -2.3842 -1.9322
11317TIP3    H255367   6.278   0.391  15.442 -0.5973 -0.5181 -0.4521
11318TIP3   OH255368   4.764   3.083   1.921  0.4764 -0.2278 -0.2763
11318TIP3    H155369   4.695   3.039   1.969  0.3471 -0.3517 -0.5738
11318TIP3    H255370   4.844   3.036   1.945  0.3302 -0.6684 -0.6431
11319TIP3   OH255371   0.189   1.722   6.747 -0.0967 -0.2229  0.1442
11319TIP3    H155372   0.225   1.699   6.662 -1.2115 -0.0685 -0.3913
11319TIP3    H255373   0.227   1.658   6.808 -0.3605 -1.2158 -0.7131
11320TIP3   OH255374   0.369   1.578  12.736  0.2768 -0.0522 -0.7524
11320TIP3    H155375   0.339   1.524  12.809  3.4474  0.6024  1.2588
11320TIP3    H255376   0.354   1.525  12.658 -2.1656 -1.2772  0.4652
11321TIP3   OH255377   1.141   5.054   3.060 -0.3133  0.4002 -0.2597
11321TIP3    H155378   1.157   5.136   3.107 -1.2543  0.0778  0.6661
11321TIP3    H255379   1.211   4.995   3.090  0.6887  1.0065 -1.3394
11322TIP3   OH255380   6.700   4.425   4.448 -0.4208 -0.5681  0.1414
11322TIP3    H155381   6.741   4.506   4.476  1.7644 -1.2805 -0.7617
11322TIP3    H255382   6.687   4.375   4.529 -0.5541  0.1319  0.5594
11323TIP3   OH255383   1.774   3.340  16.592  0.1210  0.4735  0.4221
11323TIP3    H155384   1.753   3.270  16.654  0.4618 -1.4557 -1.4897
11323TIP3    H255385   1.705   3.405  16.605 -0.6678 -0.5695  1.7590
11324TIP3   OH255386   5.595   3.692   2.228 -0.1821  0.1958  0.5045
11324TIP3    H155387   5.654   3.767   2.224  0.7384 -0.5335 -2.9147
11324TIP3    H255388   5.526   3.712   2.164 -1.6423 -0.5769  1.7601
11325TIP3   OH255389   6.097   0.764   3.849 -0.4419 -0.2653  0.0668
11325TIP3    H155390   6.062   0.847   3.815 -0.5488  0.4674  1.8583
11325TIP3    H255391   6.044   0.745   3.926  2.8111  0.8098  2.8035
11326TIP3   OH255392   4.268   5.142  16.184 -0.0794  0.0702 -0.7406
11326TIP3    H155393   4.261   5.161  16.278  1.8036  0.8509 -0.6959
11326TIP3    H255394   4.178   5.130  16.155 -0.7435  0.2762  1.0766
11327TIP3   OH255395   4.794   5.227  12.036 -0.1458  0.3044  0.1882
11327TIP3    H155396   4.829   5.227  12.125 -0.4085 -0.4995  0.2932
11327TIP3    H255397   4.705   5.260  12.045  1.0069  4.0656 -0.2881
11328TIP3   OH255398   4.006   1.678  13.017 -0.0338  0.2044 -0.3898
11328TIP3    H155399   4.050   1.617  13.076  0.8742  1.2459  0.0593
11328TIP3    H255400   4.016   1.763  13.060 -1.0477  0.7082 -1.1173
11329TIP3   OH255401   1.544   3.774  16.206  0.5354 -0.1327 -0.6292
11329TIP3    H155402   1.477   3.732  16.152 -0.0869  1.6654 -1.3400
11329TIP3    H255403   1.599   3.820  16.142 -0.1348  1.9326  0.2113
11330TIP3   OH255404   1.363   4.886   1.748 -0.0447  0.1522  0.0583
11330TIP3    H155405   1.397   4.808   1.705  1.2621  0.1936  0.9595
11330TIP3    H255406   1.272   4.865   1.769  0.4666 -1.3903  0.8601
11331TIP3   OH255407   3.412   5.422  13.318 -0.2706  0.1913 -0.4199
11331TIP3    H155408   3.415   5.396  13.225 -2.4060 -1.9558  0.0070
11331TIP3    H255409   3.367   5.506  13.318 -0.6612 -0.0057 -1.3035
11332TIP3   OH255410   5.085   1.755  11.622 -0.4541  0.2872  0.8091
11332TIP3    H155411   5.170   1.791  11.597 -0.2641 -0.9879 -0.5592
11332TIP3    H255412   5.033   1.832  11.646  0.8566  1.1564  1.0023
11333TIP3   OH255413   4.322   4.644  13.171  0.0555  0.0974 -0.2723
11333TIP3    H155414   4.338   4.557  13.134 -0.4056 -0.1954  0.1999
11333TIP3    H255415   4.389   4.653  13.239 -0.7327 -0.4533  0.5953
11334TIP3   OH255416   1.814   3.494  13.200 -0.2054  0.1576  0.7559
11334TIP3    H155417   1.888   3.554  13.196 -0.0131 -0.1471 -1.4391
11334TIP3    H255418   1.740   3.549  13.227  0.4979  0.7612  1.5253
11335TIP3   OH255419   4.682   1.675  16.599 -0.4290 -0.0636 -0.0411
11335TIP3    H155420   4.588   1.690  16.583 -0.2867  1.6239  0.4894
11335TIP3    H255421   4.705   1.740  16.665  1.2191 -0.1868 -0.4707
11336TIP3   OH255422   5.497   1.601   6.284  0.1536 -0.2217 -0.0157
11336TIP3    H155423   5.467   1.531   6.226  1.1936  0.4714 -1.4474
11336TIP3    H255424   5.554   1.557   6.347 -1.5867 -1.1063  1.0427
11337TIP3   OH255425   2.095   2.811   0.795 -0.5945 -0.0726  0.3933
11337TIP3    H155426   2.117   2.734   0.742 -2.1383  1.0829 -2.1162
11337TIP3    H255427   2.150   2.881   0.759 -2.4064  0.9746 -0.4963
11338TIP3   OH255428   0.896   2.455  17.487  0.0273  0.0819  0.3927
11338TIP3    H155429   0.858   2.390  17.545  0.5001 -0.2030  0.3832
11338TIP3    H255430   0.988   2.432  17.481 -0.0557 -0.0273 -0.6515
11339TIP3   OH255431   4.214   1.801  15.020  0.4340  0.1819 -0.0153
11339TIP3    H155432   4.226   1.827  14.929  1.5917 -0.5365 -0.0929
11339TIP3    H255433   4.131   1.841  15.046 -0.0367  0.2048 -1.4498
11340TIP3   OH255434   4.880   3.958   4.671 -0.1958  0.6271  0.0999
11340TIP3    H155435   4.967   3.936   4.706 -0.5332 -0.4780  0.2720
11340TIP3    H255436   4.898   3.987   4.581  0.4609  1.5514  0.5058
11341TIP3   OH255437   1.508   5.965   5.333 -0.3959 -0.0731 -0.4091
11341TIP3    H155438   1.522   5.871   5.326  0.1738 -0.1146  1.0276
11341TIP3    H255439   1.424   5.980   5.290 -0.7819 -1.3355 -0.1223
11342TIP3   OH255440   5.395   5.579   5.297 -0.0768 -0.5581 -0.5227
11342TIP3    H155441   5.382   5.623   5.381  0.8600 -2.1108  0.4923
11342TIP3    H255442   5.311   5.589   5.251  0.1286  2.3458 -0.4598
11343TIP3   OH255443   5.308   4.596  11.766 -0.0614  0.5186  0.4412
11343TIP3    H155444   5.341   4.506  11.764 -1.3815  0.0187 -0.2962
11343TIP3    H255445   5.339   4.635  11.684 -1.8364 -0.1865 -0.6166
11344TIP3   OH255446   5.213   5.734   5.544 -0.7164 -0.3000  0.0911
11344TIP3    H155447   5.144   5.801   5.549 -1.2543 -0.8364 -0.0656
11344TIP3    H255448   5.267   5.750   5.622 -1.0136  0.1228  0.2179
11345TIP3   OH255449   5.815   4.478   1.794 -0.3497 -0.1918 -0.5649
11345TIP3    H155450   5.734   4.504   1.838 -0.6855  0.8014 -1.7455
11345TIP3    H255451   5.885   4.516   1.848 -0.6480 -1.0060  0.4253
11346TIP3   OH255452   5.665   5.338   2.966  0.4280  0.4253 -0.4816
11346TIP3    H155453   5.578   5.379   2.964 -0.9005 -1.8026  2.7477
11346TIP3    H255454   5.707   5.375   3.043  0.7371 -1.2840  0.2198
11347TIP3   OH255455   0.111   3.009  16.261 -0.9617 -0.1443  0.1328
11347TIP3    H155456   0.027   3.010  16.307 -0.9587 -1.2289  0.1864
11347TIP3    H255457   0.122   2.918  16.233 -0.1764  0.1544 -0.5655
11348TIP3   OH255458   5.579   2.322  14.919 -0.4105 -1.1259  0.4223
11348TIP3    H155459   5.535   2.239  14.936 -0.4952 -1.1384  0.1418
11348TIP3    H255460   5.512   2.389  14.938 -1.5683 -1.1970 -2.8288
11349TIP3   OH255461   5.164   4.227  12.368 -0.6060 -0.4728 -0.1005
11349TIP3    H155462   5.236   4.187  12.416 -0.5629 -1.0622 -0.6459
11349TIP3    H255463   5.199   4.310  12.335 -0.2650 -0.6263 -0.1253
11350TIP3   OH255464   0.030   3.488   5.964  0.2653 -0.2141  0.5396
11350TIP3    H155465   0.027   3.458   6.055  2.3994  0.4602  0.8869
11350TIP3    H255466  -0.056   3.528   5.949 -1.4209 -3.3298  1.1144
11351TIP3   OH255467   4.878   6.633   2.336 -0.3129 -0.4160 -0.6059
11351TIP3    H155468   4.875   6.691   2.412 -0.7371 -1.3902  0.1467
11351TIP3    H255469   4.910   6.688   2.264 -0.5496  0.6915  0.1207
11352TIP3   OH255470   2.001   0.463   2.940  0.0409 -0.1633  0.1139
11352TIP3    H155471   2.055   0.543   2.935  0.1263 -0.2862 -1.5519
11352TIP3    H255472   1.916   0.493   2.971  0.7340  0.2083  1.7124
11353TIP3   OH255473   3.753   6.099  13.636 -0.6298  0.6183  0.3915
11353TIP3    H155474   3.719   6.186  13.615  0.4623  0.9819  0.0622
11353TIP3    H255475   3.824   6.115  13.698  0.0289  0.0192 -0.2000
11354TIP3   OH255476   0.587   2.684   1.669 -0.0014  0.0308 -0.0727
11354TIP3    H155477   0.676   2.714   1.687  0.5147 -0.7989 -1.1338
11354TIP3    H255478   0.536   2.715   1.744  1.3923 -0.5076  1.1522
11355TIP3   OH255479   1.964   5.308  16.097 -0.1160 -0.1571 -0.0243
11355TIP3    H155480   1.883   5.355  16.075  1.1139  0.5933 -3.7911
11355TIP3    H255481   2.010   5.367  16.156 -1.0094  0.8638 -0.3070
11356TIP3   OH255482   0.532   0.374   1.100  0.0511 -0.1111 -0.2673
11356TIP3    H155483   0.479   0.295   1.110 -0.4489  0.1127 -1.1337
11356TIP3    H255484   0.595   0.353   1.032 -0.1048  0.2420 -0.5261
11357TIP3   OH255485   4.828   1.227  11.208  0.2484  0.3178 -0.2127
11357TIP3    H155486   4.908   1.276  11.192  0.7184 -0.4487 -0.2897
11357TIP3    H255487   4.770   1.288  11.254  0.2924  1.3646 -1.5178
11358TIP3   OH255488   6.225   4.291  14.362  0.1152 -0.2510 -0.1134
11358TIP3    H155489   6.144   4.242  14.347  1.3708 -2.7461  0.6702
11358TIP3    H255490   6.295   4.227  14.344  1.9578  1.9288 -1.1993
11359TIP3   OH255491   1.166   4.104   0.297  0.4098 -0.0145  0.2173
11359TIP3    H155492   1.078   4.136   0.275  0.7199  1.4888  0.9826
11359TIP3    H255493   1.198   4.167   0.361  1.7614 -0.9805  0.5253
11360TIP3   OH255494   2.831   4.770   0.053  0.4813 -0.1624  0.5988
11360TIP3    H155495   2.922   4.799   0.053 -0.1594  2.1782  2.2207
11360TIP3    H255496   2.782   4.842   0.013 -0.5849 -1.9458 -1.5133
11361TIP3   OH255497   2.153   3.356   1.136  0.9758  0.1624 -0.4782
11361TIP3    H155498   2.126   3.266   1.153 -0.8308  0.8829  0.7905
11361TIP3    H255499   2.104   3.408   1.200  1.0632  2.1594 -1.9500
11362TIP3   OH255500   0.428   2.715  12.156 -0.0146  0.1323  0.0817
11362TIP3    H155501   0.347   2.708  12.208 -1.5239 -1.0202 -2.2724
11362TIP3    H255502   0.467   2.628  12.161  0.1159  0.1678 -0.3207
11363TIP3   OH255503   1.888   0.440   2.308 -0.2224  0.2378  0.0312
11363TIP3    H155504   1.929   0.473   2.388 -0.6714  0.7753  0.0474
11363TIP3    H255505   1.918   0.350   2.301  0.1083  0.2978  0.6149
11364TIP3   OH255506   2.644   3.013  15.279  0.1339  0.1208  0.5380
11364TIP3    H155507   2.644   3.102  15.245 -1.0049 -0.3478 -0.8015
11364TIP3    H255508   2.573   3.011  15.343 -0.7730 -0.1306 -0.4322
11365TIP3   OH255509   0.489   6.698  12.474 -0.3314  0.2035 -0.3662
11365TIP3    H155510   0.397   6.722  12.484 -0.1374  0.7878  0.0520
11365TIP3    H255511   0.526   6.704  12.563  0.4806  1.5467 -0.7690
11366TIP3   OH255512   1.127   4.613   2.798  0.4093  0.4253  0.2120
11366TIP3    H155513   1.085   4.610   2.884  1.1626 -1.6993  0.5646
11366TIP3    H255514   1.194   4.680   2.807  0.3428  0.3736  1.2249
11367TIP3   OH255515   2.284   0.251   5.977  0.2565  0.4186 -0.3044
11367TIP3    H155516   2.295   0.327   6.034  0.7235  1.4508 -1.6973
11367TIP3    H255517   2.204   0.208   6.008  0.3943  1.0599  0.9760
11368TIP3   OH255518   3.114   5.986  13.787  0.0359 -0.2760 -0.1151
11368TIP3    H155519   3.146   5.997  13.698 -0.4854  0.3446 -0.2389
11368TIP3    H255520   3.025   6.022  13.785 -0.2953 -1.0326  0.4525
11369TIP3   OH255521   6.150   5.844  11.737  0.4497 -0.0993  0.3635
11369TIP3    H155522   6.151   5.861  11.643 -1.5615 -1.3700  0.0703
11369TIP3    H255523   6.157   5.931  11.777  0.5390  0.5148 -0.9519
11370TIP3   OH255524   3.373   3.402   4.474  0.1003  0.0972  0.0076
11370TIP3    H155525   3.398   3.492   4.492 -0.3542 -0.0515  1.4369
11370TIP3    H255526   3.395   3.354   4.553  0.3048 -1.0597 -0.7179
11371TIP3   OH255527   3.637   6.580  11.153  0.4949 -0.1942  0.1368
11371TIP3    H155528   3.656   6.491  11.182 -2.5709 -1.6069 -1.6573
11371TIP3    H255529   3.709   6.603  11.095  0.9007 -1.8863 -0.0768
11372TIP3   OH255530   0.720   0.341   3.876 -0.0167  0.4619 -0.4387
11372TIP3    H155531   0.800   0.338   3.929 -1.7167  1.6686  2.4300
11372TIP3    H255532   0.708   0.252   3.844  0.8735 -0.4591  1.6494
11373TIP3   OH255533   3.228   3.340  13.279  0.2635 -0.0738 -0.1897
11373TIP3    H155534   3.226   3.245  13.264  1.0151 -0.0494 -0.4815
11373TIP3    H255535   3.155   3.356  13.340 -1.4359 -0.5042 -2.0024
11374TIP3   OH255536   2.385   4.334  12.756  0.4397  1.0637  0.2018
11374TIP3    H155537   2.320   4.372  12.814 -0.3255  2.6820 -1.6038
11374TIP3    H255538   2.360   4.242  12.749 -0.6975  1.3172  0.7878
11375TIP3   OH255539   2.159   5.586  15.835  0.3133 -0.0019 -0.0960
11375TIP3    H155540   2.081   5.593  15.780  0.7658 -2.7653 -1.2383
11375TIP3    H255541   2.227   5.634  15.787  0.4288 -1.4789 -1.4857
11376TIP3   OH255542   0.098   0.963   0.089  0.6063 -0.4719 -0.2224
11376TIP3    H155543   0.102   0.951  -0.006 -0.8702 -2.0178 -0.1364
11376TIP3    H255544   0.177   0.920   0.121  1.7087  1.0557 -0.7965
11377TIP3   OH255545   4.587   2.156   5.054 -0.3663 -0.1799  0.7728
11377TIP3    H155546   4.561   2.107   4.976  1.3131 -1.1073  0.7461
11377TIP3    H255547   4.511   2.150   5.112 -1.3206 -0.2008 -0.4435
11378TIP3   OH255548   5.001   2.040  13.638  0.3960 -0.0717  0.2512
11378TIP3    H155549   5.017   2.034  13.543  1.0638  1.2575  0.2483
11378TIP3    H255550   4.910   2.013  13.649  0.8124 -1.9100 -0.5439
11379TIP3   OH255551   6.545   2.044  13.012 -0.1142 -0.4187 -0.3091
11379TIP3    H155552   6.580   2.133  13.020 -1.2700  0.1081 -0.9523
11379TIP3    H255553   6.623   1.989  13.002  0.5640  0.6755 -1.2827
11380TIP3   OH255554   2.770   2.661  12.560 -0.2291  0.3367  0.1922
11380TIP3    H155555   2.730   2.722  12.497  0.0474 -0.7393 -1.0682
11380TIP3    H255556   2.697   2.605  12.587 -0.1703  0.2544  0.1764
11381TIP3   OH255557   4.864   3.762  14.821 -0.2261 -0.4257  0.3488
11381TIP3    H155558   4.867   3.795  14.731 -0.2794 -0.1137  0.4598
11381TIP3    H255559   4.808   3.685  14.817 -0.6878 -0.0842  0.2176
11382TIP3   OH255560   6.225   1.606   4.020  0.0598 -0.7878 -0.5901
11382TIP3    H155561   6.160   1.606   3.950 -1.1133 -1.4043  0.4666
11382TIP3    H255562   6.272   1.523   4.008 -0.3659 -1.0532 -0.4495
11383TIP3   OH255563   5.033   0.328  11.785  0.3822 -0.0389  0.4523
11383TIP3    H155564   5.085   0.397  11.828  1.0360 -0.0228 -0.3403
11383TIP3    H255565   5.078   0.247  11.807  0.1085 -0.1289  0.6748
11384TIP3   OH255566   5.149   3.073  14.633  0.2813  0.8155  0.1902
11384TIP3    H155567   5.147   3.168  14.641  1.0420  0.9902 -1.3079
11384TIP3    H255568   5.242   3.052  14.623 -0.0024  0.1118 -1.2609
11385TIP3   OH255569   5.689   0.748  12.727  0.1278  0.5839 -0.1326
11385TIP3    H155570   5.739   0.763  12.646 -0.5512 -0.2349 -0.7209
11385TIP3    H255571   5.690   0.833  12.771  2.9718  0.3308  0.4322
11386TIP3   OH255572   3.222   1.044   5.656  0.5607  0.1834 -0.4850
11386TIP3    H155573   3.310   1.078   5.638 -0.0658  1.1542 -1.8258
11386TIP3    H255574   3.215   1.046   5.752  1.2606  2.0645 -0.4349
11387TIP3   OH255575   1.154   2.449   4.327 -0.0144  0.3175  0.1941
11387TIP3    H155576   1.204   2.423   4.250  0.5657  1.2442  0.2519
11387TIP3    H255577   1.068   2.407   4.315  0.1556  0.2358 -0.8143
11388TIP3   OH255578   0.717   6.460   2.417  0.3325 -0.2268 -0.0464
11388TIP3    H155579   0.722   6.430   2.326 -0.8643 -0.0685 -0.1753
11388TIP3    H255580   0.695   6.553   2.411  1.4550  0.0975  0.4058
11389TIP3   OH255581   1.453   3.879  16.983  0.2344 -0.3444 -0.3423
11389TIP3    H155582   1.444   3.793  16.944  2.8009 -0.7095 -0.3367
11389TIP3    H255583   1.547   3.888  16.999 -0.1168  1.9105  0.9102
11390TIP3   OH255584   5.800   2.367   0.938  0.0939 -0.4474 -0.0001
11390TIP3    H155585   5.753   2.371   0.855  0.6683  2.4743 -0.2713
11390TIP3    H255586   5.749   2.423   0.997  1.6093  0.4149  0.5403
11391TIP3   OH255587   5.143   2.292   1.923 -0.3009 -0.3807 -0.3208
11391TIP3    H155588   5.071   2.276   1.863  0.6202  1.5733 -2.1191
11391TIP3    H255589   5.222   2.282   1.869  0.6213  0.5564  0.7850
11392TIP3   OH255590   3.230   2.174  13.934  0.3079 -0.3440 -0.1859
11392TIP3    H155591   3.203   2.116  13.863  1.0119 -0.3113 -0.4822
11392TIP3    H255592   3.197   2.260  13.910 -2.0558 -0.8341  0.9598
11393TIP3   OH255593   4.064   3.189   2.482 -0.0083  0.3680 -0.0244
11393TIP3    H155594   4.071   3.221   2.572  1.2476 -1.6746  0.6674
11393TIP3    H255595   4.010   3.109   2.489  2.0402 -1.1596 -0.6371
11394TIP3   OH255596   1.935   1.712  16.487  0.3545  0.0694 -0.0904
11394TIP3    H155597   1.911   1.652  16.557 -1.1471 -0.1851 -0.7959
11394TIP3    H255598   1.957   1.655  16.413  1.1088  0.3549 -0.0999
11395TIP3   OH255599   1.285   6.282  16.950 -0.0290 -0.1672  0.1620
11395TIP3    H155600   1.258   6.238  17.031  0.5735  1.2345  1.1663
11395TIP3    H255601   1.380   6.283  16.954 -0.0138  0.6073 -0.1615
11396TIP3   OH255602   6.028   5.804  16.483 -0.1166  0.8942  0.2520
11396TIP3    H155603   5.949   5.814  16.537 -0.2234  0.8306  0.1074
11396TIP3    H255604   6.051   5.894  16.458  0.4014  0.9997  1.0684
11397TIP3   OH255605   4.460   3.950  12.321  0.6693 -0.0875  0.2401
11397TIP3    H155606   4.416   3.865  12.318  0.6462 -0.1659  2.1046
11397TIP3    H255607   4.394   4.010  12.355  0.8341  0.6070 -0.6162
11398TIP3   OH255608   4.117   3.073  12.549  0.0876 -0.1278 -0.5325
11398TIP3    H155609   4.187   3.138  12.563 -0.9076  0.7428  0.5961
11398TIP3    H255610   4.086   3.052  12.637  1.7038 -3.7141 -0.6376
11399TIP3   OH255611   1.554   4.342   3.257  0.0867  0.2102  0.1509
11399TIP3    H155612   1.506   4.416   3.295 -1.1275 -0.7335  0.5598
11399TIP3    H255613   1.498   4.312   3.185 -0.2847 -1.2768  1.0034
11400TIP3   OH255614   5.851   2.975   2.493  0.3974 -0.6526  0.1772
11400TIP3    H155615   5.900   2.919   2.433  1.5302  0.4027  0.0857
11400TIP3    H255616   5.760   2.967   2.464  0.6989 -1.5292 -0.5651
11401TIP3   OH255617   5.036   1.165   3.059 -0.1250  0.1414 -0.4948
11401TIP3    H155618   4.960   1.111   3.079 -0.0161  0.7000  1.6943
11401TIP3    H255619   5.006   1.225   2.991 -1.8893  0.8029  0.7829
11402TIP3   OH255620   2.251   4.454   1.665  0.0651  0.0069  0.1878
11402TIP3    H155621   2.297   4.395   1.606  0.8141  0.0832  0.6861
11402TIP3    H255622   2.169   4.408   1.686 -0.9349  0.6373 -2.0713
11403TIP3   OH255623   3.604   0.991  12.331  0.4291  0.2235 -0.1083
11403TIP3    H155624   3.510   0.978  12.332  0.3661  0.7032  0.9521
11403TIP3    H255625   3.617   1.069  12.277  0.2916 -0.2442 -0.8395
11404TIP3   OH255626   4.582   5.467  17.298 -0.3310 -0.0986  0.4541
11404TIP3    H155627   4.644   5.446  17.228  0.3135  2.2145  0.2551
11404TIP3    H255628   4.508   5.508  17.254 -0.8296 -0.4496  0.9473
11405TIP3   OH255629   3.257   1.461   1.142 -0.0777  0.3671  0.5149
11405TIP3    H155630   3.234   1.409   1.064  0.1070 -0.1082  0.7745
11405TIP3    H255631   3.340   1.502   1.119  1.1227 -1.5392  1.2793
11406TIP3   OH255632   2.251   4.934   0.956  0.0847 -0.0389 -0.3991
11406TIP3    H155633   2.224   5.011   0.907 -2.1670  0.1527  1.0127
11406TIP3    H255634   2.322   4.896   0.903  1.7664  3.2844 -0.8240
11407TIP3   OH255635   1.869   0.877   4.162  0.0946 -0.4746  0.0950
11407TIP3    H155636   1.865   0.879   4.067 -1.3477 -0.7203  0.1386
11407TIP3    H255637   1.865   0.969   4.188  0.8257 -0.3846 -0.0729
11408TIP3   OH255638   6.542   2.284  16.698  0.1343 -0.0513 -0.2751
11408TIP3    H155639   6.530   2.371  16.737  1.1443 -0.8116  1.9146
11408TIP3    H255640   6.458   2.265  16.656 -1.2713  0.6965  1.9808
11409TIP3   OH255641   0.726   2.984   4.358 -0.1906  0.2355 -0.0069
11409TIP3    H155642   0.804   2.992   4.412 -0.2438 -0.6381  0.2133
11409TIP3    H255643   0.759   2.987   4.268 -0.1145  1.7945  0.0573
11410TIP3   OH255644   3.921   3.738  16.233 -0.1315  0.2218  0.0833
11410TIP3    H155645   4.007   3.757  16.269 -0.5036  2.5367 -0.0920
11410TIP3    H255646   3.864   3.807  16.268 -1.5278 -0.2037 -1.1991
11411TIP3   OH255647   4.412   6.379   0.476  0.2637 -0.4284 -0.1109
11411TIP3    H155648   4.384   6.345   0.562 -0.8506 -0.8410 -0.6245
11411TIP3    H255649   4.374   6.466   0.471 -0.1065 -0.6101 -0.4106
11412TIP3   OH255650   4.986   4.343   1.551  0.0024 -0.1387  0.3320
11412TIP3    H155651   4.982   4.427   1.597  1.8135  0.4928 -0.5730
11412TIP3    H255652   4.913   4.345   1.489 -0.1322  0.6489  0.5086
11413TIP3   OH255653   1.364   5.690  15.607  0.1551 -0.3265  0.4843
11413TIP3    H155654   1.416   5.743  15.668 -0.1024 -0.0748  0.4875
11413TIP3    H255655   1.425   5.670  15.536  0.5876 -1.0068  1.0376
11414TIP3   OH255656   3.654   3.465   5.231 -0.0920 -0.0957 -0.5994
11414TIP3    H155657   3.684   3.531   5.293 -0.6038 -0.8739  0.4979
11414TIP3    H255658   3.646   3.513   5.148  1.0782  0.8354 -0.1988
11415TIP3   OH255659   3.883   4.986  12.301 -0.3023 -0.0075 -0.0050
11415TIP3    H155660   3.845   5.072  12.322 -1.7189 -0.5754 -0.1564
11415TIP3    H255661   3.922   4.958  12.384 -1.7152 -0.1389  0.6580
11416TIP3   OH255662   5.638   0.533  16.458 -0.2982 -0.1553 -0.0978
11416TIP3    H155663   5.695   0.462  16.427 -1.4812 -0.1166 -2.6355
11416TIP3    H255664   5.549   0.504  16.435 -0.8094  2.1647 -1.3643
11417TIP3   OH255665   1.604   3.749  14.019  0.0161  0.0975  0.1688
11417TIP3    H155666   1.692   3.735  14.055 -0.6436  2.2328  2.9966
11417TIP3    H255667   1.546   3.741  14.095 -2.2955 -1.2275 -1.6137
11418TIP3   OH255668   5.624   4.679  14.045 -0.0288 -0.0021 -0.5755
11418TIP3    H155669   5.630   4.610  14.111  0.0892  1.3020  0.8323
11418TIP3    H255670   5.669   4.642  13.968 -0.4941 -1.6916 -0.0878
11419TIP3   OH255671   1.370   5.802  13.836  0.2444  0.1011  0.2914
11419TIP3    H155672   1.355   5.809  13.930  3.0519  1.3094  0.7298
11419TIP3    H255673   1.415   5.884  13.812 -1.1941  0.2496 -2.3092
11420TIP3   OH255674   4.565   3.903   0.971  0.2623  0.1763  0.3932
11420TIP3    H155675   4.514   3.915   1.052 -0.6048 -1.3228  0.1099
11420TIP3    H255676   4.500   3.877   0.906  1.2808 -1.0815 -0.1556
11421TIP3   OH255677   5.068   0.220  12.899  0.2675  0.2384  1.1273
11421TIP3    H155678   5.013   0.262  12.832 -0.6804 -0.4804  1.4213
11421TIP3    H255679   5.127   0.289  12.929  0.3561  0.7026 -0.0868
11422TIP3   OH255680   2.420   4.845  11.817  0.5699 -0.0304 -0.0328
11422TIP3    H155681   2.479   4.915  11.846 -0.4107  0.4114  0.9608
11422TIP3    H255682   2.479   4.779  11.778  1.5500  1.1144 -0.5624
11423TIP3   OH255683   5.507   0.239  14.710  0.2531  0.0262  0.1924
11423TIP3    H155684   5.508   0.229  14.805  1.8700  2.0064  0.4482
11423TIP3    H255685   5.440   0.305  14.694 -0.1234 -0.4147 -0.0818
11424TIP3   OH255686   5.726   1.933   2.296 -0.6800 -0.3251  0.5683
11424TIP3    H155687   5.749   1.845   2.265 -0.0710 -0.3258  1.0022
11424TIP3    H255688   5.772   1.942   2.380  2.3151  1.7360 -1.0761
11425TIP3   OH255689   4.927   3.479   4.821  0.1752  0.3706 -0.6054
11425TIP3    H155690   4.871   3.435   4.757  2.1750 -0.8091 -1.6447
11425TIP3    H255691   4.979   3.541   4.769  2.1185 -0.8930 -0.2879
11426TIP3   OH255692   3.340   2.921   2.546 -0.0249 -0.4882 -0.3008
11426TIP3    H155693   3.299   3.007   2.561 -0.3495 -0.5150 -1.0027
11426TIP3    H255694   3.430   2.941   2.519  0.1559 -0.3998  0.3546
11427TIP3   OH255695   5.405   4.150  16.281 -0.0896  0.1960  0.3038
11427TIP3    H155696   5.381   4.137  16.190  2.4992  1.2329 -0.6344
11427TIP3    H255697   5.498   4.128  16.284 -0.2864 -0.5873  2.8903
11428TIP3   OH255698   0.156   2.202   4.941  0.4966  0.0106 -0.2166
11428TIP3    H155699   0.074   2.159   4.916 -0.3070  1.0026  0.5780
11428TIP3    H255700   0.210   2.132   4.977  0.2788 -0.7800 -1.3638
11429TIP3   OH255701   0.269   1.982   5.048  0.4139  0.5103 -0.9022
11429TIP3    H155702   0.357   1.984   5.087 -0.0986  0.6587  0.2963
11429TIP3    H255703   0.220   1.920   5.103 -0.8077  1.9837 -0.2710
11430TIP3   OH255704   0.215   3.342   1.324  0.2625 -0.0271  0.2120
11430TIP3    H155705   0.120   3.343   1.315  0.4647 -0.0218 -2.9267
11430TIP3    H255706   0.230   3.304   1.410 -2.5652 -0.0864  0.7733
11431TIP3   OH255707   3.365   5.376  14.968 -0.1461  0.1655  1.0277
11431TIP3    H155708   3.306   5.449  14.990 -1.0379 -0.5942  1.2256
11431TIP3    H255709   3.308   5.312  14.924  1.0088  0.4079 -0.9295
11432TIP3   OH255710   5.047   2.073   0.480  0.6441 -0.4920 -0.3055
11432TIP3    H155711   5.097   1.992   0.495 -1.0843 -1.2946  1.5887
11432TIP3    H255712   5.034   2.075   0.385 -1.3087 -3.8152 -0.2883
11433TIP3   OH255713   0.101   3.511   3.050 -0.4434 -0.3791  0.1348
11433TIP3    H155714   0.094   3.446   3.119  2.9842  0.9423  1.9473
11433TIP3    H255715   0.186   3.495   3.010  0.7258  3.0761  0.9053
11434TIP3   OH255716   1.130   1.682  13.386 -0.6176 -0.1355 -0.2930
11434TIP3    H155717   1.145   1.600  13.434 -0.1030  0.4972  0.6417
11434TIP3    H255718   1.215   1.725  13.386 -0.7628  0.1714 -1.2391
11435TIP3   OH255719   3.543   2.662   3.274 -0.2438  0.4446  0.4260
11435TIP3    H155720   3.475   2.627   3.217 -0.2665 -1.5567  1.5996
11435TIP3    H255721   3.502   2.735   3.320 -0.7063  1.0441 -0.8966
11436TIP3   OH255722   0.025   0.265   6.408 -0.1441 -0.2507  0.6849
11436TIP3    H155723   0.099   0.217   6.445 -0.7819 -1.7468  0.1139
11436TIP3    H255724  -0.050   0.238   6.462 -0.2437  1.6522  1.6016
11437TIP3   OH255725   3.168   1.720   4.914  0.3911  0.3689  0.1355
11437TIP3    H155726   3.103   1.716   4.844  0.7297 -0.4274 -0.1366
11437TIP3    H255727   3.183   1.629   4.939  0.8823  0.5905  0.6871
11438TIP3   OH255728   0.295   0.253   3.373  0.2427 -0.2455  0.0500
11438TIP3    H155729   0.363   0.311   3.407 -0.1760 -1.0184  2.3201
11438TIP3    H255730   0.326   0.228   3.286  2.7418 -0.3986  0.9249
11439TIP3   OH255731   4.217   4.528  11.509 -0.2669 -0.2193 -0.0361
11439TIP3    H155732   4.190   4.617  11.487  1.4754  0.1518 -0.8565
11439TIP3    H255733   4.225   4.528  11.604 -0.4738  0.4476 -0.0147
11440TIP3   OH255734   0.236   1.044  11.909  0.1100  0.1463 -0.3544
11440TIP3    H155735   0.320   0.997  11.909 -0.2897 -0.7155 -2.5439
11440TIP3    H255736   0.171   0.976  11.925 -0.2238  0.7403  0.8909
11441TIP3   OH255737   6.471   1.655   5.938 -0.3889 -0.5101 -0.3347
11441TIP3    H155738   6.427   1.644   5.853 -0.0966 -0.7997 -0.4542
11441TIP3    H255739   6.404   1.691   5.996 -0.2945  0.7486 -0.9755
11442TIP3   OH255740   1.061   2.906  14.785 -0.3961 -0.0402  0.2996
11442TIP3    H155741   1.135   2.897  14.725  0.4662 -0.9551  1.4463
11442TIP3    H255742   1.100   2.934  14.868 -1.1749 -1.4921  1.2125
11443TIP3   OH255743   5.470   6.430   3.901  0.6695  0.1035  0.6065
11443TIP3    H155744   5.400   6.483   3.938 -1.0302 -1.7892  0.2958
11443TIP3    H255745   5.534   6.493   3.869 -1.7727  2.0330 -0.8547
11444TIP3   OH255746   0.532   6.709  16.885  0.0141  0.3161  0.3011
11444TIP3    H155747   0.515   6.730  16.793  1.1749 -1.0162 -0.2462
11444TIP3    H255748   0.518   6.615  16.891 -0.3871  0.4385  1.5902
11445TIP3   OH255749   3.004   1.330  16.824 -0.2950  0.0744  0.6560
11445TIP3    H155750   3.044   1.337  16.737 -0.8979  0.2683  0.3942
11445TIP3    H255751   3.008   1.419  16.859  0.7468 -0.1602  1.1970
11446TIP3   OH255752   5.496   6.173  11.947  0.6167 -0.0587 -0.4971
11446TIP3    H155753   5.430   6.107  11.972  0.8453 -0.7334 -1.5909
11446TIP3    H255754   5.539   6.196  12.029 -1.3192  0.7844  0.3321
11447TIP3   OH255755   6.041   5.667  12.280  0.0821  0.4075 -0.3426
11447TIP3    H155756   6.108   5.707  12.336 -0.5308 -0.1378  0.8050
11447TIP3    H255757   6.037   5.576  12.308 -0.0572  0.0523 -1.4690
11448TIP3   OH255758   0.173   5.330   3.957 -0.3893  0.8165 -0.2824
11448TIP3    H155759   0.106   5.285   3.905  1.0500  0.4332 -1.8994
11448TIP3    H255760   0.211   5.262   4.012 -1.7573  1.1778  1.1909
11449TIP3   OH255761   5.075   6.259   2.700  0.3239  0.2325  0.0708
11449TIP3    H155762   5.143   6.319   2.668 -0.7098  1.7213  0.5293
11449TIP3    H255763   5.045   6.300   2.782 -1.9318  0.2724 -0.7102
11450TIP3   OH255764   6.521   0.612   5.215 -0.2835 -0.3709 -1.0025
11450TIP3    H155765   6.560   0.548   5.274  1.8313  0.6393 -1.2091
11450TIP3    H255766   6.462   0.663   5.270 -2.5657 -2.8643 -0.9850
11451TIP3   OH255767   3.102   2.267   6.355 -0.2471 -0.3644 -0.2769
11451TIP3    H155768   3.163   2.199   6.327  0.4030  0.1187 -0.0502
11451TIP3    H255769   3.123   2.282   6.447  1.7396  2.2983 -1.0582
11452TIP3   OH255770   5.359   5.189  14.043  0.8592 -0.3404  0.2700
11452TIP3    H155771   5.419   5.115  14.033  0.8221 -0.5534  1.5287
11452TIP3    H255772   5.273   5.149  14.054  0.8623 -0.1311  1.1232
11453TIP3   OH255773   2.842   0.921  14.365 -0.0473  0.1964 -0.5905
11453TIP3    H155774   2.925   0.874  14.354  0.4251  0.5598  1.0959
11453TIP3    H255775   2.790   0.897  14.289  1.9323  0.6726 -2.1715
11454TIP3   OH255776   5.254   2.318   5.637 -0.5412 -0.0866  0.2127
11454TIP3    H155777   5.250   2.308   5.732 -0.2381  2.8311  0.6174
11454TIP3    H255778   5.168   2.289   5.606 -0.9170 -0.3365  1.4585
11455TIP3   OH255779   2.359   2.598  13.241  0.3966  0.1069  0.1871
11455TIP3    H155780   2.367   2.685  13.281 -0.1473 -0.0921  0.7371
11455TIP3    H255781   2.418   2.601  13.165  0.6462  0.8361  0.4047
11456TIP3   OH255782   0.417   6.209  12.297 -0.0926 -0.2859  0.1305
11456TIP3    H155783   0.351   6.222  12.365 -0.3217  0.0879 -0.1617
11456TIP3    H255784   0.423   6.294  12.253  2.4268  0.4948  1.7842
11457TIP3   OH255785   4.028   0.726  16.464 -0.2022  0.2181 -0.3072
11457TIP3    H155786   3.981   0.706  16.545 -1.3193  0.0709 -0.9644
11457TIP3    H255787   4.109   0.769  16.493  0.4747 -1.7886  0.9652
11458TIP3   OH255788   2.979   3.601  15.611 -0.2568 -0.7014 -0.2341
11458TIP3    H155789   3.007   3.530  15.668 -1.2234 -1.7849 -1.0649
11458TIP3    H255790   3.018   3.680  15.649  1.2640 -1.7305  0.4054
11459TIP3   OH255791   1.192   2.082  16.303 -0.0953 -0.2254  0.2317
11459TIP3    H155792   1.246   2.136  16.361 -1.0157 -1.5099  2.4151
11459TIP3    H255793   1.106   2.081  16.344 -1.0022 -0.6565 -1.5608
11460TIP3   OH255794   2.605   1.833  16.333  0.6820  0.2655 -0.0757
11460TIP3    H155795   2.666   1.763  16.307 -0.2519 -0.8826  0.7058
11460TIP3    H255796   2.518   1.794  16.322 -0.0469  2.3268 -2.4646
11461TIP3   OH255797   4.585   1.951  12.516 -0.4711 -0.2102 -0.0988
11461TIP3    H155798   4.644   1.919  12.584 -1.7728  3.0092  2.8472
11461TIP3    H255799   4.621   2.036  12.491 -2.7733  0.9890  0.4198
11462TIP3   OH255800   5.930   6.155   4.613 -0.0565 -0.1226 -0.0023
11462TIP3    H155801   5.967   6.102   4.543  0.2083  1.5393 -1.1716
11462TIP3    H255802   5.995   6.224   4.628 -0.8550  0.4893  0.7459
11463TIP3   OH255803   6.689   4.702   1.191  0.3317 -0.3549  0.4007
11463TIP3    H155804   6.693   4.696   1.095 -0.4086  0.7703  0.2755
11463TIP3    H255805   6.598   4.681   1.213  0.1240  0.7949  0.7101
11464TIP3   OH255806   6.069   5.060  12.139  0.8406  0.0408 -0.0525
11464TIP3    H155807   6.028   5.146  12.137  1.2800  0.2868  0.8479
11464TIP3    H255808   6.163   5.078  12.140  0.9386 -0.4542 -0.1232
11465TIP3   OH255809   1.954   0.723  13.022  0.2914  0.2577  0.1697
11465TIP3    H155810   2.005   0.790  13.067 -2.2740  1.9145  0.7548
11465TIP3    H255811   1.926   0.664  13.091  1.3595 -0.6994 -0.1660
11466TIP3   OH255812   0.733   3.624  12.170  0.0747  0.2807 -0.7750
11466TIP3    H155813   0.800   3.671  12.121  0.8378 -0.5501 -0.5591
11466TIP3    H255814   0.777   3.544  12.201 -0.7231  0.2066  0.2349
11467TIP3   OH255815   6.367   6.332  15.140 -0.3166 -0.3727  0.3220
11467TIP3    H155816   6.417   6.413  15.140 -0.0746 -0.5178  0.7174
11467TIP3    H255817   6.320   6.332  15.057 -1.6171  0.9551  1.0319
11468TIP3   OH255818   1.772   1.251  13.934 -0.2737  0.1446  0.2748
11468TIP3    H155819   1.678   1.236  13.923 -0.4623  0.8539  0.7655
11468TIP3    H255820   1.805   1.171  13.975 -1.2293  0.9280  2.8235
11469TIP3   OH255821   2.780   0.716   6.053 -0.4191  0.3036  0.2631
11469TIP3    H155822   2.744   0.804   6.062  0.2536  0.4325  2.1066
11469TIP3    H255823   2.772   0.677   6.140  3.4525  0.2288  0.7909
11470TIP3   OH255824   2.545   3.721  15.392  0.5039  0.7970 -0.1457
11470TIP3    H155825   2.470   3.773  15.363  0.4828  0.0756 -1.4921
11470TIP3    H255826   2.620   3.760  15.347  0.7910  0.8800  0.3927
11471TIP3   OH255827   4.481   1.589   1.021 -0.3032 -0.4768 -0.4738
11471TIP3    H155828   4.442   1.675   1.003 -0.4893 -0.9843 -2.8747
11471TIP3    H255829   4.558   1.608   1.075 -2.3262  0.7963  2.1946
11472TIP3   OH255830   0.379   3.288   4.658 -0.0347  0.5255 -0.3966
11472TIP3    H155831   0.399   3.377   4.629  2.3068 -0.2846 -1.4477
11472TIP3    H255832   0.344   3.244   4.581  1.0873 -0.1023 -0.5760
11473TIP3   OH255833   3.050   2.642  12.633 -0.4994 -0.3016 -0.1648
11473TIP3    H155834   2.959   2.643  12.604 -0.0629 -0.9144 -1.6645
11473TIP3    H255835   3.061   2.557  12.675 -0.7959  0.0808  0.7235
11474TIP3   OH255836   4.962   5.489  11.873  0.2956 -0.3404 -0.5067
11474TIP3    H155837   4.924   5.575  11.857  2.0863  0.1276 -2.5998
11474TIP3    H255838   4.918   5.431  11.810 -1.4003 -1.2105  1.3432
11475TIP3   OH255839   1.172   1.514   5.695  0.2613  0.6701 -0.4887
11475TIP3    H155840   1.176   1.509   5.791  0.9595 -3.2245 -0.5413
11475TIP3    H255841   1.248   1.568   5.671  1.2510  0.0742  1.1250
11476TIP3   OH255842   4.785   2.745  17.218 -0.0102 -0.0220  0.2253
11476TIP3    H155843   4.716   2.800  17.182 -0.1319  0.7338  1.5335
11476TIP3    H255844   4.761   2.656  17.192 -0.3979  0.4152 -0.9918
11477TIP3   OH255845   6.218   3.857   5.211  0.4371 -0.3900 -0.1653
11477TIP3    H155846   6.275   3.933   5.221 -0.8276  0.7100 -1.0618
11477TIP3    H255847   6.242   3.819   5.127  1.0679 -1.0077  0.2814
11478TIP3   OH255848   5.568   0.247  16.165  0.4711  0.0385 -0.0913
11478TIP3    H155849   5.585   0.324  16.219  0.6909 -0.6249  0.7994
11478TIP3    H255850   5.574   0.173  16.225  0.5382 -0.7028 -0.9878
11479TIP3   OH255851   4.829   1.162   4.939 -0.5830 -0.3373 -0.2450
11479TIP3    H155852   4.819   1.115   5.021  0.4063  0.3578  0.3064
11479TIP3    H255853   4.919   1.144   4.911 -0.7370 -0.1449 -0.9022
11480TIP3   OH255854   6.098   0.555  17.312 -0.2213  0.0261  0.2450
11480TIP3    H155855   6.123   0.463  17.321  0.0337  0.1166  0.4579
11480TIP3    H255856   6.047   0.558  17.231 -1.7225 -0.6205  1.1249
11481TIP3   OH255857   0.724   5.146  11.796 -0.2894 -0.4226  0.5454
11481TIP3    H155858   0.664   5.156  11.869 -1.6605 -0.3304 -0.5675
11481TIP3    H255859   0.760   5.058  11.807 -0.6262 -0.4820  1.2145
11482TIP3   OH255860   0.804   4.279   0.771  0.6055  0.6503 -0.3158
11482TIP3    H155861   0.794   4.358   0.718 -1.1334 -0.2029 -1.3513
11482TIP3    H255862   0.735   4.220   0.739  1.8283 -1.2774  0.4472
11483TIP3   OH255863   4.690   2.593   5.792  0.5015  0.9263  0.3581
11483TIP3    H155864   4.653   2.667   5.744  0.4284 -0.3827 -1.7439
11483TIP3    H255865   4.768   2.629   5.835 -0.6161  2.6400  1.0695
11484TIP3   OH255866   0.327   2.625   2.168  0.3547 -0.2744 -0.0725
11484TIP3    H155867   0.292   2.691   2.228  2.0583  0.4062  0.2091
11484TIP3    H255868   0.249   2.577   2.138 -0.7790  0.9575  0.7719
11485TIP3   OH255869   0.179   5.868   5.437  0.0560  0.5363  0.7505
11485TIP3    H155870   0.102   5.919   5.461  1.2233  2.3723  0.8260
11485TIP3    H255871   0.252   5.914   5.480  1.6658  1.1552 -2.3566
11486TIP3   OH255872   3.579   1.671  12.149  0.0066  0.7792  0.5883
11486TIP3    H155873   3.557   1.585  12.185 -0.8374  0.1566 -1.2646
11486TIP3    H255874   3.497   1.701  12.108  1.1361  0.8745 -1.7701
11487TIP3   OH255875   4.333   3.902  12.728  0.8058  0.8122  0.2076
11487TIP3    H155876   4.298   3.990  12.745  0.7616  0.7549  0.4134
11487TIP3    H255877   4.425   3.908  12.752  0.4288  0.3270  1.9347
11488TIP3   OH255878   0.769   1.281  16.565  0.0492  0.4096 -0.2763
11488TIP3    H155879   0.755   1.336  16.488  0.8424  0.2612 -0.5333
11488TIP3    H255880   0.682   1.271  16.604 -0.5308 -0.3027 -1.6907
11489TIP3   OH255881   1.989   3.387   4.375  0.2812 -0.0866  0.0012
11489TIP3    H155882   1.942   3.305   4.391  0.9222 -0.7545 -1.3688
11489TIP3    H255883   1.936   3.433   4.311  0.3823  0.1534  0.0899
11490TIP3   OH255884   6.267   4.520  14.523 -0.6945  0.0651 -0.0110
11490TIP3    H155885   6.283   4.593  14.463  2.3092 -0.9224 -0.5879
11490TIP3    H255886   6.230   4.451  14.467  0.3466 -0.2109 -0.3890
11491TIP3   OH255887   1.591   6.564   6.406  0.5231  0.1310 -0.4486
11491TIP3    H155888   1.589   6.608   6.491 -0.0737  2.5047 -1.6139
11491TIP3    H255889   1.601   6.471   6.427  0.9564  0.7099  2.1754
11492TIP3   OH255890   6.623   6.562   2.203  0.6761 -0.7077 -0.0637
11492TIP3    H155891   6.535   6.563   2.164  0.1793  0.8433  0.9779
11492TIP3    H255892   6.630   6.476   2.245 -0.2845 -0.9064 -0.2853
11493TIP3   OH255893   0.163   3.967   2.592 -0.0394 -0.6278  0.1233
11493TIP3    H155894   0.091   3.925   2.544 -0.5279 -0.8105  0.9853
11493TIP3    H255895   0.223   3.997   2.524 -0.0132 -2.1128 -0.5469
11494TIP3   OH255896   4.701   6.059  13.933 -0.3476 -0.3522 -0.1997
11494TIP3    H155897   4.761   6.043  13.859  0.3103 -0.8827  0.4357
11494TIP3    H255898   4.642   5.984  13.932 -1.0078  0.1630 -0.8163
11495TIP3   OH255899   1.991   2.380   1.301  0.4297 -0.0357 -0.9148
11495TIP3    H155900   1.929   2.359   1.371  0.1151 -0.2784 -1.2604
11495TIP3    H255901   2.071   2.404   1.346  0.1743 -0.0112 -0.4655
11496TIP3   OH255902   1.763   0.850   2.062  0.4077  0.0367  0.5333
11496TIP3    H155903   1.765   0.760   2.095  0.2910 -0.1937 -0.0652
11496TIP3    H255904   1.808   0.845   1.978 -0.2316  0.3959  0.1648
11497TIP3   OH255905   6.329   3.481  16.332 -0.5238  0.5998 -0.1069
11497TIP3    H155906   6.258   3.425  16.365 -0.3347  0.7543  0.5758
11497TIP3    H255907   6.401   3.421  16.315 -1.4594  0.1086 -2.8512
11498TIP3   OH255908   1.736   3.280  12.938  0.5439 -0.1841  0.1504
11498TIP3    H155909   1.824   3.244  12.925  1.2789  1.6349 -0.1424
11498TIP3    H255910   1.731   3.299  13.031  0.7544  0.4623  0.0277
11499TIP3   OH255911   1.793   5.388  15.578 -0.0465 -0.3906  0.2092
11499TIP3    H155912   1.816   5.362  15.489 -1.6046 -0.9614 -0.0538
11499TIP3    H255913   1.831   5.320  15.633  1.2079  0.1416  0.0246
11500TIP3   OH255914   3.300   6.571   3.808 -0.2064 -0.4399  0.2849
11500TIP3    H155915   3.337   6.593   3.723 -1.0845  0.9094  0.2204
11500TIP3    H255916   3.211   6.540   3.787 -1.1375  1.7275  0.8015
11501TIP3   OH255917   1.388   5.179  17.123  0.5629  0.4117 -0.0097
11501TIP3    H155918   1.424   5.226  17.198  1.2622 -1.0605  0.6180
11501TIP3    H255919   1.432   5.094  17.125  2.0211  0.9659 -3.1812
11502TIP3   OH255920   1.750   5.134   3.620 -0.2916  0.3102 -0.0989
11502TIP3    H155921   1.791   5.214   3.652 -0.4174 -0.0864  1.1413
11502TIP3    H255922   1.747   5.077   3.697  0.3557 -1.1265 -1.0995
11503TIP3   OH255923   1.075   5.400   4.203 -0.6785 -0.0378 -0.1112
11503TIP3    H155924   1.157   5.440   4.231 -1.8449  2.4964 -0.0709
11503TIP3    H255925   1.096   5.307   4.195  1.6476  0.2134  1.8519
11504TIP3   OH255926   5.107   1.456   1.528  0.3733  0.4705  0.1964
11504TIP3    H155927   5.164   1.418   1.462 -0.3720 -2.4228  1.0593
11504TIP3    H255928   5.142   1.424   1.611 -1.5767 -0.1853  0.8317
11505TIP3   OH255929   4.203   0.615  15.922  0.1363  0.2177  0.0782
11505TIP3    H155930   4.209   0.710  15.914 -1.1366  0.3008 -0.1102
11505TIP3    H255931   4.264   0.582  15.856 -2.6083  0.9487 -3.1016
11506TIP3   OH255932   1.061   6.031   1.874 -0.3757  0.2309 -0.0846
11506TIP3    H155933   1.049   6.066   1.786 -0.1752 -0.5933 -0.4527
11506TIP3    H255934   1.155   6.041   1.891 -0.4760  0.7237  0.1826
11507TIP3   OH255935   3.895   2.064  10.969 -0.4050 -0.0439 -0.3986
11507TIP3    H155936   3.871   2.126  10.900 -2.7908 -1.3722 -0.8766
11507TIP3    H255937   3.921   1.985  10.922 -0.5344 -0.4631  0.2250
11508TIP3   OH255938   3.546   1.139   0.218 -0.0653  0.6205  0.6551
11508TIP3    H155939   3.454   1.128   0.240 -0.4501  2.5318  0.1752
11508TIP3    H255940   3.545   1.166   0.126  1.0216 -0.0006  0.4456
11509TIP3   OH255941   4.029   2.584   5.551 -0.0731  0.2911 -0.1747
11509TIP3    H155942   3.967   2.595   5.623 -1.3787 -1.8168 -0.8811
11509TIP3    H255943   3.975   2.555   5.478  1.6437 -0.7007 -1.0945
11510TIP3   OH255944   0.746   1.100   5.101 -0.4531 -0.1867  0.3928
11510TIP3    H155945   0.830   1.054   5.099  0.6911  1.7119  1.6855
11510TIP3    H255946   0.708   1.085   5.015  0.4429 -2.4129  0.3166
11511TIP3   OH255947   6.094   6.625   4.115 -0.0116  0.3533  0.4653
11511TIP3    H155948   6.173   6.617   4.060 -0.2177  0.5921  0.1313
11511TIP3    H255949   6.112   6.699   4.173  0.1582  0.1771  0.6382
11512TIP3   OH255950   2.653   3.807  17.164  0.1912  0.2172  0.5794
11512TIP3    H155951   2.593   3.821  17.091  0.5373  1.0977  0.4490
11512TIP3    H255952   2.736   3.844  17.134  0.3590  0.5099  1.3749
11513TIP3   OH255953   1.298   5.096  15.019  0.0007  0.2422  0.4441
11513TIP3    H155954   1.322   5.188  15.021  1.9862 -0.2327  1.7688
11513TIP3    H255955   1.242   5.083  15.095  0.1021  0.2819  0.5267
11514TIP3   OH255956   4.499   3.959   5.321 -0.4320 -0.6247  0.0378
11514TIP3    H155957   4.466   3.875   5.288 -0.7975  0.2783 -2.0233
11514TIP3    H255958   4.552   3.994   5.249  0.3240  0.5855  1.1457
11515TIP3   OH255959   0.224   1.905   3.295  0.3258  0.2300  0.1409
11515TIP3    H155960   0.225   1.863   3.209  1.1581  0.2625  0.1277
11515TIP3    H255961   0.225   1.833   3.358  2.5879  0.1695  0.1273
11516TIP3   OH255962   3.475   2.643   3.679  0.2906 -0.5064  0.7689
11516TIP3    H155963   3.445   2.564   3.635 -1.1504  0.7545 -0.6482
11516TIP3    H255964   3.483   2.708   3.609  1.0585  0.7143  1.9329
11517TIP3   OH255965   1.432   1.511   0.100  0.0878  0.2333  0.2749
11517TIP3    H155966   1.519   1.544   0.078 -0.6130  0.3950 -2.5549
11517TIP3    H255967   1.379   1.590   0.110  0.1343  0.1211  1.6260
11518TIP3   OH255968   6.183   2.896  16.694  0.6537  0.6403 -0.0711
11518TIP3    H155969   6.090   2.921  16.700  0.2485 -0.8729  0.5559
11518TIP3    H255970   6.191   2.821  16.753  2.4747  1.2187  0.4824
11519TIP3   OH255971   2.016   0.484  13.384 -0.2820  0.4111  0.4209
11519TIP3    H155972   2.014   0.567  13.431 -1.7150  1.3174 -1.1334
11519TIP3    H255973   2.071   0.427  13.438 -2.3007  1.1558  3.5182
11520TIP3   OH255974   5.069   4.987  14.879  0.4781 -0.1863  0.0603
11520TIP3    H155975   5.064   4.900  14.839 -2.0541  0.9478 -2.4943
11520TIP3    H255976   5.160   4.996  14.905  2.1996 -1.6554 -4.4608
11521TIP3   OH255977   0.240   1.788   3.643 -0.2852  0.3136  0.5471
11521TIP3    H155978   0.265   1.866   3.692  0.2872 -0.5921  1.7662
11521TIP3    H255979   0.306   1.722   3.668 -1.2652 -0.8074  0.2595
11522TIP3   OH255980   2.957   2.644   4.076 -0.3771 -0.2671 -0.2255
11522TIP3    H155981   2.921   2.556   4.063 -1.2953  0.1022 -0.3017
11522TIP3    H255982   2.887   2.692   4.121  0.5906  0.0709  0.9784
11523TIP3   OH255983   2.103   4.222  15.080  0.2509  0.0283  0.3828
11523TIP3    H155984   2.065   4.277  15.148  0.4856 -0.8645  1.2525
11523TIP3    H255985   2.195   4.246  15.078 -0.0523  1.1966 -0.7578
11524TIP3   OH255986   6.093   3.500  16.549 -0.1484  0.6352  0.2380
11524TIP3    H155987   6.094   3.408  16.573 -1.1735  0.7349  0.7362
11524TIP3    H255988   6.150   3.542  16.614 -1.9986  0.7388  1.8911
11525TIP3   OH255989   0.924   5.449   2.935 -0.1189  0.2065  0.4304
11525TIP3    H155990   0.871   5.430   3.013 -0.5444  0.6571  0.2566
11525TIP3    H255991   0.960   5.537   2.951  0.9749 -0.2854  0.7593
11526TIP3   OH255992   3.867   3.217   0.848 -0.3063 -0.2018  0.7766
11526TIP3    H155993   3.866   3.270   0.928 -0.7034  0.5053  0.3137
11526TIP3    H255994   3.791   3.247   0.798 -0.1933 -0.7959  0.2303
11527TIP3   OH255995   6.132   2.058  15.702 -0.2537  0.4243  0.1745
11527TIP3    H155996   6.136   2.144  15.744 -0.1039  2.1605 -3.0660
11527TIP3    H255997   6.040   2.034  15.705 -0.1160  0.0434  2.2339
11528TIP3   OH255998   1.857   4.772   0.934  0.2544  0.5626 -0.7247
11528TIP3    H155999   1.884   4.863   0.947  0.3392  0.3675  0.6795
11528TIP3    H256000   1.904   4.724   1.002 -1.2459 -0.2373 -0.1992
11529TIP3   OH256001   4.470   3.512  15.435  0.2518 -0.0891 -0.0345
11529TIP3    H156002   4.455   3.585  15.495 -0.3090  0.9358 -1.3685
11529TIP3    H256003   4.426   3.437  15.476 -0.4850  0.6868  0.6282
11530TIP3   OH256004   5.790   4.914   2.979 -0.1529  0.3377 -0.8268
11530TIP3    H156005   5.815   4.835   3.028 -0.0486  0.5940 -0.4562
11530TIP3    H256006   5.839   4.984   3.021  1.5900  0.2865 -2.6466
11531TIP3   OH256007   6.691   2.601  13.087 -0.0478  0.2280  0.6391
11531TIP3    H156008   6.764   2.552  13.124  0.3613 -0.0381 -0.4961
11531TIP3    H256009   6.690   2.578  12.994 -2.1916 -0.5419  0.8049
11532TIP3   OH256010   3.246   6.299  10.906 -0.3644  0.7514  0.8633
11532TIP3    H156011   3.218   6.234  10.971 -0.1834  0.3160  0.5126
11532TIP3    H256012   3.175   6.299  10.841 -0.0978  0.4849  0.5689
11533TIP3   OH256013   0.494   3.793  16.590 -0.0439 -0.2413  0.1472
11533TIP3    H156014   0.511   3.840  16.508 -0.1040 -1.1041 -0.3640
11533TIP3    H256015   0.444   3.716  16.564 -1.4810  0.3040  1.1872
11534TIP3   OH256016   6.702   3.620  15.602  0.0394  0.0486 -0.3431
11534TIP3    H156017   6.708   3.710  15.570 -2.7364  0.2894 -0.3490
11534TIP3    H256018   6.749   3.622  15.686 -1.1904  1.9037  0.3662
11535TIP3   OH256019   4.793   1.143  15.385  0.0911 -0.6315  0.3504
11535TIP3    H156020   4.866   1.179  15.435 -0.3134 -2.2617  2.2331
11535TIP3    H256021   4.762   1.217  15.332  1.6885  0.6906  1.1671
11536TIP3   OH256022   6.530   4.015  14.911  0.4148  0.1270 -0.5396
11536TIP3    H156023   6.473   4.069  14.967  0.7534  0.7301 -0.7723
11536TIP3    H256024   6.602   3.989  14.968  0.4544  0.2527 -0.5312
11537TIP3   OH256025   5.134   2.943   2.300 -0.1002 -0.6190  0.7373
11537TIP3    H156026   5.045   2.906   2.301 -0.0078 -0.8619  0.1643
11537TIP3    H256027   5.183   2.887   2.360  0.2743 -2.0643 -0.8290
11538TIP3   OH256028   2.227   2.274   4.080 -0.6912 -0.2064  0.2738
11538TIP3    H156029   2.277   2.215   4.136 -0.0704 -0.3488 -0.4210
11538TIP3    H256030   2.280   2.284   4.001 -0.8120  1.2360  0.3531
11539TIP3   OH256031   6.072   0.577   5.381  0.2929 -0.3171  0.3980
11539TIP3    H156032   6.102   0.508   5.321  1.6119  0.0776  0.5765
11539TIP3    H256033   6.112   0.555   5.465 -1.0681 -0.5354  1.0211
11540TIP3   OH256034   0.612   3.562   4.366 -0.4310  0.0152 -0.7863
11540TIP3    H156035   0.659   3.549   4.284 -0.4763  0.6284 -0.9159
11540TIP3    H256036   0.530   3.513   4.355  0.2009 -1.1267 -0.5217
11541TIP3   OH256037   4.313   3.463   3.349 -0.0917  0.1001 -0.0380
11541TIP3    H156038   4.319   3.387   3.408  0.8586 -0.0082 -0.2509
11541TIP3    H256039   4.310   3.425   3.261 -2.5910  0.2221 -0.0523
11542TIP3   OH256040   0.115   1.680   3.413 -0.3581  0.8409  0.5293
11542TIP3    H156041   0.143   1.717   3.497 -0.6542  0.3576  0.8473
11542TIP3    H256042   0.023   1.656   3.427 -0.2946  0.3931  0.1926
11543TIP3   OH256043   2.279   0.399   0.546  0.2731  0.3435 -0.0455
11543TIP3    H156044   2.187   0.426   0.555  0.5792  0.8938  1.9997
11543TIP3    H256045   2.296   0.404   0.452 -1.4058  1.5495 -0.3479
11544TIP3   OH256046   3.710   6.333   2.189 -0.4053 -0.0826 -1.0408
11544TIP3    H156047   3.713   6.429   2.192  0.8123 -0.1168  1.2880
11544TIP3    H256048   3.792   6.305   2.229 -0.1751 -2.1564 -2.7556
11545TIP3   OH256049   6.523   6.190   2.716  0.3142 -0.3026 -0.1508
11545TIP3    H156050   6.516   6.095   2.703  2.1787 -0.4916 -0.0106
11545TIP3    H256051   6.433   6.221   2.712 -0.2311 -1.9059 -1.5419
11546TIP3   OH256052   0.189   0.581   4.469 -0.1434  0.2765  0.1906
11546TIP3    H156053   0.269   0.532   4.451  0.6401  1.3342  0.6279
11546TIP3    H256054   0.185   0.647   4.399 -1.5220 -0.7691 -0.7685
11547TIP3   OH256055   5.269   0.415   0.831  0.1990  0.0318 -0.4565
11547TIP3    H156056   5.297   0.339   0.883 -0.9474 -0.2751 -0.2638
11547TIP3    H256057   5.274   0.386   0.740 -4.1483 -1.8336 -0.3630
11548TIP3   OH256058   2.475   2.099  17.336  0.6975  0.3780  0.3168
11548TIP3    H156059   2.481   2.165  17.267  1.8898  0.9505  0.9230
11548TIP3    H256060   2.412   2.135  17.398  1.6236  1.1570  0.8334
11549TIP3   OH256061   5.514   5.233   5.988 -0.7513  0.1217  0.1655
11549TIP3    H156062   5.587   5.173   6.001 -1.6221 -1.0987 -0.3747
11549TIP3    H256063   5.439   5.189   6.028 -1.5282  0.5787 -0.7241
11550TIP3   OH256064   4.297   4.830  15.318  0.3521  0.6012 -0.3213
11550TIP3    H156065   4.251   4.747  15.329 -0.0221  0.7471 -0.7489
11550TIP3    H256066   4.388   4.806  15.300  0.5978  0.3219  1.1766
11551TIP3   OH256067   5.866   0.444  13.248  0.0036  0.0400  0.3196
11551TIP3    H156068   5.939   0.388  13.223 -1.8667 -2.5754  0.3506
11551TIP3    H256069   5.869   0.447  13.344  0.3905  0.4052  0.2967
11552TIP3   OH256070   5.959   3.767  16.751 -0.1783 -0.9554 -0.0258
11552TIP3    H156071   5.971   3.746  16.658  1.8861 -1.4223  0.3119
11552TIP3    H256072   6.047   3.780  16.785 -0.8775 -1.0009  1.9373
11553TIP3   OH256073   0.764   0.936  10.961  0.3521 -0.1914  0.3403
11553TIP3    H156074   0.857   0.953  10.973  0.0865  0.0553  2.4110
11553TIP3    H256075   0.756   0.841  10.959  0.6812 -0.2108 -0.3106
11554TIP3   OH256076   4.709   5.954   4.179  0.2044  0.3454 -0.2220
11554TIP3    H156077   4.758   6.024   4.223  0.6135 -0.3545  0.4655
11554TIP3    H256078   4.633   5.940   4.235  0.1328  0.2323 -0.3465
11555TIP3   OH256079   0.179   5.132  13.206  0.0540 -0.1076 -0.6307
11555TIP3    H156080   0.118   5.204  13.193  0.2214 -0.2105 -2.1273
11555TIP3    H256081   0.257   5.173  13.244 -0.2171  0.3304 -0.5384
11556TIP3   OH256082   3.981   3.174   1.904 -0.1112 -0.0266  0.5162
11556TIP3    H156083   4.064   3.162   1.857 -0.1720  0.8936  0.1712
11556TIP3    H256084   3.954   3.085   1.926 -0.3467 -0.5480 -1.6431
11557TIP3   OH256085   4.340   3.976  15.206  0.1935  0.4070 -0.5906
11557TIP3    H156086   4.413   3.931  15.163  1.1021 -0.2782  1.4959
11557TIP3    H256087   4.263   3.950  15.157  0.7080 -3.3399  0.2825
11558TIP3   OH256088   2.990   4.470   6.730  0.2296 -0.2154  0.1652
11558TIP3    H156089   3.016   4.552   6.687  0.2853 -0.5076 -0.3616
11558TIP3    H256090   3.059   4.408   6.706  1.5954  0.2102  2.6530
11559TIP3   OH256091   0.165   2.976   2.302 -0.0150 -0.0985  0.2355
11559TIP3    H156092   0.198   3.056   2.343  0.4902  0.0050 -0.3593
11559TIP3    H256093   0.070   2.988   2.301 -0.1253 -0.4915  2.1530
11560TIP3   OH256094   4.053   4.582   5.112  0.1106 -0.0208 -0.1729
11560TIP3    H156095   4.081   4.610   5.025  2.0021 -1.0340  0.0594
11560TIP3    H256096   4.012   4.660   5.150  1.3891  1.1447 -1.0964
11561TIP3   OH256097   4.159   3.277   3.913  0.0930  0.5241  0.8208
11561TIP3    H156098   4.233   3.305   3.968 -0.6590  2.8038  0.7887
11561TIP3    H256099   4.200   3.242   3.834  1.2085  2.7089  0.3458
11562TIP3   OH256100   1.901   2.506   3.250  0.1085 -0.0830  0.3975
11562TIP3    H156101   1.991   2.495   3.218 -0.0073  2.2407 -0.9033
11562TIP3    H256102   1.910   2.506   3.345  1.4607 -0.0639  0.2957
11563TIP3   OH256103   0.031   0.212   2.403 -0.0091  0.3142  0.4370
11563TIP3    H156104   0.056   0.124   2.431 -1.1614  0.2287  1.3029
11563TIP3    H256105   0.039   0.266   2.482  1.2841  1.1394 -0.2255
11564TIP3   OH256106   3.006   6.104   2.331 -0.1785 -0.0052  0.5745
11564TIP3    H156107   3.068   6.111   2.259  0.0967  1.1052  0.9021
11564TIP3    H256108   3.058   6.076   2.406 -0.1115  0.6519  0.7810
11565TIP3   OH256109   0.572   4.459   0.955  0.7164 -0.6986  0.2583
11565TIP3    H156110   0.546   4.537   1.003 -0.8221 -1.1513  0.2121
11565TIP3    H256111   0.650   4.428   1.000  0.5171  0.0568  1.1603
11566TIP3   OH256112   1.259   3.542  12.706 -0.0577  0.7127  0.0343
11566TIP3    H156113   1.291   3.548  12.616  0.9363 -1.9141  0.1440
11566TIP3    H256114   1.338   3.531  12.759 -0.7301  0.6557  1.0516
11567TIP3   OH256115   1.482   3.530   5.474 -0.4550 -0.5163 -0.3517
11567TIP3    H156116   1.516   3.442   5.461  3.6981  0.4961  1.9134
11567TIP3    H256117   1.425   3.524   5.550  0.5968 -1.1613  0.4145
11568TIP3   OH256118   2.797   2.054  15.316 -0.5345  0.3650 -0.4330
11568TIP3    H156119   2.818   2.148  15.316 -0.5715  0.4683  2.8089
11568TIP3    H256120   2.727   2.045  15.380  1.1350 -2.1565  1.2105
11569TIP3   OH256121   5.736   2.538   1.160 -0.1875 -0.1161  0.1399
11569TIP3    H156122   5.696   2.561   1.244  0.7957  0.0850  0.5592
11569TIP3    H256123   5.813   2.594   1.154 -0.1652 -0.2459 -0.8279
11570TIP3   OH256124   5.562   3.515   4.167 -0.1540  0.5695 -0.4061
11570TIP3    H156125   5.641   3.503   4.221 -0.5455  1.1132  0.3011
11570TIP3    H256126   5.515   3.587   4.208  0.1182  1.8222 -2.1914
11571TIP3   OH256127   1.258   3.920  15.223  0.0067 -0.2265 -0.3642
11571TIP3    H156128   1.240   3.826  15.218 -0.2489 -0.2555  0.8374
11571TIP3    H256129   1.349   3.926  15.253  0.7357 -0.0695 -2.4568
11572TIP3   OH256130   4.079   4.848  15.666  0.3356  0.9552 -0.2238
11572TIP3    H156131   4.019   4.864  15.738  2.4293  0.9523  1.6350
11572TIP3    H256132   4.085   4.931  15.620 -2.1929  0.5601 -1.4318
11573TIP3   OH256133   3.803   1.697   6.342 -0.0288 -0.6265  0.4718
11573TIP3    H156134   3.767   1.786   6.351  2.2012  0.6783 -2.1424
11573TIP3    H256135   3.835   1.693   6.252  1.4622 -3.5405  1.0188
11574TIP3   OH256136   0.015   6.300  10.636 -0.7278 -0.1680 -0.5894
11574TIP3    H156137   0.052   6.342  10.714  0.8035  0.7879 -1.7534
11574TIP3    H256138  -0.079   6.312  10.644 -0.5590  0.3960  0.8411
11575TIP3   OH256139   3.960   4.418   1.588 -0.7438 -0.0653  0.0861
11575TIP3    H156140   3.938   4.496   1.640 -1.3135 -0.5847  0.6507
11575TIP3    H256141   3.893   4.354   1.613 -0.4134 -0.6618 -0.5398
11576TIP3   OH256142   2.526   2.487   5.268 -0.0671 -0.1152 -0.0905
11576TIP3    H156143   2.481   2.405   5.288  0.2312  0.0344  1.2856
11576TIP3    H256144   2.568   2.471   5.184 -0.4777 -1.1814 -0.1086
11577TIP3   OH256145   4.426   6.089   1.186  0.3149 -0.1084  0.0631
11577TIP3    H156146   4.336   6.089   1.152 -0.5494 -0.2893  2.1486
11577TIP3    H256147   4.428   6.014   1.246  1.5968  0.4007  0.6906
11578TIP3   OH256148   4.608   1.457   3.652  0.3690  0.3374 -0.3308
11578TIP3    H156149   4.680   1.496   3.701 -0.4743  0.3626  0.9120
11578TIP3    H256150   4.547   1.529   3.636  1.2829  0.6925 -2.7806
11579TIP3   OH256151   3.929   5.964  13.824  0.0107  0.2617 -0.6289
11579TIP3    H156152   3.896   5.981  13.912 -0.2653 -0.9314 -0.4831
11579TIP3    H256153   3.871   5.895  13.790 -0.4406  1.3124 -2.0792
11580TIP3   OH256154   6.623   0.015  13.077  1.1032  0.3247  0.3570
11580TIP3    H156155   6.713   0.045  13.062  0.9378  0.9413  0.5630
11580TIP3    H256156   6.570   0.095  13.074  0.8897  0.3872  2.9062
11581TIP3   OH256157   6.632   4.710   1.544  0.2928  0.4259 -0.7909
11581TIP3    H156158   6.608   4.701   1.636  1.4977  1.7740 -0.3027
11581TIP3    H256159   6.656   4.622   1.516 -0.5854 -0.0855  0.0209
11582TIP3   OH256160   0.538   3.798   2.809  0.0203 -0.2010  0.9372
11582TIP3    H156161   0.631   3.821   2.805 -0.1834  0.3941 -0.6283
11582TIP3    H256162   0.537   3.703   2.797  0.3853 -0.1110  0.1236
11583TIP3   OH256163   6.513   1.022   0.515  0.1309  0.4091  0.3418
11583TIP3    H156164   6.457   0.968   0.459  0.3302 -1.6519  2.0055
11583TIP3    H256165   6.477   1.110   0.506 -0.0608  0.1395 -2.7018
11584TIP3   OH256166   1.930   4.496  14.962 -0.1125 -0.2565 -0.2457
11584TIP3    H156167   1.975   4.536  15.036 -2.9617 -0.1478  1.5465
11584TIP3    H256168   1.842   4.534  14.963 -0.6254 -1.1312 -3.0035
11585TIP3   OH256169   6.448   3.561  11.693  0.0236 -0.0419  0.4058
11585TIP3    H156170   6.365   3.607  11.684  0.2832  0.2517 -0.5594
11585TIP3    H256171   6.444   3.522  11.781 -1.4376 -0.6304  0.1216
11586TIP3   OH256172   1.930   3.316   2.896  0.6340  0.4156 -0.4925
11586TIP3    H156173   1.951   3.349   2.983  0.4617 -1.4105  0.2697
11586TIP3    H256174   1.871   3.382   2.859 -0.2533  0.6161  1.2289
11587TIP3   OH256175   1.365   4.700   6.945 -0.3438 -0.4778  0.1931
11587TIP3    H156176   1.270   4.688   6.947 -0.4209 -0.1498 -0.7884
11587TIP3    H256177   1.377   4.776   6.887  0.3743  1.0307  2.2025
11588TIP3   OH256178   5.813   3.914   0.458 -0.0669  0.9027 -0.5041
11588TIP3    H156179   5.820   3.891   0.365 -0.4775 -1.2405 -0.0586
11588TIP3    H256180   5.903   3.913   0.490  0.0637  1.5119 -0.8479
11589TIP3   OH256181   3.023   2.754   4.690  0.1950 -0.1390 -0.0642
11589TIP3    H156182   2.937   2.741   4.729 -0.4255  3.4791  0.1056
11589TIP3    H256183   3.029   2.686   4.622 -4.4785  1.5577 -2.6407
11590TIP3   OH256184   2.208   3.211  16.592  0.7059 -0.0860 -0.2075
11590TIP3    H156185   2.259   3.291  16.577 -1.9209  1.6037 -0.8923
11590TIP3    H256186   2.117   3.241  16.595 -0.3061 -2.9282  0.8077
11591TIP3   OH256187   0.523   3.399  13.482 -0.5522 -0.0082 -0.7841
11591TIP3    H156188   0.581   3.391  13.406  0.2455 -0.9385 -0.1026
11591TIP3    H256189   0.580   3.426  13.553 -1.4087  1.5409 -0.6192
11592TIP3   OH256190   2.143   5.780  11.320  0.0033  0.1099  0.3441
11592TIP3    H156191   2.061   5.828  11.316 -0.6561 -0.8446  1.8446
11592TIP3    H256192   2.204   5.833  11.268 -1.0231  1.8924  0.8735
11593TIP3   OH256193   0.721   5.637  14.671 -0.4303 -0.0108  0.5064
11593TIP3    H156194   0.749   5.620  14.581 -1.1373 -0.8039  0.4244
11593TIP3    H256195   0.801   5.628  14.723  0.5114  2.8073 -0.2587
11594TIP3   OH256196   2.442   4.183  17.112  0.4111 -0.0865 -0.3938
11594TIP3    H156197   2.420   4.093  17.134  0.1968  0.4208  1.7015
11594TIP3    H256198   2.538   4.183  17.105  0.6086 -0.1428  1.6123
11595TIP3   OH256199   3.036   6.709  12.712 -0.1027 -0.2744 -0.5248
11595TIP3    H156200   3.113   6.653  12.708  2.1008  2.5062  0.0173
11595TIP3    H256201   2.981   6.669  12.779  1.8735 -1.2244  0.6156
11596TIP3   OH256202   4.789   2.047  11.552 -0.0490  0.0197  0.0669
11596TIP3    H156203   4.808   2.141  11.551  0.4091 -0.0636  0.3525
11596TIP3    H256204   4.786   2.021  11.460  2.3352 -0.1587 -0.0139
11597TIP3   OH256205   0.966   4.040   0.792 -0.5319 -0.2926 -0.6630
11597TIP3    H156206   0.946   4.121   0.745 -3.6283 -1.0087 -0.8323
11597TIP3    H256207   0.961   4.064   0.885  0.9857  0.1725 -0.6852
11598TIP3   OH256208   0.254   5.063  14.466  0.5284 -0.5967  0.8088
11598TIP3    H156209   0.236   5.004  14.393  0.4898  0.2650  0.1009
11598TIP3    H256210   0.348   5.078  14.462  0.2234  1.3970 -0.6503
11599TIP3   OH256211   1.880   2.432  13.411 -0.5257  0.5357 -0.2649
11599TIP3    H156212   1.902   2.360  13.351  1.3696 -0.3919  1.4000
11599TIP3    H256213   1.866   2.389  13.495  1.7128  2.1167  1.0350
11600TIP3   OH256214   0.958   5.131  17.440  0.1523  0.2433  0.0276
11600TIP3    H156215   0.957   5.118  17.346 -0.0793  0.9353 -0.0657
11600TIP3    H256216   1.050   5.144  17.462  0.2504 -0.3004 -0.0450
11601TIP3   OH256217   4.413   4.124  14.040 -0.4603 -0.0400  0.1219
11601TIP3    H156218   4.463   4.148  14.118  0.2703  0.2766 -0.4354
11601TIP3    H256219   4.330   4.171  14.050  0.3736  1.5508 -0.2236
11602TIP3   OH256220   0.895   6.187  12.711  0.4835  0.3257 -0.2243
11602TIP3    H156221   0.842   6.133  12.653 -0.5205  0.9971  0.0435
11602TIP3    H256222   0.918   6.129  12.784  0.1214  0.0205 -0.3494
11603TIP3   OH256223   6.105   5.436   2.124 -0.2699  0.1342 -0.5518
11603TIP3    H156224   6.089   5.374   2.196 -0.5817  1.0384  0.1837
11603TIP3    H256225   6.083   5.522   2.161  0.7332  0.7607 -1.3595
11604TIP3   OH256226   3.736   6.428   5.455 -0.4153 -0.4823 -0.1049
11604TIP3    H156227   3.722   6.368   5.381 -0.6960 -0.2879 -0.2103
11604TIP3    H256228   3.768   6.372   5.525 -0.1284 -0.6680 -0.3806
11605TIP3   OH256229   3.854   5.207  13.476  0.4389 -0.1794 -0.0254
11605TIP3    H156230   3.859   5.163  13.560 -0.9984  0.5667  0.4880
11605TIP3    H256231   3.762   5.233  13.468  0.5221 -0.3190 -1.8747
11606TIP3   OH256232   0.840   2.980   3.311  0.2498 -0.5546 -0.6743
11606TIP3    H156233   0.926   3.018   3.295  0.3489  0.1453  1.2337
11606TIP3    H256234   0.781   3.055   3.314  0.0004 -0.7715  0.4562
11607TIP3   OH256235   6.729   3.858   6.537  0.5416  0.3181  0.0038
11607TIP3    H156236   6.638   3.863   6.566  0.2843  0.4719 -0.7946
11607TIP3    H256237   6.780   3.890   6.611 -0.0204 -0.2411  0.6346
11608TIP3   OH256238   6.105   2.960   1.469  0.4561  0.5187 -0.0324
11608TIP3    H156239   6.177   3.020   1.488 -0.2701  1.0204  1.2780
11608TIP3    H256240   6.066   2.942   1.554  0.7294 -1.9572 -0.3498
11609TIP3   OH256241   5.072   3.341   1.129  0.4596 -0.0971 -0.0590
11609TIP3    H156242   4.987   3.363   1.090  0.7128  0.3154 -0.3834
11609TIP3    H256243   5.132   3.408   1.096  0.9991 -0.6136 -0.1369
11610TIP3   OH256244   6.193   5.421  13.260 -0.0620 -0.0080  0.4679
11610TIP3    H156245   6.240   5.492  13.216 -0.4289  0.6021  1.0532
11610TIP3    H256246   6.129   5.391  13.195  1.4925 -1.2644 -0.5751
11611TIP3   OH256247   4.425   2.223  16.909  0.6705  0.2001 -0.6000
11611TIP3    H156248   4.420   2.163  16.835 -0.7452 -1.2876  0.6049
11611TIP3    H256249   4.334   2.234  16.937  1.0571  1.7280  0.1515
11612TIP3   OH256250   1.829   5.068  10.661 -0.4159  0.1504 -0.0276
11612TIP3    H156251   1.781   5.018  10.727 -0.2374  0.6277  0.4733
11612TIP3    H256252   1.889   5.124  10.712 -0.3832  0.6372 -0.5855
11613TIP3   OH256253   0.497   6.186  14.237  0.4462  0.3853 -0.0671
11613TIP3    H156254   0.529   6.262  14.285  1.3678 -0.0070 -0.0437
11613TIP3    H256255   0.565   6.168  14.172 -0.9183  1.1196 -1.7896
11614TIP3   OH256256   1.228   4.936   4.754 -0.4565  0.1382  0.4961
11614TIP3    H156257   1.182   4.891   4.825 -3.5678  1.0437 -0.7435
11614TIP3    H256258   1.239   4.869   4.687  0.6149 -0.2139  1.0001
11615TIP3   OH256259   3.565   0.468   1.570  0.2270 -0.2299 -0.2596
11615TIP3    H156260   3.554   0.551   1.524  0.2533  0.0597  0.2530
11615TIP3    H256261   3.520   0.404   1.516 -0.8459  0.3232 -0.0387
11616TIP3   OH256262   0.423   2.549  13.977 -0.2476 -0.0578 -0.1883
11616TIP3    H156263   0.468   2.587  14.053  0.4267  0.4871 -0.8426
11616TIP3    H256264   0.470   2.584  13.902 -0.5479 -1.0527 -0.8533
11617TIP3   OH256265   5.489   0.324  13.440 -0.3954  0.0622  0.4388
11617TIP3    H156266   5.518   0.371  13.518 -0.0182 -1.6630  1.3985
11617TIP3    H256267   5.507   0.383  13.368  1.3855  0.8101  1.4463
11618TIP3   OH256268   5.667   0.896   4.735 -0.2801 -0.4811 -0.6554
11618TIP3    H156269   5.716   0.911   4.654 -1.0653 -1.1463 -1.2661
11618TIP3    H256270   5.706   0.817   4.772  0.2207 -0.0572 -0.2644
11619TIP3   OH256271   2.991   6.604  14.895  0.2441 -0.1728  0.2872
11619TIP3    H156272   2.983   6.657  14.975  0.3900  0.5805 -0.1852
11619TIP3    H256273   3.022   6.519  14.926 -0.4361 -0.1301  1.1095
11620TIP3   OH256274   1.102   6.089   5.838  0.2836 -0.0897  0.3537
11620TIP3    H156275   1.075   6.152   5.771  2.2889 -0.2183 -0.6382
11620TIP3    H256276   1.058   6.007   5.814 -0.1189  0.2171  0.0290
11621TIP3   OH256277   1.464   2.221   2.157 -0.4671  0.3164  0.3374
11621TIP3    H156278   1.409   2.299   2.161  0.1838  0.7771  0.3098
11621TIP3    H256279   1.401   2.149   2.150 -1.0591  0.9646 -2.0315
11622TIP3   OH256280   0.871   4.649   1.085 -0.2474  0.4157 -0.4298
11622TIP3    H156281   0.795   4.704   1.102 -1.4475 -1.0033 -0.9106
11622TIP3    H256282   0.868   4.584   1.155  0.6659  0.4883 -0.3227
11623TIP3   OH256283   1.211   6.165  11.694 -0.2649 -0.6868  0.1059
11623TIP3    H156284   1.259   6.230  11.642 -2.4890 -0.7403 -2.2285
11623TIP3    H256285   1.272   6.092  11.703  0.5211 -0.3520 -1.8294
11624TIP3   OH256286   2.600   5.167  17.235 -0.1270  0.0043 -0.1542
11624TIP3    H156287   2.687   5.145  17.201  1.7300  1.7122  3.0366
11624TIP3    H256288   2.599   5.262  17.238 -2.0133  0.0091  0.2314
11625TIP3   OH256289   3.151   3.668  12.265  0.4563 -0.0699 -0.2025
11625TIP3    H156290   3.139   3.740  12.203  1.5845  0.2540 -0.0596
11625TIP3    H256291   3.229   3.692  12.315  0.1918 -0.8517  0.6177
11626TIP3   OH256292   4.657   4.861  15.291  0.2708 -0.0498  0.5255
11626TIP3    H156293   4.661   4.957  15.283  0.0280 -0.1361 -0.9011
11626TIP3    H256294   4.642   4.845  15.384  1.7087  1.2555  1.0175
11627TIP3   OH256295   3.803   3.611   3.196  0.4253 -0.0654  0.5544
11627TIP3    H156296   3.714   3.641   3.213  0.6878  0.7212  0.6250
11627TIP3    H256297   3.857   3.663   3.256  0.9011 -0.7367  0.7122
11628TIP3   OH256298   2.312   1.322   3.019  0.0770  0.0743 -0.4516
11628TIP3    H156299   2.236   1.309   2.963 -0.7305 -1.1750  0.8519
11628TIP3    H256300   2.279   1.373   3.093  0.9968  1.2428 -0.8157
11629TIP3   OH256301   2.324   5.697   5.566  0.8373 -0.0787 -0.5192
11629TIP3    H156302   2.395   5.707   5.630  1.2185 -0.1457 -0.9270
11629TIP3    H256303   2.328   5.605   5.541  0.0707 -0.2816  0.0673
11630TIP3   OH256304   2.317   0.793  11.278  0.1134  0.2130 -0.0022
11630TIP3    H156305   2.301   0.787  11.184  1.0835 -1.4143 -0.1105
11630TIP3    H256306   2.397   0.844  11.286  1.5395 -1.8426 -0.2976
11631TIP3   OH256307   1.368   0.739   4.361  0.1272  0.5105 -0.0932
11631TIP3    H156308   1.412   0.715   4.279  0.4249  1.4717 -0.2287
11631TIP3    H256309   1.311   0.665   4.380  1.4618 -0.5635 -0.1535
11632TIP3   OH256310   2.658   4.197   5.385  0.1304 -0.2776  0.4507
11632TIP3    H156311   2.713   4.269   5.353  0.8124 -0.0632  2.0299
11632TIP3    H256312   2.701   4.167   5.465 -0.8506 -1.6055  0.5222
11633TIP3   OH256313   0.936   2.877  15.264 -0.5412 -0.8729 -0.4091
11633TIP3    H156314   1.027   2.872  15.293 -0.3175 -2.2218 -1.2546
11633TIP3    H256315   0.884   2.853  15.340 -0.1428 -0.9088 -0.1492
11634TIP3   OH256316   1.898   5.236   4.001 -0.2674  0.2582  0.1737
11634TIP3    H156317   1.915   5.294   3.927  0.0256  1.6631  1.3035
11634TIP3    H256318   1.828   5.278   4.050 -0.5964 -0.7535  0.6071
11635TIP3   OH256319   5.858   6.452   1.816  0.1057 -0.1656 -0.5590
11635TIP3    H156320   5.950   6.442   1.794  0.2658 -1.7698  0.5976
11635TIP3    H256321   5.855   6.442   1.911 -1.3763 -1.6105 -0.6955
11636TIP3   OH256322   1.116   5.749   3.606  0.0588 -0.5600  0.1939
11636TIP3    H156323   1.119   5.655   3.622  0.2023 -1.1363 -2.6541
11636TIP3    H256324   1.208   5.776   3.605  0.0333 -0.4486  0.6518
11637TIP3   OH256325   5.875   3.405   5.398 -0.3947 -0.4367  0.5027
11637TIP3    H156326   5.880   3.311   5.381 -2.1351 -0.2498 -1.4824
11637TIP3    H256327   5.834   3.411   5.484  0.6535 -1.4637  1.1076
11638TIP3   OH256328   6.413   3.530   1.358 -0.4177 -0.5647 -0.2082
11638TIP3    H156329   6.331   3.524   1.309 -0.6416  0.1321  0.0692
11638TIP3    H256330   6.389   3.570   1.441 -0.2004 -2.5622  0.8831
11639TIP3   OH256331   5.878   0.395  13.539  0.5558  0.1381  0.1766
11639TIP3    H156332   5.941   0.325  13.552  0.6832  0.1486 -0.3534
11639TIP3    H256333   5.850   0.420  13.627  0.5176 -0.5704  0.3668
11640TIP3   OH256334   4.949   4.245   5.017  0.2852 -0.5119 -0.3914
11640TIP3    H156335   4.857   4.270   5.034  0.7575  0.1432  1.4765
11640TIP3    H256336   4.949   4.150   5.020 -0.0028 -0.4894  1.8458
11641TIP3   OH256337   2.741   6.194  17.069 -0.3631 -0.5196 -0.1849
11641TIP3    H156338   2.730   6.233  16.983 -0.1085 -0.0946 -0.0253
11641TIP3    H256339   2.750   6.268  17.129  2.3753 -0.7792 -0.1529
11642TIP3   OH256340   3.502   6.287  14.170  0.6052 -0.5934 -0.0998
11642TIP3    H156341   3.563   6.329  14.229  2.2136 -1.4948 -1.0474
11642TIP3    H256342   3.530   6.314  14.082  0.1078 -1.6021 -0.5911
11643TIP3   OH256343   5.153   1.939   3.099  0.2867 -0.3379  0.0245
11643TIP3    H156344   5.062   1.961   3.079  0.2726 -0.1312  0.3101
11643TIP3    H256345   5.176   1.873   3.033 -0.1640 -0.6196  0.1373
11644TIP3   OH256346   4.111   2.777   2.480  0.3020  0.0576 -0.2362
11644TIP3    H156347   4.089   2.689   2.451 -1.4989  0.3615  0.1360
11644TIP3    H256348   4.165   2.765   2.558  0.3057 -0.6962 -0.3535
11645TIP3   OH256349   3.026   1.777  12.594  0.7553 -0.8865 -0.0562
11645TIP3    H156350   3.119   1.765  12.574  0.7585 -0.1437 -0.5566
11645TIP3    H256351   2.986   1.802  12.510  0.4947  0.8392  0.5254
11646TIP3   OH256352   6.703   6.504  13.212 -0.3585  0.8286  0.2384
11646TIP3    H156353   6.663   6.581  13.172  0.2106  0.0611 -1.9420
11646TIP3    H256354   6.792   6.532  13.235 -0.5456  1.1481  0.5961
11647TIP3   OH256355   3.437   5.200   6.141 -0.3206 -0.0490  0.1806
11647TIP3    H156356   3.387   5.225   6.063 -0.3747 -2.6497 -0.6996
11647TIP3    H256357   3.373   5.156   6.197  0.2720 -0.3873  0.5901
11648TIP3   OH256358   2.900   4.757   6.455  0.4442  0.3003  0.3766
11648TIP3    H156359   2.835   4.796   6.514  0.9782  1.3020  0.3123
11648TIP3    H256360   2.975   4.739   6.511  0.5354  0.2036  0.2235
11649TIP3   OH256361   6.090   1.532  15.396 -0.2665  0.0866  0.0900
11649TIP3    H156362   6.003   1.493  15.390  0.0783 -0.7324  0.4079
11649TIP3    H256363   6.111   1.557  15.306 -0.3207 -0.8343 -0.1859
11650TIP3   OH256364   3.785   4.654  12.650  0.0737 -0.4815  0.5131
11650TIP3    H156365   3.782   4.564  12.684 -0.3754 -0.4015  0.7031
11650TIP3    H256366   3.693   4.677  12.639  0.2066 -0.5095 -0.7942
11651TIP3   OH256367   2.878   0.802   1.424  0.1304 -0.6801  0.1265
11651TIP3    H156368   2.814   0.810   1.495  1.1898 -0.9394  1.1440
11651TIP3    H256369   2.865   0.880   1.371 -2.1081 -1.4918 -0.6455
11652TIP3   OH256370   5.690   4.629   4.457  0.1528 -0.4685  0.1136
11652TIP3    H156371   5.745   4.614   4.380  0.5417 -4.5910  0.9688
11652TIP3    H256372   5.712   4.717   4.485  1.6053  0.3884 -3.1929
11653TIP3   OH256373   5.623   3.710  11.332  0.6975 -0.2863 -0.0195
11653TIP3    H156374   5.655   3.704  11.242 -0.2552 -1.2831 -0.3167
11653TIP3    H256375   5.536   3.670  11.329  0.9515 -1.0233  1.5064
11654TIP3   OH256376   4.933   4.501  14.285 -0.2326 -0.3067  0.5266
11654TIP3    H156377   4.841   4.526  14.276  0.3668  1.2911 -2.5693
11654TIP3    H256378   4.941   4.422  14.230  0.3288 -0.1259  0.3472
11655TIP3   OH256379   0.238   1.428  13.555 -0.8015  0.0531 -0.0530
11655TIP3    H156380   0.207   1.338  13.547  0.2246 -0.3737  0.5511
11655TIP3    H256381   0.304   1.425  13.625  0.3722  0.9785 -1.0710
11656TIP3   OH256382   4.961   1.226  15.575 -0.1592  0.0846 -0.0290
11656TIP3    H156383   4.964   1.297  15.638  0.5280 -0.0281  0.0653
11656TIP3    H256384   5.009   1.154  15.617  0.9621  0.2526 -0.9781
11657TIP3   OH256385   3.098   0.249  11.595 -0.0410 -0.2102  0.1241
11657TIP3    H156386   3.125   0.157  11.593  1.8308  0.2932  0.1978
11657TIP3    H256387   3.126   0.280  11.681 -1.2264  0.2896  0.3421
11658TIP3   OH256388   4.898   1.803  11.319 -0.2857  0.1731 -0.6064
11658TIP3    H156389   4.941   1.785  11.403  1.7602  0.7042 -1.4572
11658TIP3    H256390   4.864   1.892  11.328 -1.3122 -0.2780  0.1086
11659TIP3   OH256391   1.375   5.193   4.941 -0.1679  0.4302 -0.6357
11659TIP3    H156392   1.430   5.136   4.887 -0.3867 -0.2872 -0.1224
11659TIP3    H256393   1.328   5.133   4.999 -0.4682  1.1308 -0.1370
11660TIP3   OH256394   5.042   1.952  10.639  0.2617 -0.0763  0.0904
11660TIP3    H156395   5.111   2.002  10.595 -0.1012  0.2856 -0.0707
11660TIP3    H256396   5.045   1.982  10.730  1.6963 -1.5595  0.5871
11661TIP3   OH256397   1.110   4.542  12.581 -0.1152  0.3651  0.5239
11661TIP3    H156398   1.177   4.519  12.517  1.0748  1.1347  1.4607
11661TIP3    H256399   1.028   4.538  12.532  0.3268 -2.4947 -0.2041
11662TIP3   OH256400   0.195   1.465   1.048 -0.3643  0.2654  0.0424
11662TIP3    H156401   0.187   1.557   1.021  0.3640  0.6879  1.1646
11662TIP3    H256402   0.283   1.440   1.021 -0.4435  0.0065  0.0295
11663TIP3   OH256403   4.278   1.683  12.311  0.0286  0.5591 -0.0642
11663TIP3    H156404   4.362   1.680  12.266 -0.4939  0.2901 -1.0542
11663TIP3    H256405   4.283   1.761  12.367  2.3311 -1.3955  2.7942
11664TIP3   OH256406   6.446   4.130  16.463  0.5045  0.2240  0.4756
11664TIP3    H156407   6.414   4.202  16.408  3.0175  1.4526  0.4796
11664TIP3    H256408   6.485   4.068  16.402 -1.1128 -0.9149  0.5298
11665TIP3   OH256409   1.314   1.531   2.506  0.0904 -0.1615 -0.7880
11665TIP3    H156410   1.287   1.451   2.550 -1.6444  0.5887 -0.3697
11665TIP3    H256411   1.395   1.557   2.550  0.7061 -1.6795 -0.9648
11666TIP3   OH256412   2.042   2.487   5.750  0.2236 -0.6687  0.0186
11666TIP3    H156413   2.079   2.464   5.664 -0.0195  0.3200 -0.3659
11666TIP3    H256414   2.078   2.574   5.768  0.3039 -0.8873  0.9492
11667TIP3   OH256415   4.520   3.301   1.284  0.4339  0.1508  0.4544
11667TIP3    H156416   4.455   3.281   1.216  0.5664 -0.0634  0.3896
11667TIP3    H256417   4.605   3.288   1.241  0.5196 -0.7204  0.8728
11668TIP3   OH256418   2.277   0.679  16.612  0.5336 -0.1093 -0.4277
11668TIP3    H156419   2.340   0.705  16.544  0.2237  3.0763  0.3599
11668TIP3    H256420   2.330   0.666  16.690  0.6255 -1.6667 -0.7012
11669TIP3   OH256421   0.799   5.440   2.089 -0.0730  0.0134 -0.3395
11669TIP3    H156422   0.855   5.392   2.150  0.9607  0.7142 -0.7158
11669TIP3    H256423   0.725   5.469   2.142 -0.4062 -1.4329  0.0309
11670TIP3   OH256424   1.397   6.633   5.071 -0.1295 -0.5229 -0.1095
11670TIP3    H156425   1.468   6.695   5.084 -0.4799 -0.4503  1.7604
11670TIP3    H256426   1.426   6.577   4.999  0.7659  0.9561 -0.9276
11671TIP3   OH256427   2.991   6.294   3.000 -0.1918  0.4226 -0.5095
11671TIP3    H156428   2.910   6.338   3.026 -0.3735  0.3462 -0.9409
11671TIP3    H256429   3.020   6.248   3.079  0.0656  1.4029 -0.0180
11672TIP3   OH256430   0.722   4.448  14.577 -0.1892 -0.3082 -0.7066
11672TIP3    H156431   0.771   4.461  14.496 -1.0667  0.7578 -1.0889
11672TIP3    H256432   0.632   4.434  14.549 -0.3534 -0.8273  0.0507
11673TIP3   OH256433   5.215   1.880  12.924 -0.3569 -0.6331 -0.4864
11673TIP3    H156434   5.153   1.832  12.869 -2.7595  0.7486  0.8456
11673TIP3    H256435   5.195   1.972  12.909  0.5064 -0.1762  0.9454
11674TIP3   OH256436   5.895   0.088   4.818  0.0124  0.0594 -0.2234
11674TIP3    H156437   5.834   0.068   4.748 -0.0079 -0.6287 -0.0161
11674TIP3    H256438   5.974   0.120   4.774 -0.1915  0.1447 -0.5270
11675TIP3   OH256439   5.541   5.024  15.795 -0.1498  0.3292  0.0515
11675TIP3    H156440   5.611   4.998  15.854 -1.0608 -0.4641  0.8259
11675TIP3    H256441   5.547   4.964  15.721 -0.6752 -0.4743  0.6409
11676TIP3   OH256442   0.657   4.514   6.376  0.0647 -1.0049  0.6020
11676TIP3    H156443   0.651   4.560   6.459  1.5626  0.1222  0.1337
11676TIP3    H256444   0.645   4.422   6.398  0.1227 -0.6969  2.0147
11677TIP3   OH256445   5.755   2.800   5.659  0.1610 -0.2681  0.4084
11677TIP3    H156446   5.666   2.765   5.664  0.2168 -0.3995  0.4713
11677TIP3    H256447   5.743   2.893   5.640  0.0265 -0.4303 -0.3204
11678TIP3   OH256448   4.534   1.809   5.890  0.3733  0.2612  0.2982
11678TIP3    H156449   4.446   1.845   5.897  0.2766  0.1755 -0.3894
11678TIP3    H256450   4.588   1.867   5.943  0.1453  1.1500 -0.4161
11679TIP3   OH256451   0.669   1.190  17.088 -0.5557 -0.4825 -0.2257
11679TIP3    H156452   0.590   1.136  17.088 -0.9826  0.1290 -0.5183
11679TIP3    H256453   0.737   1.132  17.122 -0.6383 -1.7119 -2.0281
11680TIP3   OH256454   3.664   1.706   5.030 -0.0655 -0.1085  0.1501
11680TIP3    H156455   3.727   1.681   4.962  0.5098  0.9246  0.2816
11680TIP3    H256456   3.673   1.638   5.097 -0.2660 -0.8489 -0.5600
11681TIP3   OH256457   4.182   6.484   2.016 -0.5197  0.5023 -0.6595
11681TIP3    H156458   4.198   6.578   2.017  0.2582  0.3846 -0.7886
11681TIP3    H256459   4.261   6.446   2.056 -0.6779 -0.1107 -0.9070
11682TIP3   OH256460   6.402   0.130   3.002 -0.1735  0.1945 -0.3157
11682TIP3    H156461   6.488   0.156   3.035 -0.8269  0.7370  1.0257
11682TIP3    H256462   6.357   0.212   2.984 -0.8160 -0.0586  0.0991
11683TIP3   OH256463   1.845   0.691  12.286 -0.2451  0.3420  0.2353
11683TIP3    H156464   1.879   0.753  12.350 -0.1070  0.4092  0.0986
11683TIP3    H256465   1.921   0.669  12.232  0.0366 -0.9681  1.0973
11684TIP3   OH256466   1.231   5.871  11.590 -0.1697  1.0618 -0.4444
11684TIP3    H156467   1.273   5.819  11.659 -0.2779  0.3771 -0.8859
11684TIP3    H256468   1.299   5.881  11.523 -0.9774 -1.0212 -1.6865
11685TIP3   OH256469   6.519   3.871   3.337 -0.6141  0.5464  0.1801
11685TIP3    H156470   6.514   3.928   3.261  2.7369  0.5492 -0.2180
11685TIP3    H256471   6.579   3.801   3.310  0.2552  0.2581  2.5879
11686TIP3   OH256472   3.725   4.553   3.353  0.0737  0.3995  0.0303
11686TIP3    H156473   3.702   4.469   3.393  0.2017  1.7206  3.1737
11686TIP3    H256474   3.818   4.544   3.331 -0.1922 -0.6337 -0.7284
11687TIP3   OH256475   3.971   6.553  16.008  0.6772 -0.6003  0.1937
11687TIP3    H156476   4.024   6.590  15.938  0.2965 -1.3169 -0.4917
11687TIP3    H256477   4.029   6.493  16.054  0.6986 -0.7468 -0.0239
11688TIP3   OH256478   3.798   3.237  11.515 -0.3144 -0.1003  0.1565
11688TIP3    H156479   3.736   3.273  11.578 -0.3138  0.0567  0.0680
11688TIP3    H256480   3.798   3.300  11.443 -1.5335 -1.0933 -0.7473
11689TIP3   OH256481   5.724   4.812  16.102 -0.9616 -0.3884  0.3362
11689TIP3    H156482   5.750   4.863  16.025 -1.3519 -0.5799  0.0752
11689TIP3    H256483   5.763   4.859  16.176 -1.3790  0.3341  0.1058
11690TIP3   OH256484   2.409   0.121  16.600  0.0663  0.4854 -0.1442
11690TIP3    H156485   2.468   0.178  16.550  0.5225  0.0222 -0.1399
11690TIP3    H256486   2.369   0.064  16.534  1.1634 -0.5686  0.0768
11691TIP3   OH256487   1.625   5.971  13.070  0.3717 -0.0482  0.1752
11691TIP3    H156488   1.665   6.053  13.039  2.4028 -1.1900 -0.3849
11691TIP3    H256489   1.655   5.905  13.008  0.0659 -1.5053  1.5277
11692TIP3   OH256490   0.727   5.567   4.003  0.1469 -0.4113  0.0148
11692TIP3    H156491   0.692   5.560   3.914 -1.1287  0.9697  0.3591
11692TIP3    H256492   0.821   5.553   3.993 -0.1444 -1.6350 -1.3381
11693TIP3   OH256493   5.042   5.741   4.747 -0.1438  0.0439 -0.6677
11693TIP3    H156494   5.065   5.654   4.777 -0.1702  0.8510  1.9218
11693TIP3    H256495   5.126   5.786   4.735 -0.1522 -0.0938 -1.2879
11694TIP3   OH256496   1.867   1.974  13.118  0.3348  0.1519 -0.5489
11694TIP3    H156497   1.938   1.928  13.163 -0.7374 -0.2964  0.7442
11694TIP3    H256498   1.788   1.926  13.143 -0.8376  2.6471  0.7923
11695TIP3   OH256499   6.645   3.078   2.351  0.4453 -0.2955  0.2736
11695TIP3    H156500   6.690   3.103   2.432 -0.0237  1.3454  0.0547
11695TIP3    H256501   6.552   3.095   2.369  0.1752 -1.2795 -0.1310
11696TIP3   OH256502   0.496   1.190  12.972  0.2551  0.2639 -0.0449
11696TIP3    H156503   0.560   1.205  13.042 -2.7515  0.7253  2.8361
11696TIP3    H256504   0.498   1.095  12.958  1.2303  0.2134  0.3400
11697TIP3   OH256505   1.050   3.378  12.782 -0.7137  0.9935 -0.1099
11697TIP3    H156506   1.129   3.432  12.781 -1.1710  1.8083  2.1916
11697TIP3    H256507   1.081   3.290  12.799 -0.2208  1.1261 -0.3004
11698TIP3   OH256508   5.051   4.582   0.656  0.1731  0.2363  0.1339
11698TIP3    H156509   4.985   4.642   0.691  0.9782  1.1124  0.1701
11698TIP3    H256510   5.088   4.627   0.581 -1.4924 -1.6149 -1.9169
11699TIP3   OH256511   3.696   0.343   0.274  0.2143 -0.5147 -0.2715
11699TIP3    H156512   3.785   0.309   0.268  0.5625  0.4918 -0.9385
11699TIP3    H256513   3.687   0.373   0.365  0.8551  0.1917 -0.4388
11700TIP3   OH256514   1.417   6.312  14.981  0.3646 -0.4356 -0.0745
11700TIP3    H156515   1.325   6.337  14.972 -0.1354 -1.2332  2.1710
11700TIP3    H256516   1.466   6.391  14.957 -0.9748  0.7288  0.8854
11701TIP3   OH256517   2.886   5.447  13.519  0.0384  0.1118  0.2634
11701TIP3    H156518   2.977   5.419  13.530 -0.5425 -2.1115 -0.1496
11701TIP3    H256519   2.837   5.395  13.581 -1.3346 -1.1611 -1.7823
11702TIP3   OH256520   5.649   0.085  15.795  0.3043  0.1631 -0.2724
11702TIP3    H156521   5.733   0.094  15.751 -0.0321 -1.1057 -1.2284
11702TIP3    H256522   5.665   0.023  15.867 -0.3015 -2.2002 -2.0346
11703TIP3   OH256523   2.138   5.793  13.859 -0.0523 -0.3337 -0.6706
11703TIP3    H156524   2.198   5.837  13.799  1.2849  3.5857  3.0670
11703TIP3    H256525   2.060   5.849  13.860 -0.6732 -1.1828  0.0799
11704TIP3   OH256526   2.466   1.234   3.343  0.1482  0.0438 -0.1143
11704TIP3    H156527   2.427   1.147   3.354  1.5932 -1.0947 -2.9935
11704TIP3    H256528   2.395   1.295   3.366 -0.6580 -1.7777  2.8086
11705TIP3   OH256529   0.420   1.778  13.478 -0.5226  0.2517 -0.9249
11705TIP3    H156530   0.445   1.794  13.569 -1.8210 -1.7502 -0.1366
11705TIP3    H256531   0.502   1.776  13.429  0.1966  1.2481  0.2055
11706TIP3   OH256532   6.178   1.695  11.437  0.5646  0.0144 -0.0828
11706TIP3    H156533   6.163   1.672  11.345  2.4667  1.7480 -0.9293
11706TIP3    H256534   6.264   1.737  11.437  0.9428 -0.5457  2.6346
11707TIP3   OH256535   3.800   5.452   0.528  0.2629 -0.0768  0.4062
11707TIP3    H156536   3.709   5.480   0.530  0.6443  1.1855  1.9075
11707TIP3    H256537   3.842   5.510   0.465  0.1190 -0.4182 -0.0113
11708TIP3   OH256538   5.513   1.424  16.427  0.6006  0.1239  0.3540
11708TIP3    H156539   5.564   1.478  16.486  0.4099 -0.3949  1.0058
11708TIP3    H256540   5.560   1.429  16.343  1.7231 -0.3486  0.9321
11709TIP3   OH256541   5.865   2.670  14.500 -0.7812 -0.0464  0.0434
11709TIP3    H156542   5.869   2.715  14.416 -0.4218  1.6051  0.8978
11709TIP3    H256543   5.796   2.715  14.548 -0.1384 -0.1398  1.0851
11710TIP3   OH256544   4.106   0.618  16.796 -0.4641 -0.4044  1.2481
11710TIP3    H156545   4.170   0.553  16.766 -2.0871 -1.2796 -0.5359
11710TIP3    H256546   4.029   0.567  16.818 -1.9434  0.8687 -0.6305
11711TIP3   OH256547   0.164   0.373   1.699  0.0514 -0.0934  0.3772
11711TIP3    H156548   0.077   0.374   1.738  0.2348 -0.4312  0.7894
11711TIP3    H256549   0.203   0.457   1.725 -0.4778  0.4730 -0.5659
11712TIP3   OH256550   5.034   1.814  12.718 -0.0376  0.8463 -0.1791
11712TIP3    H156551   4.959   1.762  12.690  0.4172  0.5587 -0.9126
11712TIP3    H256552   4.997   1.897  12.746 -0.7617  0.2024  0.8504
11713TIP3   OH256553   2.287   2.170   5.381  0.4060 -0.6631 -0.3981
11713TIP3    H156554   2.357   2.132   5.433  1.6984  3.9445  1.7325
11713TIP3    H256555   2.316   2.158   5.290  2.6001 -1.2664  0.3172
11714TIP3   OH256556   1.169   3.492  13.478  0.0140  0.8234  0.1498
11714TIP3    H156557   1.146   3.485  13.385  1.3833 -0.7501 -0.1104
11714TIP3    H256558   1.136   3.410  13.517  2.5540 -0.1962  0.3036
11715TIP3   OH256559   5.582   5.179  14.435 -0.3312 -0.3583  0.6964
11715TIP3    H156560   5.584   5.095  14.388  0.9006 -0.8606  1.5972
11715TIP3    H256561   5.674   5.201  14.448 -0.6020  1.5941 -0.2720
11716TIP3   OH256562   0.790   6.368  17.410 -0.4946 -0.4554  0.0308
11716TIP3    H156563   0.756   6.322  17.333  1.6462 -0.7774 -0.7882
11716TIP3    H256564   0.834   6.445  17.373 -0.0905 -0.2086  1.0103
11717TIP3   OH256565   3.841   3.948  13.366  0.7792 -0.2229 -0.3273
11717TIP3    H156566   3.877   3.931  13.452 -0.0815 -1.3361 -0.1601
11717TIP3    H256567   3.851   3.865  13.319  0.9710  0.2824 -1.1959
11718TIP3   OH256568   1.268   4.368  13.403  0.2770  0.0277  0.1657
11718TIP3    H156569   1.358   4.346  13.426  1.1596  2.2902 -0.7679
11718TIP3    H256570   1.232   4.289  13.364  1.2418 -1.4675  2.1413
11719TIP3   OH256571   3.862   3.775   5.007  0.7630  0.1522 -0.0717
11719TIP3    H156572   3.860   3.767   5.103  2.8588  0.9075  0.0890
11719TIP3    H256573   3.907   3.858   4.991 -2.6988  1.9570 -1.7426
11720TIP3   OH256574   3.897   2.509  15.595 -0.0346 -0.3145  0.2478
11720TIP3    H156575   3.895   2.461  15.512 -0.9824 -0.0465  0.1017
11720TIP3    H256576   3.919   2.443  15.661 -1.1729 -0.9444  0.0292
11721TIP3   OH256577   0.553   6.276  11.963 -0.2121 -0.4084  0.3512
11721TIP3    H156578   0.498   6.210  12.005 -2.1370  1.2994  0.6819
11721TIP3    H256579   0.515   6.359  11.990  0.8508  0.8161 -1.6968
11722TIP3   OH256580   2.337   4.628   0.054 -0.8630  0.2213  0.0156
11722TIP3    H156581   2.412   4.677   0.088  0.3132 -1.3486 -0.1948
11722TIP3    H256582   2.262   4.685   0.071  0.3406  1.8141  0.3154
11723TIP3   OH256583   4.421   0.342  14.450 -0.1087  0.3749  0.0017
11723TIP3    H156584   4.431   0.313  14.359 -0.1678 -0.8242  0.3621
11723TIP3    H256585   4.507   0.325  14.489 -0.0206  1.0854  0.1266
11724TIP3   OH256586   3.955   4.219  12.978  0.0050  0.2802 -0.0245
11724TIP3    H156587   3.887   4.156  13.003  0.8847 -0.6212  0.1488
11724TIP3    H256588   4.004   4.175  12.909  1.7170  0.0451  1.2937
11725TIP3   OH256589   4.750   0.867   2.483  0.0183  0.2118 -0.1813
11725TIP3    H156590   4.789   0.852   2.397 -0.4935  1.6782 -0.6854
11725TIP3    H256591   4.806   0.816   2.543  0.8888 -0.1433 -1.2504
11726TIP3   OH256592   2.332   5.524   3.974 -0.1473  0.2079 -0.5440
11726TIP3    H156593   2.408   5.561   3.928  0.1434  2.5663  1.6026
11726TIP3    H256594   2.370   5.463   4.038 -0.5057 -2.4838 -2.7069
11727TIP3   OH256595   6.530   3.991   0.964  0.0986  0.8585 -0.2736
11727TIP3    H156596   6.519   3.901   0.994 -0.7937 -0.2065 -3.3333
11727TIP3    H256597   6.544   4.042   1.043 -2.7189 -1.4692  1.9435
11728TIP3   OH256598   6.668   5.755   2.093  0.5721 -0.5846 -0.3653
11728TIP3    H156599   6.726   5.796   2.029 -0.1294 -2.4813 -2.3378
11728TIP3    H256600   6.723   5.690   2.137  1.0846  0.7945  1.1402
11729TIP3   OH256601   6.491   1.787   5.527 -0.5503  0.7561 -0.2528
11729TIP3    H156602   6.429   1.747   5.588 -1.0932 -1.2987 -2.0184
11729TIP3    H256603   6.557   1.827   5.583  0.4907 -3.3382  1.8096
11730TIP3   OH256604   5.504   4.721  16.580  0.5285 -0.3235 -0.1097
11730TIP3    H156605   5.519   4.647  16.639  0.4638  0.0518  0.3835
11730TIP3    H256606   5.482   4.680  16.496  1.7053 -0.8615 -0.1670
11731TIP3   OH256607   1.382   0.906   3.787 -0.1527  0.3929  0.1725
11731TIP3    H156608   1.312   0.841   3.795 -0.0121  0.0423 -1.1166
11731TIP3    H256609   1.369   0.943   3.699  0.8864  0.7936  0.1774
11732TIP3   OH256610   4.984   2.857  15.303  0.1152 -0.1036  0.0924
11732TIP3    H156611   4.894   2.844  15.273  0.7975 -2.2893 -1.3088
11732TIP3    H256612   5.003   2.779  15.356  0.9320  0.7241  1.0475
11733TIP3   OH256613   2.240   6.515   0.682  0.1881  0.4695  0.0826
11733TIP3    H156614   2.284   6.431   0.670  0.9127  0.5414  1.9338
11733TIP3    H256615   2.198   6.532   0.598  0.0107 -1.7363 -0.3431
11734TIP3   OH256616   5.122   4.525   1.728  0.5676 -0.2411  0.0343
11734TIP3    H156617   5.149   4.533   1.636  0.5285  3.1043  0.1592
11734TIP3    H256618   5.204   4.522   1.777  0.6931  1.3977 -0.0102
11735TIP3   OH256619   3.259   5.627  17.281 -0.8414  0.5532  0.7021
11735TIP3    H156620   3.276   5.573  17.204  0.8968  2.4200 -0.3155
11735TIP3    H256621   3.170   5.660  17.267 -0.7671  0.4074 -0.2090
11736TIP3   OH256622   3.235   0.554  12.025 -0.4919 -0.4462  0.0476
11736TIP3    H156623   3.198   0.617  12.088  0.8973 -0.5807  1.0439
11736TIP3    H256624   3.249   0.475  12.076 -0.6300 -1.0199 -0.7913
11737TIP3   OH256625   1.499   1.684   0.645 -0.6674  0.5270  0.0497
11737TIP3    H156626   1.518   1.616   0.710  0.6783  1.4372  0.6846
11737TIP3    H256627   1.522   1.645   0.561 -0.8412 -0.1221  0.2982
11738TIP3   OH256628   1.178   4.872  10.990  0.0191  0.5166  0.3500
11738TIP3    H156629   1.122   4.874  10.912  2.0193 -2.4450 -1.4004
11738TIP3    H256630   1.144   4.800  11.042  1.6187 -0.8318 -0.3744
11739TIP3   OH256631   4.168   1.195  16.743 -0.2643  0.2495  0.7839
11739TIP3    H156632   4.238   1.233  16.797 -0.9250  0.3838  1.5579
11739TIP3    H256633   4.090   1.244  16.766 -0.3762  1.0293 -1.0822
11740TIP3   OH256634   5.254   3.541  17.400  0.1980 -0.7897 -0.5524
11740TIP3    H156635   5.235   3.634  17.394 -1.3384 -0.8997  1.4756
11740TIP3    H256636   5.228   3.505  17.315 -3.4400  0.0317  0.0471
11741TIP3   OH256637   5.723   5.963   1.315 -0.1369 -0.4358 -0.0150
11741TIP3    H156638   5.709   6.026   1.386  0.7293  0.0428 -0.2642
11741TIP3    H256639   5.697   6.009   1.236 -1.6232 -1.1485  0.0115
11742TIP3   OH256640   0.217   3.914   3.938 -0.3461  0.1456 -0.0728
11742TIP3    H156641   0.246   3.890   4.026 -1.3162  2.8062  1.0789
11742TIP3    H256642   0.285   3.973   3.906 -0.1528 -0.5680 -1.0110
11743TIP3   OH256643   2.084   0.325  14.511 -0.3634  0.1972 -0.2019
11743TIP3    H156644   2.000   0.280  14.511 -1.5904  2.3575  1.1121
11743TIP3    H256645   2.068   0.408  14.555  2.7219  0.2287  1.1654
11744TIP3   OH256646   0.216   3.692  14.984  0.3177  0.2110 -0.1330
11744TIP3    H156647   0.308   3.682  14.962 -0.2306 -1.4002 -1.9863
11744TIP3    H256648   0.169   3.673  14.903 -1.7078 -0.4928  1.1053
11745TIP3   OH256649   2.012   0.568   0.605  0.5405  0.1681  0.4940
11745TIP3    H156650   2.064   0.639   0.644  0.0240  0.5399  0.5085
11745TIP3    H256651   2.031   0.574   0.511  1.0598 -0.1367  0.5756
11746TIP3   OH256652   3.710   1.006  13.696  0.5701 -0.3177  0.3511
11746TIP3    H156653   3.620   0.999  13.728  0.6744 -0.2043  0.6682
11746TIP3    H256654   3.755   1.059  13.762  1.3063 -1.8064  1.0755
11747TIP3   OH256655   5.657   2.419  10.567  0.6041 -0.6744 -0.1519
11747TIP3    H156656   5.590   2.471  10.524  0.8409 -0.8503 -0.7547
11747TIP3    H256657   5.732   2.478  10.576  0.4971 -0.5866  0.1825
11748TIP3   OH256658   3.110   0.629  16.701 -0.4732  0.4174 -0.5952
11748TIP3    H156659   3.084   0.549  16.748 -3.8901  0.3449 -2.2896
11748TIP3    H256660   3.079   0.700  16.757  0.2129  0.5058 -0.3170
11749TIP3   OH256661   1.502   1.172  16.173  0.5113  0.1459  0.0147
11749TIP3    H156662   1.419   1.220  16.164  1.3918  1.7791  0.2394
11749TIP3    H256663   1.520   1.175  16.267  0.7445 -0.3418 -0.0156
11750TIP3   OH256664   2.011   1.964  13.952 -0.0051  0.0463  0.1563
11750TIP3    H156665   1.916   1.966  13.961  0.0854  1.2580  0.9966
11750TIP3    H256666   2.041   2.049  13.985  1.4406 -0.6725  0.8026
11751TIP3   OH256667   4.986   2.662  12.807  0.8457 -0.0892 -0.1016
11751TIP3    H156668   4.919   2.620  12.752  0.9667 -1.3095  0.6528
11751TIP3    H256669   5.046   2.703  12.744 -0.7093  1.2673 -0.7974
11752TIP3   OH256670   4.448   2.189   1.267 -0.3721 -0.1862  0.3766
11752TIP3    H156671   4.402   2.267   1.298 -0.8944  0.4728 -1.8851
11752TIP3    H256672   4.539   2.217   1.260 -0.2555 -0.3293  1.2249
11753TIP3   OH256673   3.475   6.663  15.839 -0.5311 -0.0846  0.2725
11753TIP3    H156674   3.468   6.711  15.756 -1.4305 -1.3578 -0.4016
11753TIP3    H256675   3.541   6.596  15.822  2.1132  1.9351  1.7725
11754TIP3   OH256676   0.573   6.487  11.094 -0.0690  0.0155  0.4129
11754TIP3    H156677   0.592   6.397  11.067  0.5192  0.1008  0.5232
11754TIP3    H256678   0.482   6.501  11.069  0.3952  0.0391 -1.3917
11755TIP3   OH256679   5.189   0.338  16.529 -0.6071 -0.7711 -0.2000
11755TIP3    H156680   5.103   0.298  16.515 -1.1821 -0.3518  1.7916
11755TIP3    H256681   5.172   0.411  16.588  1.0037 -0.1146 -0.4970
11756TIP3   OH256682   3.896   1.967  16.185  0.0891 -0.0207 -0.0213
11756TIP3    H156683   3.831   2.037  16.186  0.0953 -0.0049 -0.5315
11756TIP3    H256684   3.971   2.002  16.232 -0.1027  0.1298  0.1677
11757TIP3   OH256685   6.533   3.987   5.780 -0.0919 -0.2759  0.0669
11757TIP3    H156686   6.453   4.030   5.749  1.2345  0.7803 -2.1496
11757TIP3    H256687   6.510   3.894   5.785 -1.5439  0.0491 -0.2198
11758TIP3   OH256688   2.461   2.486   5.534 -0.0093  0.1885 -1.3751
11758TIP3    H156689   2.498   2.503   5.447  1.3075  0.1463 -0.8475
11758TIP3    H256690   2.515   2.415   5.570 -1.5525 -0.8999 -1.1332
11759TIP3   OH256691   1.947   5.979  11.291  0.1064  0.2600  0.5037
11759TIP3    H156692   1.866   5.995  11.242  0.5879  1.5892  0.0770
11759TIP3    H256693   2.004   6.052  11.266  1.8297 -1.2033 -0.0433
11760TIP3   OH256694   6.494   5.207   6.117 -0.8802  1.0455  0.1240
11760TIP3    H156695   6.545   5.288   6.112  1.0128  0.0526  1.7180
11760TIP3    H256696   6.418   5.229   6.171  0.5508  1.4042  2.1190
11761TIP3   OH256697   4.452   1.003   5.789  0.1609 -0.3858 -0.4658
11761TIP3    H156698   4.398   1.070   5.748 -0.4134 -0.8807 -0.5331
11761TIP3    H256699   4.531   0.999   5.735  0.2213  0.2644 -0.4322
11762TIP3   OH256700   0.235   1.742  13.212  0.0388  0.0917  0.2825
11762TIP3    H156701   0.276   1.749  13.126 -0.4544 -0.8256 -0.0462
11762TIP3    H256702   0.306   1.714  13.270  0.2696  0.2351  0.0704
11763TIP3   OH256703   4.679   5.190   1.438 -0.4323 -0.4224 -0.2874
11763TIP3    H156704   4.699   5.281   1.418  1.0419 -0.7672 -0.4681
11763TIP3    H256705   4.583   5.185   1.435 -0.6083  1.4283  1.1551
11764TIP3   OH256706   6.677   4.913  16.490  0.4202  0.2480  0.1637
11764TIP3    H156707   6.657   4.977  16.558  0.7987  1.5391 -0.8932
11764TIP3    H256708   6.645   4.952  16.409  1.0720 -0.7006 -0.5832
11765TIP3   OH256709   2.765   1.603  16.289  0.0403 -0.3453  0.0146
11765TIP3    H156710   2.823   1.549  16.343 -0.2621  0.5698  1.2972
11765TIP3    H256711   2.702   1.541  16.253  0.3139 -0.9966  0.6232
11766TIP3   OH256712   6.364   2.864   4.610 -0.2754  0.1910 -0.2202
11766TIP3    H156713   6.340   2.955   4.629 -2.6022 -0.5698  0.7945
11766TIP3    H256714   6.320   2.813   4.678  2.8462 -1.5870  0.6747
11767TIP3   OH256715   4.943   0.649  13.920 -0.5646 -0.6841 -0.1105
11767TIP3    H156716   4.931   0.717  13.986 -0.8721 -1.8837  1.1190
11767TIP3    H256717   4.879   0.582  13.943  0.9528 -2.2173 -0.1433
11768TIP3   OH256718   2.646   1.490   1.101 -0.5408  0.7726 -0.8070
11768TIP3    H156719   2.559   1.528   1.116 -0.2958  1.4039 -0.9743
11768TIP3    H256720   2.707   1.559   1.124  0.0664 -0.6470  2.3979
11769TIP3   OH256721   5.474   4.298   0.351 -0.4587  0.1850 -0.2676
11769TIP3    H156722   5.537   4.342   0.294  0.5418 -0.9328 -0.0475
11769TIP3    H256723   5.517   4.217   0.377 -1.2060  0.3043  1.4631
11770TIP3   OH256724   4.872   4.224  14.861 -0.0261  0.0370  0.7847
11770TIP3    H156725   4.955   4.254  14.825  1.0887 -0.8289  2.5694
11770TIP3    H256726   4.834   4.171  14.790  0.1023  1.7710 -0.6692
11771TIP3   OH256727   3.431   4.880   5.029 -0.8221  0.0881  0.8696
11771TIP3    H156728   3.484   4.825   4.972 -0.2857 -0.3263  1.7464
11771TIP3    H256729   3.482   4.888   5.109 -0.2835  2.8868  0.3632
11772TIP3   OH256730   1.876   0.798   2.846  0.1932  0.5785  1.1725
11772TIP3    H156731   1.791   0.809   2.803  0.7376  1.3352  0.2372
11772TIP3    H256732   1.859   0.738   2.919 -1.1822  0.9217  1.1536
11773TIP3   OH256733   2.959   2.284  10.754  0.2240  0.1758 -0.5313
11773TIP3    H156734   3.014   2.306  10.829 -0.9233 -0.1697  0.4449
11773TIP3    H256735   3.001   2.327  10.680  1.6986  0.0495  0.2029
11774TIP3   OH256736   5.501   4.673   3.310  0.6871 -0.0763 -0.2008
11774TIP3    H156737   5.479   4.625   3.390 -0.4246  1.5556  0.5476
11774TIP3    H256738   5.419   4.676   3.261  1.4507 -1.3812 -1.6186
11775TIP3   OH256739   1.269   2.225  13.478 -0.0331  0.1726 -0.4967
11775TIP3    H156740   1.277   2.169  13.554  2.0683 -1.2350 -1.6616
11775TIP3    H256741   1.195   2.189  13.429 -1.4768  1.1655  0.8538
11776TIP3   OH256742   2.790   2.661  17.033 -0.5770  0.1130  0.0520
11776TIP3    H156743   2.880   2.693  17.038 -0.8187  0.7045  0.8118
11776TIP3    H256744   2.799   2.566  17.027  0.0827 -0.0179  2.2075
11777TIP3   OH256745   1.406   4.495   5.718  1.0364 -0.2001 -0.0548
11777TIP3    H156746   1.386   4.507   5.811 -1.2238 -0.5760 -0.4439
11777TIP3    H256747   1.356   4.417   5.692 -0.7888  1.5735 -2.2462
11778TIP3   OH256748   3.936   0.562  15.882 -0.4522 -0.0676  0.1204
11778TIP3    H156749   3.929   0.648  15.841 -1.8218  0.4175  1.2603
11778TIP3    H256750   4.025   0.559  15.917 -0.4135  0.9267  0.1316
11779TIP3   OH256751   2.793   3.176  12.271 -0.1952  0.4683 -1.0714
11779TIP3    H156752   2.764   3.185  12.361  0.6048 -0.2162 -0.7285
11779TIP3    H256753   2.831   3.261  12.248 -0.3555  0.6245 -0.7543
11780TIP3   OH256754   3.292   1.225  14.573  0.2423  0.3167 -0.2950
11780TIP3    H156755   3.333   1.167  14.509 -0.4238 -0.6993  0.1698
11780TIP3    H256756   3.228   1.275  14.523 -0.8735 -1.0641 -0.3266
11781TIP3   OH256757   6.348   2.454  16.535  0.0876 -0.0081 -0.1295
11781TIP3    H156758   6.426   2.409  16.501  0.2363  0.5615 -0.5491
11781TIP3    H256759   6.291   2.383  16.564 -0.6945 -0.6302 -2.9000
11782TIP3   OH256760   1.523   4.951   6.413  0.2998 -0.0569  0.7258
11782TIP3    H156761   1.436   4.912   6.411  0.4227 -0.4840 -2.4059
11782TIP3    H256762   1.581   4.882   6.382  1.5381  0.6528  1.3930
11783TIP3   OH256763   6.366   3.676   5.392 -0.1077  0.3805 -0.5017
11783TIP3    H156764   6.399   3.726   5.467 -1.1334  0.9025 -0.3919
11783TIP3    H256765   6.351   3.741   5.324  1.1403 -0.1321 -1.3053
11784TIP3   OH256766   5.267   5.781  16.440 -0.2435 -0.2057  0.2396
11784TIP3    H156767   5.250   5.711  16.377 -0.2823  1.4701 -1.6793
11784TIP3    H256768   5.358   5.805  16.427 -0.2656  0.2105  0.7895
11785TIP3   OH256769   6.521   0.095   5.854  1.0720 -0.5226  0.2578
11785TIP3    H156770   6.597   0.109   5.797  0.7514  0.2073 -0.0081
11785TIP3    H256771   6.507   0.001   5.852  0.5287 -0.4404 -1.6052
11786TIP3   OH256772   0.262   4.693   6.529 -0.1323  0.3930 -0.0878
11786TIP3    H156773   0.354   4.691   6.556  0.3180 -1.3697 -1.5426
11786TIP3    H256774   0.217   4.734   6.603  1.4522 -1.1385  1.8540
11787TIP3   OH256775   2.699   2.815  11.659 -0.9132 -0.2371 -0.1368
11787TIP3    H156776   2.638   2.888  11.671  0.3114  0.8473 -0.2685
11787TIP3    H256777   2.643   2.737  11.659 -2.3569  0.7438 -0.8193
11788TIP3   OH256778   4.980   0.025  16.069 -0.0050 -0.1785 -0.1237
11788TIP3    H156779   4.938   0.015  15.983 -0.2446 -1.0367  0.0773
11788TIP3    H256780   5.062   0.071  16.051  0.1611 -0.7492 -0.8791
11789TIP3   OH256781   5.290   3.976   4.098  1.0564 -0.2099  0.3095
11789TIP3    H156782   5.310   4.054   4.047  1.5030 -0.5678 -0.0754
11789TIP3    H256783   5.264   4.009   4.184  0.9409  0.3698  0.0563
11790TIP3   OH256784   2.608   3.179   4.679  0.1519 -0.1176 -1.1595
11790TIP3    H156785   2.688   3.230   4.666 -0.1576  0.8509  0.4888
11790TIP3    H256786   2.546   3.240   4.720 -0.9783 -1.2163 -1.1584
11791TIP3   OH256787   6.169   6.705  14.432  0.5021 -0.5068 -0.2787
11791TIP3    H156788   6.097   6.645  14.449 -0.8741  0.5603 -1.9861
11791TIP3    H256789   6.209   6.673  14.351  1.6281 -0.7895  0.3743
11792TIP3   OH256790   2.341   5.698  15.658  0.2088  0.0050 -0.0518
11792TIP3    H156791   2.347   5.772  15.597 -4.4869  0.9010  0.2281
11792TIP3    H256792   2.281   5.637  15.616 -0.4842 -0.9590  2.1821
11793TIP3   OH256793   6.684   6.369   0.031  0.6182 -0.3336  0.1043
11793TIP3    H156794   6.619   6.299   0.025  0.4791 -0.1541 -0.5257
11793TIP3    H256795   6.767   6.326   0.010  0.5406 -0.3239 -0.2283
11794TIP3   OH256796   3.144   6.159  13.176  0.0206  0.4956 -0.1095
11794TIP3    H156797   3.144   6.184  13.269 -1.5562 -0.7740  0.2824
11794TIP3    H256798   3.203   6.084  13.171 -0.0005  0.4772 -0.0908
11795TIP3   OH256799   5.577   6.405  15.873  0.2421 -0.0356  0.5424
11795TIP3    H156800   5.515   6.473  15.849 -0.2883 -0.5367  0.4817
11795TIP3    H256801   5.533   6.355  15.942  1.0122  0.2685  1.2684
11796TIP3   OH256802   1.257   4.055   0.803  0.2238 -0.0412 -0.4595
11796TIP3    H156803   1.200   3.980   0.786 -0.0541  0.2316 -0.7511
11796TIP3    H256804   1.199   4.120   0.843  0.0458  0.6727 -1.8069
11797TIP3   OH256805   4.399   4.558  15.963 -0.1789  0.3683  0.3998
11797TIP3    H156806   4.409   4.625  15.895  2.8650  0.1270  0.4809
11797TIP3    H256807   4.470   4.496  15.947 -1.7528 -1.8621  1.4839
11798TIP3   OH256808   4.779   6.053  15.510 -0.2194 -0.3019 -0.4304
11798TIP3    H156809   4.844   5.993  15.546 -0.2665  0.8754  1.8600
11798TIP3    H256810   4.830   6.124  15.471 -0.1478 -0.7966 -1.2320
11799TIP3   OH256811   1.847   0.519  13.170  0.9067 -0.5847  0.2800
11799TIP3    H156812   1.770   0.463  13.174 -0.3472  1.0243 -0.4495
11799TIP3    H256813   1.889   0.508  13.255  0.4861 -2.2733  0.3138
11800TIP3   OH256814   1.666   4.879  16.968 -0.3563  0.3635 -0.7944
11800TIP3    H156815   1.626   4.852  17.050 -0.9838 -0.3640 -1.3191
11800TIP3    H256816   1.591   4.897  16.910  0.0577  1.8576 -0.9125
11801TIP3   OH256817   3.854   2.671  14.147 -0.4237  0.3910  0.1989
11801TIP3    H156818   3.810   2.592  14.175 -1.3312  1.0985  0.8120
11801TIP3    H256819   3.947   2.654  14.164 -0.6531 -0.3617  0.7335
11802TIP3   OH256820   4.888   6.414  11.448 -0.2652  0.5370  0.1388
11802TIP3    H156821   4.900   6.374  11.362 -2.5979  1.4424 -0.6748
11802TIP3    H256822   4.857   6.503  11.429  0.5484  1.2552  1.9238
11803TIP3   OH256823   5.058   3.273   1.600 -0.4475 -0.2267 -0.1800
11803TIP3    H156824   4.981   3.294   1.547  0.6969  0.8101 -1.5066
11803TIP3    H256825   5.116   3.226   1.539  0.2528 -0.3844  0.5942
11804TIP3   OH256826   3.051   3.617   2.284 -0.3096  0.2357  0.2052
11804TIP3    H156827   3.009   3.631   2.199  0.9320  1.4969 -0.2285
11804TIP3    H256828   3.100   3.536   2.273  0.8152  0.9958 -0.7212
11805TIP3   OH256829   6.551   3.608   3.622  0.1922 -0.1337  0.1575
11805TIP3    H156830   6.536   3.656   3.704 -0.2472 -0.3631  0.2151
11805TIP3    H256831   6.463   3.592   3.587  0.3790  0.0452 -0.4082
11806TIP3   OH256832   4.064   1.412  14.933 -0.2246  0.0703 -0.1937
11806TIP3    H156833   4.124   1.485  14.948  0.3525 -0.3059 -0.6104
11806TIP3    H256834   4.004   1.414  15.008  0.0509  0.7087  0.0126
11807TIP3   OH256835   1.170   0.337   0.821 -0.0660 -0.4247  0.4988
11807TIP3    H156836   1.085   0.295   0.807  0.0904 -0.5550 -0.0795
11807TIP3    H256837   1.233   0.264   0.822  0.6828 -0.1120 -3.9309
11808TIP3   OH256838   0.461   5.722  13.082  0.0084  0.0108 -0.0797
11808TIP3    H156839   0.508   5.684  13.008  0.1008 -0.2308  0.1059
11808TIP3    H256840   0.467   5.817  13.067 -1.8999 -0.0359 -1.6098
11809TIP3   OH256841   1.733   3.490   0.828  0.9937 -0.4879  0.2343
11809TIP3    H156842   1.734   3.466   0.735 -2.0020  0.6363 -0.1916
11809TIP3    H256843   1.810   3.546   0.839  0.2947  1.0467 -2.1045
11810TIP3   OH256844   1.304   1.319  11.327  0.1003 -0.4133 -0.2658
11810TIP3    H156845   1.278   1.231  11.355 -1.9311 -0.0845 -0.9276
11810TIP3    H256846   1.238   1.343  11.261  0.2951  1.7996  0.2747
11811TIP3   OH256847   1.570   4.238   3.774 -0.1174 -0.0074 -0.5010
11811TIP3    H156848   1.607   4.208   3.691  0.3945  0.7629 -0.5584
11811TIP3    H256849   1.642   4.281   3.819 -0.3836 -0.4451  0.3673
11812TIP3   OH256850   2.459   5.353   4.465  0.4198 -0.0991  0.0071
11812TIP3    H156851   2.505   5.433   4.490  0.1124  0.2886 -0.6531
11812TIP3    H256852   2.368   5.381   4.451  0.2584 -0.6091  0.0356
11813TIP3   OH256853   0.489   5.111   0.663 -0.9173  0.3870  0.2171
11813TIP3    H156854   0.518   5.021   0.646 -0.6277  0.3313  0.9879
11813TIP3    H256855   0.438   5.106   0.744  0.0727  1.0952  0.9039
11814TIP3   OH256856   3.460   2.586   1.193 -0.3683  0.2349 -0.1159
11814TIP3    H156857   3.427   2.576   1.104  0.2853 -0.9037 -0.2539
11814TIP3    H256858   3.418   2.665   1.226  0.1022  1.2349 -1.7726
11815TIP3   OH256859   4.602   2.498  16.377 -0.3028 -0.0205 -0.5053
11815TIP3    H156860   4.526   2.443  16.358  0.1428 -0.8300 -0.0211
11815TIP3    H256861   4.564   2.580  16.408 -0.9857 -0.5065 -0.0049
11816TIP3   OH256862   5.792   4.391   3.917 -0.1526  0.0246 -0.0880
11816TIP3    H156863   5.817   4.367   4.006 -0.2050 -0.3972 -0.1846
11816TIP3    H256864   5.875   4.402   3.871 -0.0688 -2.4986 -0.7129
11817TIP3   OH256865   6.422   1.813   0.316  0.0226 -0.1529 -0.0125
11817TIP3    H156866   6.494   1.873   0.298  0.1028 -0.5941 -1.2221
11817TIP3    H256867   6.394   1.782   0.230 -0.4415 -1.3466  0.5517
11818TIP3   OH256868   2.761   3.435  15.980  0.4711  0.3694  0.0528
11818TIP3    H156869   2.802   3.349  15.979 -0.6724 -0.3328 -4.1522
11818TIP3    H256870   2.679   3.422  16.027  0.5166 -0.7379 -0.1443
11819TIP3   OH256871   6.707   1.057  13.146 -0.4299 -0.0240 -0.2013
11819TIP3    H156872   6.706   1.092  13.056  0.2892  0.4214 -0.0413
11819TIP3    H256873   6.652   1.118  13.196  0.1908  0.4488 -0.0842
11820TIP3   OH256874   1.462   5.736   5.581 -0.3311  0.0941 -0.7607
11820TIP3    H156875   1.380   5.744   5.629 -0.7747 -1.1652 -1.2607
11820TIP3    H256876   1.518   5.805   5.617 -1.9467  1.7101 -1.1342
11821TIP3   OH256877   0.562   4.853   3.923 -0.1259  0.1216 -0.0458
11821TIP3    H156878   0.648   4.845   3.963 -0.4844  0.6367  0.8575
11821TIP3    H256879   0.573   4.917   3.853 -0.0893  1.3135  1.0282
11822TIP3   OH256880   0.188   2.267   0.261  0.3730 -0.4075  0.0575
11822TIP3    H156881   0.151   2.179   0.264 -0.5355 -0.0166  2.1828
11822TIP3    H256882   0.115   2.322   0.231  0.2974 -0.1122  0.7648
11823TIP3   OH256883   0.652   2.790   0.881  0.1206  0.1476  0.6738
11823TIP3    H156884   0.730   2.751   0.919  1.2645  2.6251  1.0529
11823TIP3    H256885   0.603   2.825   0.956 -0.8978 -0.5323  0.3567
11824TIP3   OH256886   2.608   5.640   0.575  0.0875 -0.0021  0.7307
11824TIP3    H156887   2.543   5.577   0.608  0.4767 -1.5478 -1.2064
11824TIP3    H256888   2.691   5.608   0.610  0.2757 -0.5663 -0.1933
11825TIP3   OH256889   6.594   3.874   0.495 -0.3729  0.1901 -0.2585
11825TIP3    H156890   6.524   3.815   0.466 -0.7857  1.0059 -0.9824
11825TIP3    H256891   6.557   3.918   0.572  0.7700 -2.0661  1.7069
11826TIP3   OH256892   3.473   6.370   0.791 -0.2403  0.1032 -0.7756
11826TIP3    H156893   3.432   6.297   0.836  1.1909  0.4972  1.3048
11826TIP3    H256894   3.429   6.374   0.706 -0.3762 -3.1453 -0.9695
11827TIP3   OH256895   1.278   2.866  15.981 -0.1629 -0.4845 -0.1566
11827TIP3    H156896   1.244   2.786  16.022  1.7124 -0.3094  1.9016
11827TIP3    H256897   1.318   2.836  15.899  0.1718 -1.6096  0.4013
11828TIP3   OH256898   3.130   2.862  14.759 -0.6862  0.2440 -0.4993
11828TIP3    H156899   3.185   2.802  14.709 -1.3812 -0.6887 -0.1820
11828TIP3    H256900   3.053   2.875  14.704 -0.7046  0.5511 -0.4032
11829TIP3   OH256901   4.375   2.534   5.475 -0.0010 -0.2349  0.4153
11829TIP3    H156902   4.322   2.467   5.518 -0.0001 -0.6743 -0.2624
11829TIP3    H256903   4.323   2.560   5.399  0.0025  0.5296  0.6654
11830TIP3   OH256904   3.176   6.628   0.460 -0.0093 -0.1000 -0.0531
11830TIP3    H156905   3.143   6.695   0.520  0.6639  1.1155 -0.9791
11830TIP3    H256906   3.249   6.671   0.415  2.2160 -2.3173  1.1868
11831TIP3   OH256907   3.526   3.416  14.458  0.2139  0.3822  0.2258
11831TIP3    H156908   3.438   3.409  14.494  0.8453  1.6589  2.1474
11831TIP3    H256909   3.518   3.479  14.386 -0.5709 -0.1665 -0.1798
11832TIP3   OH256910   4.739   4.848  14.596 -0.2223 -0.3961 -0.6558
11832TIP3    H156911   4.712   4.881  14.510 -0.3025 -0.2637 -0.5806
11832TIP3    H256912   4.785   4.766  14.577 -1.3891 -1.0490 -0.7185
11833TIP3   OH256913   1.204   5.684   6.267 -0.8033 -0.4458 -0.0278
11833TIP3    H156914   1.155   5.663   6.347 -0.7573  0.8694  0.3727
11833TIP3    H256915   1.223   5.599   6.227 -1.6108 -1.0796  0.8886
11834TIP3   OH256916   6.098   0.147   6.850 -0.1899 -0.0977  0.6158
11834TIP3    H156917   6.073   0.223   6.799  0.9318 -0.1570 -0.0582
11834TIP3    H256918   6.129   0.182   6.933  0.4995  0.2012  0.2357
11835TIP3   OH256919   3.373   4.569  13.230 -0.2679 -0.2870  0.0567
11835TIP3    H156920   3.330   4.614  13.303 -1.8022 -0.0168 -0.9801
11835TIP3    H256921   3.374   4.633  13.159 -2.0406 -1.6686 -1.2896
11836TIP3   OH256922   5.621   4.938   2.403 -0.7346  0.3590 -0.6612
11836TIP3    H156923   5.533   4.902   2.407 -0.4591 -0.2315  1.5454
11836TIP3    H256924   5.632   4.966   2.312 -2.0245 -2.5064 -1.8254
11837TIP3   OH256925   6.103   1.731   3.629 -0.2540 -0.0599  0.2589
11837TIP3    H156926   6.186   1.769   3.658  0.2804 -0.9140 -0.1212
11837TIP3    H256927   6.103   1.642   3.666 -0.5300 -0.4209 -0.5948
11838TIP3   OH256928   4.829   1.694   6.169  0.3957  0.1215  0.1156
11838TIP3    H156929   4.829   1.663   6.260  0.4155 -1.8027 -0.4948
11838TIP3    H256930   4.919   1.722   6.153  1.3038 -2.6523 -0.2316
11839TIP3   OH256931   4.735   6.252  10.871  0.3032  0.1260 -0.3840
11839TIP3    H156932   4.743   6.346  10.884  0.1926  0.3096 -1.5422
11839TIP3    H256933   4.804   6.231  10.808  0.1018 -0.5079 -0.3954
11840TIP3   OH256934   3.074   5.613  15.383  0.9298 -0.1629 -0.4410
11840TIP3    H156935   3.143   5.659  15.336  0.0722 -0.1840 -1.7713
11840TIP3    H256936   3.010   5.590  15.315 -1.5572  1.8900  1.0164
11841TIP3   OH256937   4.139   0.381   2.957  0.3480  0.2003 -0.4105
11841TIP3    H156938   4.070   0.348   3.016 -0.4026 -0.0900 -1.4192
11841TIP3    H256939   4.192   0.437   3.012 -2.0567  2.3342 -0.0786
11842TIP3   OH256940   2.555   1.393   0.052  0.3238 -1.0803  0.3299
11842TIP3    H156941   2.641   1.406   0.090  0.5103 -0.2968 -0.3335
11842TIP3    H256942   2.499   1.368   0.126  0.6266  0.5663  1.1445
11843TIP3   OH256943   6.589   6.358  14.050 -0.2765 -0.2898 -0.2869
11843TIP3    H156944   6.597   6.270  14.087 -0.4994  0.1409  0.8483
11843TIP3    H256945   6.591   6.416  14.127 -1.2979  0.6192 -0.9240
11844TIP3   OH256946   1.050   3.339  11.457  0.5753 -0.8144  0.4105
11844TIP3    H156947   1.028   3.426  11.424 -0.9553 -1.3613 -0.0765
11844TIP3    H256948   1.010   3.336  11.544  0.6651 -1.0036  0.4453
11845TIP3   OH256949   0.135   6.342   2.136 -0.2255  0.1380 -0.1318
11845TIP3    H156950   0.101   6.363   2.049 -1.9427 -0.0318  0.4608
11845TIP3    H256951   0.216   6.295   2.119 -0.3056  0.4931 -1.6353
11846TIP3   OH256952   5.658   2.509   4.560 -0.4743 -0.4867  0.0155
11846TIP3    H156953   5.645   2.552   4.645 -0.0503 -0.5219  0.0977
11846TIP3    H256954   5.744   2.469   4.567  0.2712  0.8499 -1.0088
11847TIP3   OH256955   4.072   1.084  14.428 -0.0441  0.6579  0.8935
11847TIP3    H156956   4.156   1.083  14.474 -0.0158  0.4397  0.8414
11847TIP3    H256957   4.007   1.086  14.498  0.0065  1.2561  0.9280
11848TIP3   OH256958   1.456   3.834   4.655 -0.6195  0.5858  0.1295
11848TIP3    H156959   1.537   3.865   4.612 -0.4152 -0.9762 -0.7043
11848TIP3    H256960   1.392   3.831   4.584 -0.6432 -0.7820  0.1920
11849TIP3   OH256961   5.469   5.737   6.093  0.5354 -0.2932 -0.1385
11849TIP3    H156962   5.544   5.790   6.064  1.1051 -0.4332  0.9985
11849TIP3    H256963   5.495   5.647   6.074  0.1094 -0.2526 -0.9099
11850TIP3   OH256964   6.592   1.258  13.355 -0.2708 -0.0605 -0.3165
11850TIP3    H156965   6.624   1.249  13.445 -2.8049 -0.2452  0.6274
11850TIP3    H256966   6.575   1.351  13.345  1.6123  0.2426 -1.2699
11851TIP3   OH256967   0.464   3.999  16.807 -0.6144 -0.2489 -0.0220
11851TIP3    H156968   0.510   4.052  16.742 -1.4881  0.1456 -0.3338
11851TIP3    H256969   0.446   3.916  16.763  1.6739 -1.2784  0.7941
11852TIP3   OH256970   6.516   3.816  14.721 -0.0082  0.5018  0.7365
11852TIP3    H156971   6.505   3.884  14.788 -1.2010  1.9549 -0.8124
11852TIP3    H256972   6.449   3.751  14.741 -0.6826  1.1695  0.7284
11853TIP3   OH256973   3.425   3.323   5.310 -0.1087  0.2325 -0.2170
11853TIP3    H156974   3.387   3.280   5.233  1.6006 -0.3860 -0.7731
11853TIP3    H256975   3.509   3.357   5.279  0.5099  0.1857  1.3224
11854TIP3   OH256976   5.703   5.261  14.180  0.5681  0.4444 -0.4351
11854TIP3    H156977   5.674   5.245  14.090  2.7357  1.4099 -1.3962
11854TIP3    H256978   5.796   5.238  14.179  0.7891  1.0868  1.4060
11855TIP3   OH256979   2.690   1.954  11.451 -0.3255  0.3290 -0.3617
11855TIP3    H156980   2.702   2.047  11.435 -0.1302  0.0533 -1.9887
11855TIP3    H256981   2.757   1.911  11.398  0.6629 -0.7194  1.5846
11856TIP3   OH256982   2.085   6.182  11.965 -0.1030 -0.3330 -0.2647
11856TIP3    H156983   2.054   6.128  12.037  0.5359 -1.6193 -0.9193
11856TIP3    H256984   2.179   6.192  11.982 -0.4987  2.2443  0.8860
11857TIP3   OH256985   3.865   1.017   0.613  0.2835  0.5739  0.4472
11857TIP3    H156986   3.789   1.009   0.554  0.0486  1.5168  0.6057
11857TIP3    H256987   3.941   1.015   0.554  0.0483  1.5579  0.0931
11858TIP3   OH256988   1.644   5.815  14.977  0.3042  0.1423 -0.2729
11858TIP3    H156989   1.590   5.826  15.055  0.7970  0.9915 -0.0257
11858TIP3    H256990   1.594   5.757  14.920 -0.9859  1.0831 -0.1538
11859TIP3   OH256991   1.831   5.016   5.549 -0.5295  0.2192  0.0949
11859TIP3    H156992   1.776   5.061   5.613  0.4782  0.0104  1.1263
11859TIP3    H256993   1.871   5.086   5.498  0.5529  0.5110  1.2945
11860TIP3   OH256994   3.457   0.698   6.298  0.1458  0.3796  0.0567
11860TIP3    H156995   3.385   0.638   6.275 -0.3627  1.5795 -1.7266
11860TIP3    H256996   3.421   0.754   6.366  0.0857 -0.2785  0.5839
11861TIP3   OH256997   0.883   4.078  14.535  0.5364 -0.0066  0.2216
11861TIP3    H156998   0.815   4.102  14.598  1.3714 -1.4474  1.7295
11861TIP3    H256999   0.961   4.124  14.565  0.8355 -0.3523 -0.0177
11862TIP3   OH257000   1.701   1.157   3.994  0.7873 -0.6872 -0.2645
11862TIP3    H157001   1.612   1.163   3.959  0.8933  0.7547 -0.3741
11862TIP3    H257002   1.732   1.248   3.996  1.9341 -1.0658  0.6112
11863TIP3   OH257003   2.663   0.411   3.630 -0.6697 -0.2396 -0.1824
11863TIP3    H157004   2.645   0.356   3.705  1.7567 -0.6667  0.1441
11863TIP3    H257005   2.686   0.496   3.667  0.4880 -0.4382 -0.4291
11864TIP3   OH257006   3.762   1.993   1.950 -0.1427  0.0158 -0.5629
11864TIP3    H157007   3.712   1.962   2.025 -0.7901  1.0323 -0.5563
11864TIP3    H257008   3.698   2.039   1.895 -0.3577 -3.1767 -3.2747
11865TIP3   OH257009   0.925   2.086  16.409 -0.1342 -0.0992 -0.0362
11865TIP3    H157010   0.837   2.073  16.445  0.0360  0.5890  0.6593
11865TIP3    H257011   0.981   2.029  16.461 -0.1403 -0.4188 -0.3753
11866TIP3   OH257012   3.138   6.486   6.226  0.0542 -0.3705  0.2655
11866TIP3    H157013   3.140   6.555   6.160 -0.1343  0.2207  0.8768
11866TIP3    H257014   3.230   6.468   6.244  0.1033 -0.2628  0.1244
11867TIP3   OH257015   1.093   3.156  16.981  0.0137  0.3384  0.1422
11867TIP3    H157016   1.110   3.062  16.969 -0.2966  0.4859 -1.6858
11867TIP3    H257017   1.170   3.189  17.027  0.5799 -0.6334 -0.0889
11868TIP3   OH257018   0.776   5.066  12.592  0.6856  0.4662 -0.4858
11868TIP3    H157019   0.776   5.151  12.635 -0.8223  0.1303  0.2434
11868TIP3    H257020   0.755   5.085  12.500 -0.1411  0.8433 -0.2254
11869TIP3   OH257021   2.350   0.781   6.450  0.2118 -0.2717 -0.1913
11869TIP3    H157022   2.400   0.719   6.503  1.0356 -0.1771 -0.8430
11869TIP3    H257023   2.407   0.801   6.376 -0.8997 -0.3626 -1.0940
11870TIP3   OH257024   6.469   1.170  15.928  0.0522  0.2887  0.2048
11870TIP3    H157025   6.378   1.186  15.953 -0.0395  0.0292  0.0397
11870TIP3    H257026   6.476   1.075  15.923  0.2112  0.3194 -0.2347
11871TIP3   OH257027   5.331   4.687  13.995 -0.3270 -0.1979  0.3302
11871TIP3    H157028   5.332   4.680  13.900 -1.2144 -3.0681  0.4463
11871TIP3    H257029   5.423   4.679  14.021  0.0688  1.7820 -0.2578
11872TIP3   OH257030   4.739   0.555  17.229  0.4165 -0.2283  0.3694
11872TIP3    H157031   4.826   0.530  17.258  0.3358  0.1498  0.9489
11872TIP3    H257032   4.753   0.629  17.169  0.3483  1.9611  2.8600
11873TIP3   OH257033   1.993   2.419  12.621  0.1858 -0.2805  0.0409
11873TIP3    H157034   2.060   2.389  12.683 -0.2274  1.0533  1.1917
11873TIP3    H257035   1.936   2.476  12.673 -0.4545  0.5274 -1.4695
11874TIP3   OH257036   5.961   3.915   5.105 -0.0766  0.2507 -0.2102
11874TIP3    H157037   6.055   3.909   5.125  0.0778 -0.6612 -1.1297
11874TIP3    H257038   5.953   3.995   5.052  0.2080  0.2382 -0.2754
11875TIP3   OH257039   3.720   4.282  11.308  1.1089  0.1595 -0.2810
11875TIP3    H157040   3.768   4.244  11.234  1.8594  2.6498 -1.2116
11875TIP3    H257041   3.629   4.283  11.279  1.3865  1.0264 -1.1899
11876TIP3   OH257042   5.880   1.739  11.770  0.1972 -0.6467 -0.4172
11876TIP3    H157043   5.890   1.739  11.674 -0.8998 -1.4659 -0.5552
11876TIP3    H257044   5.811   1.803  11.787  0.3970 -0.4965 -0.1755
11877TIP3   OH257045   6.614   5.920   3.933  0.4743 -0.5084  0.4850
11877TIP3    H157046   6.592   5.976   3.858  2.6337  0.4791  0.5174
11877TIP3    H257047   6.589   5.832   3.905 -1.3344  0.1859 -0.2699
11878TIP3   OH257048   6.586   1.558  15.987  0.0401 -0.0231 -0.2915
11878TIP3    H157049   6.622   1.509  15.913  0.0298 -1.0270  0.3598
11878TIP3    H257050   6.492   1.541  15.985 -0.0052  0.2139 -0.2388
11879TIP3   OH257051   6.032   2.654  15.460 -0.3510  0.5125  0.0735
11879TIP3    H157052   5.986   2.602  15.525  2.3777  0.3604  2.0529
11879TIP3    H257053   6.029   2.602  15.380 -2.8107  0.1846  0.3020
11880TIP3   OH257054   1.589   6.274  12.121  0.4313 -0.2134  0.2219
11880TIP3    H157055   1.617   6.311  12.037  1.0778  1.6870  1.2238
11880TIP3    H257056   1.493   6.271  12.116  0.2987  2.2664  0.3090
11881TIP3   OH257057   5.834   2.258  15.685  0.2214 -0.3886 -0.0135
11881TIP3    H157058   5.816   2.179  15.634  0.1473 -0.2008 -0.2799
11881TIP3    H257059   5.874   2.319  15.622 -0.5710  0.1237 -0.0416
11882TIP3   OH257060   1.399   0.633  15.989 -0.3374  0.1689 -0.0718
11882TIP3    H157061   1.386   0.692  15.915  1.3426 -0.5122 -0.9662
11882TIP3    H257062   1.350   0.554  15.967  0.8746 -0.3729 -0.9101
11883TIP3   OH257063   3.556   2.418  12.143 -0.8430 -0.1639 -0.2978
11883TIP3    H157064   3.593   2.351  12.086  2.2224  1.7361 -0.8011
11883TIP3    H257065   3.485   2.456  12.091 -1.3007 -1.6412 -0.8044
11884TIP3   OH257066   1.809   4.105   5.542 -0.2267 -0.5100 -0.1121
11884TIP3    H157067   1.839   4.061   5.462 -1.8983 -0.8461 -0.5883
11884TIP3    H257068   1.825   4.198   5.526 -0.5043 -0.5783 -0.8260
11885TIP3   OH257069   2.457   4.244  14.212 -0.2126 -0.1820  0.7429
11885TIP3    H157070   2.437   4.151  14.199 -0.9541  0.1623 -0.8289
11885TIP3    H257071   2.479   4.251  14.305  0.9203 -2.1142  0.6837
11886TIP3   OH257072   1.551   2.303   4.145  0.1883 -0.1854  0.6203
11886TIP3    H157073   1.632   2.287   4.095  1.0157 -1.4419  2.2703
11886TIP3    H257074   1.499   2.223   4.132 -0.5723  0.3873  0.0299
11887TIP3   OH257075   3.388   3.550  15.680 -0.5644 -0.2551  0.5264
11887TIP3    H157076   3.349   3.463  15.679 -0.7955 -0.1813  1.6354
11887TIP3    H257077   3.369   3.584  15.768 -0.1150  0.7464  0.2540
11888TIP3   OH257078   5.694   6.273   0.700 -0.0985 -0.0817  0.0483
11888TIP3    H157079   5.667   6.330   0.628  1.5465 -0.1753 -0.6766
11888TIP3    H257080   5.731   6.196   0.658 -0.4078 -0.7748  1.0082
11889TIP3   OH257081   4.047   3.503  11.995  0.1182  0.2233  0.6184
11889TIP3    H157082   3.996   3.560  11.937  0.3809  0.0690  0.2287
11889TIP3    H257083   4.033   3.415  11.961  0.5252  0.1642  0.5915
11890TIP3   OH257084   0.816   4.414  14.320 -0.4474  0.0162 -0.8929
11890TIP3    H157085   0.888   4.393  14.261 -0.2429 -0.9931 -0.3081
11890TIP3    H257086   0.737   4.392  14.270 -0.3684  1.0612 -1.5079
11891TIP3   OH257087   0.267   5.083   4.914 -0.7391  0.6743 -0.7795
11891TIP3    H157088   0.201   5.015   4.927 -2.4940  1.9337 -2.4686
11891TIP3    H257089   0.221   5.165   4.931  0.8907  1.5368 -0.3239
11892TIP3   OH257090   2.452   1.577   5.546  0.4041 -0.1092  0.5252
11892TIP3    H157091   2.451   1.572   5.642 -0.2121  1.0461  0.5987
11892TIP3    H257092   2.462   1.671   5.527 -0.2459 -0.2397 -0.5307
11893TIP3   OH257093   1.516   4.075   0.368 -0.1140  0.2357  0.6583
11893TIP3    H157094   1.463   4.110   0.440  1.5158  0.2977  1.8763
11893TIP3    H257095   1.520   3.981   0.386  0.9501  0.3579  1.1204
11894TIP3   OH257096   1.973   4.565  13.890 -0.4180  0.0335 -0.2269
11894TIP3    H157097   2.000   4.625  13.960  0.7080 -0.9531  0.2163
11894TIP3    H257098   1.892   4.604  13.856 -0.7964  0.7460  1.3650
11895TIP3   OH257099   4.754   2.123  12.426 -0.3008 -0.3574  0.0494
11895TIP3    H157100   4.731   2.140  12.334  0.2467 -0.4024 -0.1040
11895TIP3    H257101   4.832   2.177  12.441 -1.5675  1.2619  1.1158
11896TIP3   OH257102   5.439   1.608   0.909  0.2448 -0.3724 -0.4522
11896TIP3    H157103   5.432   1.653   0.993 -0.8084 -0.8432 -0.2675
11896TIP3    H257104   5.349   1.603   0.876  0.5232 -1.0261 -1.1623
11897TIP3   OH257105   4.786   6.037  13.286 -0.3271  0.1323  0.0031
11897TIP3    H157106   4.761   6.061  13.375  0.3070 -0.9305  0.4947
11897TIP3    H257107   4.810   5.944  13.292 -0.6133 -0.0483 -1.3516
11898TIP3   OH257108   5.236   1.534   4.868  0.4141 -0.5876 -0.2276
11898TIP3    H157109   5.300   1.597   4.901 -0.7539 -0.1533  1.3222
11898TIP3    H257110   5.247   1.537   4.773  1.5201  0.7311 -0.0920
11899TIP3   OH257111   4.010   4.440  13.926  0.3413  0.3265  0.0666
11899TIP3    H157112   4.075   4.477  13.866  0.8886  1.2469  1.2035
11899TIP3    H257113   3.934   4.423  13.870  0.9872  0.7474 -0.9772
11900TIP3   OH257114   2.379   0.595   0.063  0.3556 -0.4372  0.2643
11900TIP3    H157115   2.301   0.543   0.044 -0.4189  0.5298  0.7227
11900TIP3    H257116   2.347   0.667   0.117  0.9012  1.9645 -2.4027
11901TIP3   OH257117   5.172   1.173   1.428  0.1970 -0.2284  0.8621
11901TIP3    H157118   5.192   1.085   1.461  3.7749 -0.0051 -0.2374
11901TIP3    H257119   5.257   1.207   1.398 -1.0080  3.6705  1.3266
11902TIP3   OH257120   4.114   3.200   0.723 -0.7558  0.3589 -0.0573
11902TIP3    H157121   4.125   3.122   0.669  1.1734  0.4901  0.0824
11902TIP3    H257122   4.022   3.198   0.750 -1.0095 -1.2696 -0.9469
11903TIP3   OH257123   6.421   2.194  12.626 -0.0800  0.0739 -0.1317
11903TIP3    H157124   6.516   2.200  12.615  0.1809 -3.4933 -0.8242
11903TIP3    H257125   6.408   2.179  12.720  0.1417 -0.5165 -0.1932
11904TIP3   OH257126   5.643   5.751  16.230  0.0888 -0.1834  0.1719
11904TIP3    H157127   5.621   5.721  16.318 -0.4938  0.0181  0.1008
11904TIP3    H257128   5.709   5.688  16.199  2.5148  1.3841  1.7992
11905TIP3   OH257129   2.776   5.332   1.127 -0.5835 -0.4493  0.3273
11905TIP3    H157130   2.749   5.350   1.037  0.8260 -1.5928 -0.3722
11905TIP3    H257131   2.818   5.412   1.156  0.3945 -0.5904 -0.6329
11906TIP3   OH257132   0.353   6.316   5.095 -0.8294  0.5478  0.7896
11906TIP3    H157133   0.417   6.245   5.096 -0.4442  0.8650  2.8092
11906TIP3    H257134   0.293   6.293   5.024  1.8800  0.6441 -1.7162
11907TIP3   OH257135   3.150   4.259   4.230  0.1231 -0.4886  0.6541
11907TIP3    H157136   3.130   4.166   4.222 -0.1873 -0.3061 -1.3317
11907TIP3    H257137   3.123   4.283   4.318 -1.6746 -1.8475  0.5238
11908TIP3   OH257138   2.286   6.294   5.175  0.0399  0.7691 -0.1426
11908TIP3    H157139   2.296   6.332   5.263 -0.3644  0.6441 -0.0436
11908TIP3    H257140   2.223   6.223   5.186 -0.4340  1.1028 -0.6391
11909TIP3   OH257141   1.235   4.081   5.322  0.2528  0.1610  0.0952
11909TIP3    H157142   1.289   4.077   5.243  0.6500 -1.8804  0.3947
11909TIP3    H257143   1.145   4.078   5.290  0.3783  0.6557 -0.3106
11910TIP3   OH257144   4.982   1.328   2.369  0.1593  0.0548 -0.5571
11910TIP3    H157145   5.073   1.350   2.387 -0.1081  0.8429 -0.1335
11910TIP3    H257146   4.986   1.241   2.328  0.9445 -0.7783  1.2145
11911TIP3   OH257147   4.502   3.028  12.509 -0.6761  0.3903  0.2258
11911TIP3    H157148   4.549   3.042  12.427 -0.0575  0.2667  0.5510
11911TIP3    H257149   4.428   2.973  12.485 -0.1046 -0.2436 -0.1461
11912TIP3   OH257150   5.081   4.846   5.345 -0.6044 -0.1090  0.2889
11912TIP3    H157151   5.035   4.927   5.324  0.8919 -0.0506 -3.5893
11912TIP3    H257152   5.170   4.873   5.366 -0.4953 -0.6291  0.5248
11913TIP3   OH257153   6.288   1.960  13.880 -0.1853  0.3980  0.0039
11913TIP3    H157154   6.236   2.005  13.813 -0.9583 -0.4356  0.0157
11913TIP3    H257155   6.375   1.952  13.841 -0.2232  1.2595 -0.2767
11914TIP3   OH257156   2.326   6.575  16.525  0.4204 -0.3595 -0.4189
11914TIP3    H157157   2.374   6.592  16.444 -0.2333 -0.2282 -0.7812
11914TIP3    H257158   2.386   6.603  16.595  0.8242 -0.0869 -0.8709
11915TIP3   OH257159   4.318   1.155   2.246 -0.3878  0.3655  0.5977
11915TIP3    H157160   4.306   1.101   2.324 -3.8976 -2.0790 -1.3517
11915TIP3    H257161   4.327   1.093   2.174 -2.7847  2.2968 -1.5665
11916TIP3   OH257162   3.505   2.484  15.294 -0.4669 -0.4526  0.7628
11916TIP3    H157163   3.445   2.415  15.323 -0.2336 -1.1972 -0.4734
11916TIP3    H257164   3.448   2.552  15.259 -0.6468 -0.4832  0.9909
11917TIP3   OH257165   3.305   1.738   4.466  0.4393 -0.3737  0.8337
11917TIP3    H157166   3.235   1.800   4.485  0.5189  0.7075 -1.8833
11917TIP3    H257167   3.262   1.653   4.462 -1.1341  0.4221 -2.1662
11918TIP3   OH257168   0.811   0.855   4.798  0.0507  0.3083  0.3449
11918TIP3    H157169   0.898   0.837   4.833  0.3040  2.2686  0.8640
11918TIP3    H257170   0.823   0.854   4.703 -0.5806 -4.7541  0.0355
11919TIP3   OH257171   5.112   3.232   0.168  0.1032 -0.0149 -0.0133
11919TIP3    H157172   5.112   3.326   0.153  2.0602 -0.1578 -1.2504
11919TIP3    H257173   5.177   3.197   0.107 -1.5003 -2.3557 -0.5449
11920TIP3   OH257174   1.211   5.903   3.322 -0.5594  0.1079  0.3862
11920TIP3    H157175   1.276   5.847   3.280  0.9421  2.7263 -1.1136
11920TIP3    H257176   1.261   5.952   3.387 -2.1669 -1.3480  2.8567
11921TIP3   OH257177   6.568   1.629  16.262 -0.3929  0.4459  0.1841
11921TIP3    H157178   6.591   1.607  16.171  0.8830 -0.1792  0.6392
11921TIP3    H257179   6.556   1.724  16.261 -3.2941  0.1774 -1.2340
11922TIP3   OH257180   5.346   1.912  15.830  0.6787  0.0259  0.2921
11922TIP3    H157181   5.414   1.968  15.793  1.7639 -0.7954  0.9416
11922TIP3    H257182   5.341   1.838  15.769 -0.6721  0.7321 -0.5082
11923TIP3   OH257183   3.294   3.922  13.092  0.7114  0.7796 -0.2259
11923TIP3    H157184   3.303   3.887  13.181 -2.8922  0.2194  0.0899
11923TIP3    H257185   3.345   3.862  13.037  0.7654 -0.5276  1.1853
11924TIP3   OH257186   0.710   1.368  12.176 -0.3014  0.4696 -0.2229
11924TIP3    H157187   0.744   1.331  12.257 -2.6489 -2.0967 -0.2908
11924TIP3    H257188   0.782   1.357  12.113 -0.1359 -2.1579  0.3151
11925TIP3   OH257189   4.088   6.727  12.253  0.5600 -0.3681  0.2990
11925TIP3    H157190   4.140   6.745  12.331  0.8662  0.4898 -0.0832
11925TIP3    H257191   4.143   6.671  12.199 -0.6089 -3.0886  1.7358
11926TIP3   OH257192   0.932   4.319   3.699  0.5307  0.1621  0.2175
11926TIP3    H157193   0.869   4.351   3.634  0.4386 -0.8729 -0.2240
11926TIP3    H257194   0.885   4.323   3.782  0.1679  0.1582  0.0121
11927TIP3   OH257195   3.423   0.828   3.775 -0.0727  0.2790  0.0026
11927TIP3    H157196   3.385   0.893   3.715  2.2927 -0.3236 -2.3529
11927TIP3    H257197   3.448   0.879   3.852 -0.5498  1.6940 -0.7359
11928TIP3   OH257198   5.947   5.558  15.056 -0.6380  0.0472 -0.1080
11928TIP3    H157199   6.041   5.572  15.063 -0.4428 -0.8174 -0.7661
11928TIP3    H257200   5.912   5.640  15.022 -0.1488  0.4386  0.3410
11929TIP3   OH257201   2.399   6.131  14.614 -0.7424  0.2637 -0.6525
11929TIP3    H157202   2.419   6.140  14.707 -1.8927  0.8441 -0.4330
11929TIP3    H257203   2.420   6.040  14.593  0.5024  0.4032 -0.0887
11930TIP3   OH257204   5.486   5.508   3.760  0.5271 -0.1014  0.1632
11930TIP3    H157205   5.514   5.573   3.695  0.5645  0.5388  0.8097
11930TIP3    H257206   5.464   5.560   3.837  2.0569 -0.9750  1.2297
11931TIP3   OH257207   6.251   5.237  15.673 -0.0354 -0.1660  0.8986
11931TIP3    H157208   6.216   5.304  15.731 -0.0983 -1.4863  2.4639
11931TIP3    H257209   6.269   5.163  15.730  0.2153 -1.4328 -0.7369
11932TIP3   OH257210   1.009   5.062  16.545  0.2793  0.3318  0.6536
11932TIP3    H157211   0.999   5.147  16.587 -2.4946  0.7429 -0.6261
11932TIP3    H257212   0.922   5.023  16.545  0.6947 -0.8971 -2.0195
11933TIP3   OH257213   4.121   1.496  13.220 -0.2419 -0.4711  0.5513
11933TIP3    H157214   4.143   1.468  13.131  1.2972  2.1453  0.0266
11933TIP3    H257215   4.172   1.438  13.277  0.6905 -0.5642 -0.3627
11934TIP3   OH257216   3.232   3.470  17.258 -0.3004 -0.0269  0.1001
11934TIP3    H157217   3.294   3.405  17.289 -1.2231 -1.3246 -0.6899
11934TIP3    H257218   3.158   3.420  17.224 -0.6972  1.3955 -1.2913
11935TIP3   OH257219   6.378   0.473   6.479  0.1789  0.5097 -0.1854
11935TIP3    H157220   6.434   0.396   6.488 -0.2198  0.2941  0.5390
11935TIP3    H257221   6.325   0.474   6.559 -1.0817  0.5149 -0.9813
11936TIP3   OH257222   2.413   6.099   5.902 -0.2981 -0.1870 -0.0172
11936TIP3    H157223   2.328   6.055   5.895 -0.9769  0.9356  0.8464
11936TIP3    H257224   2.477   6.032   5.877 -1.4504 -0.9608 -0.9947
11937TIP3   OH257225   4.398   2.615   4.517 -0.1951  0.3355 -0.2325
11937TIP3    H157226   4.416   2.600   4.424 -0.5630 -0.6439 -0.1577
11937TIP3    H257227   4.419   2.707   4.531 -0.2846  0.5367 -1.3248
11938TIP3   OH257228   2.094   1.704  16.025 -0.3943  0.4674 -0.1560
11938TIP3    H157229   2.017   1.747  16.064  0.7889  0.9321  1.8410
11938TIP3    H257230   2.067   1.613  16.014 -0.5473  0.0533  2.8041
11939TIP3   OH257231   3.316   4.822  14.855  0.0940  0.3085 -0.1159
11939TIP3    H157232   3.390   4.878  14.879 -0.0964  1.7004 -2.5509
11939TIP3    H257233   3.240   4.865  14.894  0.3078 -0.0859  0.7703
11940TIP3   OH257234   1.160   5.342  13.547  0.0180  1.0016  0.1568
11940TIP3    H157235   1.145   5.410  13.613 -0.9328  0.5261  0.4501
11940TIP3    H257236   1.170   5.261  13.598 -1.1163  0.5685 -0.2922
11941TIP3   OH257237   5.519   6.469  12.667 -0.0255  0.1237 -0.1158
11941TIP3    H157238   5.556   6.544  12.712 -0.9636  0.0666  0.7983
11941TIP3    H257239   5.564   6.466  12.582 -0.8976  2.5253 -0.7363
11942TIP3   OH257240   3.946   0.195   0.259  1.1743  0.0556 -0.1804
11942TIP3    H157241   3.998   0.117   0.277  1.0917  0.2289  0.8561
11942TIP3    H257242   3.949   0.246   0.341  1.2879  1.1720 -0.8496
11943TIP3   OH257243   5.873   2.737  10.796  0.3027  0.7304  0.0160
11943TIP3    H157244   5.803   2.739  10.861  0.9306  0.6714  0.6962
11943TIP3    H257245   5.903   2.827  10.790 -0.4437  0.9434 -0.9739
11944TIP3   OH257246   2.151   2.587   3.100 -0.1738 -0.0681 -0.8519
11944TIP3    H157247   2.214   2.638   3.150 -0.8652  0.2163 -0.2582
11944TIP3    H257248   2.180   2.596   3.009 -0.6211  1.8989 -0.8354
11945TIP3   OH257249   2.108   2.222  15.266 -0.2270 -0.3341 -0.3389
11945TIP3    H157250   2.172   2.237  15.196 -2.2743  1.4639 -1.9688
11945TIP3    H257251   2.067   2.139  15.244  2.0384 -2.0037  1.2480
11946TIP3   OH257252   4.487   3.642  15.162 -0.2093 -0.2183 -0.2539
11946TIP3    H157253   4.433   3.588  15.104  1.3565 -1.2710 -0.7837
11946TIP3    H257254   4.510   3.583  15.234  0.9885 -0.0862 -0.5157
11947TIP3   OH257255   5.039   1.457  12.433 -0.0042  0.6851  0.5674
11947TIP3    H157256   5.079   1.438  12.348 -0.2826  0.0895  0.5644
11947TIP3    H257257   5.070   1.388  12.491  0.1604  1.0736  0.9482
11948TIP3   OH257258   0.060   3.762   5.276 -0.6580  0.6306  0.0412
11948TIP3    H157259  -0.021   3.770   5.226 -0.2157 -0.4988 -0.9058
11948TIP3    H257260   0.040   3.698   5.344 -0.8544  1.1448  0.4789
11949TIP3   OH257261   2.861   3.208   4.418  0.0606  0.3182 -0.1300
11949TIP3    H157262   2.922   3.208   4.344  0.6386  1.0467  0.3339
11949TIP3    H257263   2.917   3.209   4.495 -0.5449 -0.0580  0.3264
11950TIP3   OH257264   3.811   0.253   4.554 -0.2695  0.6146  0.1624
11950TIP3    H157265   3.872   0.322   4.527  0.7071 -0.2566  0.0850
11950TIP3    H257266   3.762   0.292   4.626  0.7898  1.1608  0.6168
11951TIP3   OH257267   6.001   4.373  13.376 -0.0513  0.1458  0.2160
11951TIP3    H157268   6.045   4.394  13.293  0.1107 -1.9777 -0.2961
11951TIP3    H257269   5.922   4.326  13.350 -1.0227  1.1537  1.2445
11952TIP3   OH257270   3.027   6.660   3.505  0.9841  0.2043 -0.3457
11952TIP3    H157271   3.050   6.614   3.586  1.0164 -2.0635 -1.5554
11952TIP3    H257272   2.945   6.705   3.525  2.2767  1.8207  1.6591
11953TIP3   OH257273   6.472   0.328   3.580 -0.1095 -0.0227 -0.9796
11953TIP3    H157274   6.468   0.404   3.521 -1.5719  0.2584 -0.5580
11953TIP3    H257275   6.510   0.363   3.661  3.0014 -0.6539 -2.0242
11954TIP3   OH257276   1.648   3.357  15.031  0.1002  0.1730 -0.3332
11954TIP3    H157277   1.666   3.264  15.016 -1.5285 -0.6117  1.9942
11954TIP3    H257278   1.722   3.388  15.082 -0.4139 -0.4673  0.8272
11955TIP3   OH257279   2.961   3.185  13.579  0.0699 -0.3835  0.4289
11955TIP3    H157280   2.883   3.219  13.534 -0.8101 -1.0691  1.3887
11955TIP3    H257281   3.016   3.263  13.593 -0.3096  0.0651 -0.5105
11956TIP3   OH257282   4.309   6.630   0.497  0.2808  0.0369 -0.2682
11956TIP3    H157283   4.217   6.632   0.470  0.7735  1.2875 -2.0462
11956TIP3    H257284   4.324   6.715   0.538  0.9152  0.3306 -1.0756
11957TIP3   OH257285   3.260   0.657   4.544 -0.4083  0.1322  0.1118
11957TIP3    H157286   3.218   0.627   4.625 -0.2299 -0.1910  0.0853
11957TIP3    H257287   3.352   0.665   4.567 -0.6504  2.1737  0.5664
11958TIP3   OH257288   4.885   2.987  13.671  0.5647 -0.0540  0.5341
11958TIP3    H157289   4.964   2.984  13.617  0.5646  0.4462  0.5001
11958TIP3    H257290   4.870   3.081  13.686 -0.6703 -0.0900 -0.3899
11959TIP3   OH257291   6.191   1.466  17.041 -0.0167  0.2222 -0.0527
11959TIP3    H157292   6.184   1.555  17.074 -2.4193  0.1947 -0.2943
11959TIP3    H257293   6.111   1.452  16.991  0.4537 -1.9608 -0.3247
11960TIP3   OH257294   5.233   3.427  13.245 -0.0262 -0.1226  0.6411
11960TIP3    H157295   5.139   3.412  13.260 -0.4381 -0.8628 -2.1507
11960TIP3    H257296   5.236   3.486  13.170  1.7627 -0.6012  0.2956
11961TIP3   OH257297   6.044   6.191   2.908  0.2422  0.0195 -0.4309
11961TIP3    H157298   6.056   6.187   3.003 -0.8621  0.5290 -0.2552
11961TIP3    H257299   6.102   6.262   2.879  0.4433 -0.0169 -0.1203
11962TIP3   OH257300   1.876   1.519  11.977  0.1986 -0.1081 -0.0730
11962TIP3    H157301   1.937   1.523  11.903  1.3966 -1.2312  0.8179
11962TIP3    H257302   1.860   1.426  11.991 -0.9773  0.1347  0.3334
11963TIP3   OH257303   5.117   4.274  14.713  0.7030 -0.4787 -0.0325
11963TIP3    H157304   5.168   4.355  14.721 -0.4691  0.2018  0.8638
11963TIP3    H257305   5.123   4.250  14.621  1.3461  0.4412 -0.2402
11964TIP3   OH257306   4.009   6.362  14.953  0.6709 -0.4276 -0.3901
11964TIP3    H157307   3.915   6.359  14.934 -0.3624  0.6801  3.6005
11964TIP3    H257308   4.039   6.442  14.910  0.0685 -1.2409 -2.4371
11965TIP3   OH257309   2.797   1.413   0.668  0.0813  0.2826 -0.5129
11965TIP3    H157310   2.750   1.496   0.659  1.9947  1.3722 -0.9295
11965TIP3    H257311   2.756   1.371   0.744 -2.6388  0.3709 -1.8202
11966TIP3   OH257312   5.868   3.796   2.545  0.2312 -0.4051 -0.7703
11966TIP3    H157313   5.910   3.838   2.621 -0.6239 -2.5072  0.9616
11966TIP3    H257314   5.775   3.814   2.556  0.0705 -0.9781 -1.1876
11967TIP3   OH257315   6.660   0.925   3.727 -0.5578  0.0131  0.8167
11967TIP3    H157316   6.739   0.976   3.712 -0.7066  0.0786  0.2184
11967TIP3    H257317   6.611   0.975   3.792  0.0374 -0.2001  1.4469
11968TIP3   OH257318   4.915   4.902  14.054 -0.6659 -0.1121  0.3064
11968TIP3    H157319   4.875   4.902  13.967 -1.6067  0.1630  0.7239
11968TIP3    H257320   4.980   4.832  14.050  0.1734  0.7034 -0.9856
11969TIP3   OH257321   1.002   1.914  17.122 -0.0162 -0.8321 -0.2630
11969TIP3    H157322   0.926   1.944  17.072 -0.0731 -1.6061 -0.6515
11969TIP3    H257323   0.967   1.895  17.209 -0.1763 -0.7747 -0.3136
11970TIP3   OH257324   6.430   5.521  16.076  0.4460  0.1087  0.3314
11970TIP3    H157325   6.348   5.560  16.048  0.2867 -1.1581 -1.1595
11970TIP3    H257326   6.408   5.469  16.153 -0.4728 -1.2331 -0.7808
11971TIP3   OH257327   3.668   5.254   4.032 -0.0726  0.3936  0.0721
11971TIP3    H157328   3.717   5.284   3.956 -1.3621 -2.6907 -2.1771
11971TIP3    H257329   3.596   5.317   4.041  1.5183  2.2719  0.5164
11972TIP3   OH257330   3.362   1.883  15.298 -0.0790  0.1935 -0.4111
11972TIP3    H157331   3.288   1.942  15.310 -0.9855 -0.9749 -0.0066
11972TIP3    H257332   3.439   1.935  15.318 -1.0157  0.3501  3.4018
11973TIP3   OH257333   5.782   0.747  11.634 -0.5444 -0.5672 -0.3441
11973TIP3    H157334   5.874   0.726  11.652 -0.0140 -1.0041 -3.0996
11973TIP3    H257335   5.784   0.794  11.551 -2.7424  0.6443  0.2159
11974TIP3   OH257336   0.270   6.042   4.175 -0.6969 -0.2225 -0.0958
11974TIP3    H157337   0.222   5.962   4.194 -1.3353  0.4895  1.5308
11974TIP3    H257338   0.249   6.063   4.084 -1.6397 -1.1453 -0.0972
11975TIP3   OH257339   0.440   2.606  11.501  0.5676  0.2023  0.2024
11975TIP3    H157340   0.346   2.592  11.497  0.7187 -0.8124 -0.3417
11975TIP3    H257341   0.467   2.611  11.409  1.2282 -1.0618  0.2931
11976TIP3   OH257342   0.786   3.762  14.168  0.5312  0.1306 -0.5115
11976TIP3    H157343   0.854   3.795  14.228  0.8889 -1.0273 -0.2579
11976TIP3    H257344   0.828   3.761  14.082  0.9637 -0.9202 -0.2967
11977TIP3   OH257345   5.957   2.539  15.199  0.3128  0.0408  0.1630
11977TIP3    H157346   5.942   2.602  15.129 -0.6673 -0.1687  0.1599
11977TIP3    H257347   5.984   2.459  15.154 -1.8759 -0.5859 -0.1544
11978TIP3   OH257348   4.187   2.637  12.424 -0.3659 -0.1001  0.3400
11978TIP3    H157349   4.157   2.548  12.404  0.6978 -0.4967  0.4031
11978TIP3    H257350   4.201   2.636  12.519 -1.3426  0.4604  0.4943
11979TIP3   OH257351   5.107   5.297  10.605 -0.6031 -0.4039 -0.6576
11979TIP3    H157352   5.039   5.237  10.573 -0.1343 -0.6023 -1.3133
11979TIP3    H257353   5.184   5.242  10.617 -1.0902 -0.6288  2.2012
11980TIP3   OH257354   4.493   0.167  16.417 -0.5231  0.2968  0.0182
11980TIP3    H157355   4.405   0.131  16.406 -0.8126  1.0823 -0.2816
11980TIP3    H257356   4.482   0.237  16.482  0.2027 -0.7430  1.3075
11981TIP3   OH257357   6.437   4.367  16.676  0.5370 -0.8765 -0.2964
11981TIP3    H157358   6.444   4.275  16.651 -0.1310 -0.1457 -3.6934
11981TIP3    H257359   6.527   4.400  16.672  0.4929 -0.8607 -1.6396
11982TIP3   OH257360   3.067   1.079  12.080 -0.0540  0.2389  0.2549
11982TIP3    H157361   3.130   1.151  12.083  0.0955  0.1471 -0.5106
11982TIP3    H257362   2.986   1.120  12.050  0.5485 -0.2339 -2.2264
11983TIP3   OH257363   6.096   1.433   6.128 -0.3461 -0.2863 -0.0866
11983TIP3    H157364   6.024   1.399   6.183 -0.8609  2.0414  0.7728
11983TIP3    H257365   6.060   1.432   6.039 -1.1799  0.1615  0.2334
11984TIP3   OH257366   3.965   5.335   2.952  0.2785  0.5440  0.0408
11984TIP3    H157367   3.872   5.317   2.938  0.1831  2.4033 -2.3144
11984TIP3    H257368   3.984   5.297   3.038 -2.1419 -1.6421 -0.2740
11985TIP3   OH257369   3.191   3.338   2.891 -0.3942 -0.2867 -0.2651
11985TIP3    H157370   3.107   3.382   2.884 -0.4983 -0.4380  0.0152
11985TIP3    H257371   3.228   3.342   2.803 -0.8061 -0.4382 -0.4481
11986TIP3   OH257372   2.935   5.578   0.443  0.7948 -0.0578  0.2723
11986TIP3    H157373   2.985   5.511   0.396  1.2766  1.0341 -0.8172
11986TIP3    H257374   2.954   5.659   0.397 -0.1895  0.7635  1.2534
11987TIP3   OH257375   1.131   3.605  17.413 -0.3282  0.0190 -0.2159
11987TIP3    H157376   1.092   3.520  17.393  1.5932 -0.5750 -1.6998
11987TIP3    H257377   1.186   3.588  17.489  1.4484 -0.5669 -1.5645
11988TIP3   OH257378   0.102   1.508  14.674 -0.0293 -0.1550  1.2341
11988TIP3    H157379   0.124   1.535  14.763  1.9681  2.4334  0.0997
11988TIP3    H257380   0.186   1.505  14.628 -1.0601 -0.7648 -0.7215
11989TIP3   OH257381   0.409   2.601   0.859 -0.6032  0.2353 -0.2288
11989TIP3    H157382   0.412   2.685   0.814  1.1301  0.2422 -0.1978
11989TIP3    H257383   0.352   2.546   0.806 -0.1871  0.8459 -1.3333
11990TIP3   OH257384   3.345   1.408  13.246 -0.0160 -0.4049 -0.1780
11990TIP3    H157385   3.426   1.416  13.297  0.0172 -1.4654 -0.0416
11990TIP3    H257386   3.295   1.487  13.268  0.2422 -0.5652  1.0687
11991TIP3   OH257387   0.015   5.311   2.681  0.3104  0.3905 -0.0644
11991TIP3    H157388  -0.061   5.254   2.694 -0.7721  1.8142  0.0415
11991TIP3    H257389  -0.004   5.389   2.733  1.9054  0.7391  0.0468
11992TIP3   OH257390   0.075   0.946  16.357  0.5080 -0.0234 -0.6824
11992TIP3    H157391   0.010   0.877  16.368  0.5782  0.0995  0.7348
11992TIP3    H257392   0.039   1.002  16.287 -0.6788 -0.2196 -0.2612
11993TIP3   OH257393   0.391   3.421   4.239 -0.0467 -0.2670 -0.2986
11993TIP3    H157394   0.327   3.412   4.310 -1.5858 -1.4011 -1.7527
11993TIP3    H257395   0.419   3.332   4.220 -0.2067 -0.0677 -1.5703
11994TIP3   OH257396   3.971   3.995   1.193 -0.8390  0.2257 -0.1548
11994TIP3    H157397   4.021   4.028   1.268 -2.2502  0.2172  0.8104
11994TIP3    H257398   3.907   4.064   1.174 -2.3144 -0.9330  0.4355
11995TIP3   OH257399   5.223   6.644  15.409 -0.0670 -0.2284  0.2992
11995TIP3    H157400   5.155   6.611  15.350 -0.5459 -0.0641  0.7548
11995TIP3    H257401   5.181   6.715  15.457  1.1440  1.5581 -1.1500
11996TIP3   OH257402   2.921   6.212  15.698 -0.1564 -0.2463  0.4242
11996TIP3    H157403   2.920   6.306  15.677  2.1331 -0.4793 -1.1119
11996TIP3    H257404   2.846   6.176  15.651 -0.0330  0.5685 -0.4180
11997TIP3   OH257405   1.939   3.196   3.533  0.1304 -0.1306 -0.0658
11997TIP3    H157406   1.860   3.243   3.560 -0.3341  0.1367 -1.7492
11997TIP3    H257407   1.961   3.235   3.448  2.6445  0.4884  0.7719
11998TIP3   OH257408   4.885   3.197  14.522  0.0371  0.0477 -0.2102
11998TIP3    H157409   4.909   3.217  14.612 -0.0958 -0.7672  0.0088
11998TIP3    H257410   4.956   3.233  14.469  0.2079  0.3617  0.2289
11999TIP3   OH257411   5.817   3.425   4.918  0.0100  0.2205  0.0759
11999TIP3    H157412   5.879   3.456   4.984  0.7043  0.0083 -0.4681
11999TIP3    H257413   5.737   3.407   4.968  0.7684 -0.7378  1.0205
12000TIP3   OH257414   4.900   5.435   1.117 -0.1698 -0.1092  0.3838
12000TIP3    H157415   4.904   5.339   1.117  2.5559 -0.0882  1.5838
12000TIP3    H257416   4.932   5.461   1.031  0.9350 -0.3110  0.7132
12001TIP3   OH257417   6.534   3.711  11.008 -0.1347  0.7604 -0.2551
12001TIP3    H157418   6.489   3.650  11.067  0.8071  1.3563  1.1417
12001TIP3    H257419   6.477   3.788  11.005  0.5650  1.3901  1.2604
12002TIP3   OH257420   3.437   1.665   1.431  0.1069 -0.3550  0.4555
12002TIP3    H157421   3.467   1.753   1.453 -0.2819  0.9591 -3.5413
12002TIP3    H257422   3.346   1.663   1.460  0.7072 -0.3359  2.5359
12003TIP3   OH257423   4.425   5.640  12.999 -0.1329 -0.1774  0.6013
12003TIP3    H157424   4.349   5.590  12.969 -0.0238  1.3127 -2.5194
12003TIP3    H257425   4.479   5.575  13.044 -1.9837 -1.8700  0.5341
12004TIP3   OH257426   0.580   0.794   6.741 -0.3584 -0.9694  0.3710
12004TIP3    H157427   0.630   0.806   6.821 -0.6920  0.6919  0.3643
12004TIP3    H257428   0.640   0.747   6.682 -0.0105 -1.9294  1.4569
12005TIP3   OH257429   4.853   3.608   2.356 -0.4423 -0.3222  0.9100
12005TIP3    H157430   4.898   3.546   2.413  1.7388 -1.1517 -1.4967
12005TIP3    H257431   4.871   3.694   2.394  1.8580 -0.7740  0.9927
12006TIP3   OH257432   2.804   4.916   5.722 -0.0442 -0.4951  0.1480
12006TIP3    H157433   2.841   4.944   5.638 -1.9371  0.8665 -0.3067
12006TIP3    H257434   2.754   4.837   5.700  1.4979 -1.6220  0.5296
12007TIP3   OH257435   0.878   2.866  11.315  0.2113  0.2241  0.0783
12007TIP3    H157436   0.930   2.786  11.305  0.5283  0.5054 -0.5434
12007TIP3    H257437   0.791   2.843  11.284  0.1366 -0.0595  0.4943
12008TIP3   OH257438   1.287   0.750  16.435 -0.4901 -0.0039 -0.6161
12008TIP3    H157439   1.244   0.699  16.366 -0.4920  1.1785 -1.5218
12008TIP3    H257440   1.372   0.774  16.399  0.1218 -0.5973  0.3793
12009TIP3   OH257441   4.324   5.330   0.030  0.2213  0.2486 -0.0940
12009TIP3    H157442   4.240   5.295  -0.001 -0.2297  1.2143 -0.0027
12009TIP3    H257443   4.342   5.403  -0.029  1.4713 -0.5110 -0.6822
12010TIP3   OH257444   2.090   1.316   0.283  0.0660  0.3125 -0.2676
12010TIP3    H157445   2.111   1.274   0.200 -1.6289  0.6429 -0.9070
12010TIP3    H257446   2.175   1.332   0.324  0.9168 -0.2770 -1.7194
12011TIP3   OH257447   0.075   0.081   5.911 -0.1995 -0.6598  0.4202
12011TIP3    H157448   0.155   0.031   5.925 -0.8140 -1.3343  1.6949
12011TIP3    H257449   0.052   0.065   5.819  0.9998 -0.6073  0.0952
12012TIP3   OH257450   1.087   6.202   0.954 -0.2763  0.3314 -0.0413
12012TIP3    H157451   1.076   6.294   0.978 -1.2323 -0.2037  1.7827
12012TIP3    H257452   1.006   6.160   0.982 -0.5475 -0.8227 -2.3293
12013TIP3   OH257453   4.958   3.926   5.112 -0.0500 -0.0099 -0.3985
12013TIP3    H157454   4.872   3.933   5.069 -1.2011 -2.1765  1.3911
12013TIP3    H257455   5.016   3.895   5.043 -1.4658 -1.7114 -0.9087
12014TIP3   OH257456   6.166   2.158  13.723  0.1808 -0.0915  0.0176
12014TIP3    H157457   6.145   2.239  13.770 -2.1412 -0.0248 -0.9806
12014TIP3    H257458   6.219   2.187  13.649 -0.2243  0.4841 -0.0624
12015TIP3   OH257459   1.962   4.293   2.165 -0.4956  1.3064  0.2718
12015TIP3    H157460   1.928   4.349   2.096  0.9227  1.7777 -0.0713
12015TIP3    H257461   2.049   4.327   2.184  0.6897 -1.1019 -0.3770
12016TIP3   OH257462   1.179   4.242  12.513 -0.1518 -0.6408  0.0311
12016TIP3    H157463   1.248   4.300  12.481 -1.8397  0.9550 -0.9844
12016TIP3    H257464   1.155   4.278  12.599 -1.9941  1.0392 -1.0909
12017TIP3   OH257465   1.565   2.196   4.672  0.5880 -0.0183  0.2754
12017TIP3    H157466   1.541   2.233   4.588  1.0601 -0.3800 -0.0263
12017TIP3    H257467   1.484   2.159   4.706  0.3592  0.2815  0.0630
12018TIP3   OH257468   4.275   3.071   2.777  0.3296  0.2674  0.1545
12018TIP3    H157469   4.357   3.021   2.784  0.2219  0.1461  0.5525
12018TIP3    H257470   4.206   3.005   2.784  0.1933  0.4081  0.1369
12019TIP3   OH257471   3.259   2.586   4.932 -0.1001 -0.2455  0.0200
12019TIP3    H157472   3.275   2.543   4.848 -1.7446 -1.4116  0.2545
12019TIP3    H257473   3.327   2.551   4.990  0.2600 -0.4053 -0.4909
12020TIP3   OH257474   2.865   0.075   6.652 -0.3084  0.6048  0.1403
12020TIP3    H157475   2.819   0.010   6.706 -0.6468 -0.3068 -1.1985
12020TIP3    H257476   2.869   0.153   6.707 -1.2443 -0.0792  1.2247
12021TIP3   OH257477   0.862   5.935  17.416 -0.6378 -0.1746 -0.0254
12021TIP3    H157478   0.911   5.859  17.449  2.1183  0.7005 -1.7185
12021TIP3    H257479   0.805   5.899  17.348  0.4868 -0.8346 -0.6642
12022TIP3   OH257480   3.666   0.477  12.577  0.3851 -0.1154 -0.7134
12022TIP3    H157481   3.614   0.504  12.653  1.9988  1.1701  0.0013
12022TIP3    H257482   3.669   0.555  12.522  1.7341 -0.0922 -0.6208
12023TIP3   OH257483   6.593   2.131   1.421  0.4035 -0.5912  0.2007
12023TIP3    H157484   6.530   2.159   1.355  1.2564 -1.6631 -1.1501
12023TIP3    H257485   6.677   2.129   1.374  0.9936 -1.6473  1.2382
12024TIP3   OH257486   1.455   2.086   1.315  0.0161 -0.9361  0.1357
12024TIP3    H157487   1.431   2.005   1.270 -0.7585  0.2133 -1.6252
12024TIP3    H257488   1.399   2.088   1.392 -1.2179 -1.2466 -0.7322
12025TIP3   OH257489   2.991   0.552   1.379  0.0799  0.0323 -0.3633
12025TIP3    H157490   2.961   0.642   1.365  0.6985  0.1635 -0.9232
12025TIP3    H257491   2.935   0.518   1.449 -1.1798  0.3464 -1.1961
12026TIP3   OH257492   0.090   3.574   3.668 -0.3925 -0.2680  0.3059
12026TIP3    H157493   0.084   3.571   3.573  1.3483  1.5679  0.0618
12026TIP3    H257494   0.007   3.611   3.697 -0.1990  0.9838 -0.6723
12027TIP3   OH257495   5.394   3.302  16.259  0.0378 -0.4490 -0.2324
12027TIP3    H157496   5.348   3.292  16.176  0.9574 -1.6642 -0.6290
12027TIP3    H257497   5.439   3.387  16.251  1.0396 -1.0581 -1.4752
12028TIP3   OH257498   4.121   5.629  17.112 -0.0446 -0.6623  0.3875
12028TIP3    H157499   4.099   5.550  17.162 -2.2220 -0.4780 -0.1883
12028TIP3    H257500   4.088   5.611  17.024  1.3467  0.0805 -0.3201
12029TIP3   OH257501   0.565   3.198   5.743  0.2835  0.1705 -0.4113
12029TIP3    H157502   0.615   3.123   5.712 -0.2152 -0.5967  0.5856
12029TIP3    H257503   0.623   3.241   5.806 -0.2705 -0.7436  0.7767
12030TIP3   OH257504   0.560   1.923  13.937  0.2308 -0.0853  0.5800
12030TIP3    H157505   0.595   1.851  13.989  0.7469 -1.3594 -1.4186
12030TIP3    H257506   0.637   1.966  13.900 -0.1532 -0.6902 -0.9994
12031TIP3   OH257507   2.798   4.661   1.038  0.1713  0.3399  0.1106
12031TIP3    H157508   2.819   4.668   1.131 -0.9812 -1.1355  0.5229
12031TIP3    H257509   2.707   4.630   1.036  0.2739  0.0452 -1.4943
12032TIP3   OH257510   1.390   5.362  15.878  0.3335  0.2632 -0.1142
12032TIP3    H157511   1.331   5.291  15.900 -1.1604  1.3753 -0.3869
12032TIP3    H257512   1.428   5.337  15.794  1.6445 -1.2801  0.8933
12033TIP3   OH257513   3.720   3.884  10.393  0.3203  1.0163  0.2032
12033TIP3    H157514   3.701   3.809  10.450 -1.6495  0.3827 -1.1953
12033TIP3    H257515   3.752   3.951  10.453 -0.7448  0.0627  1.9372
12034TIP3   OH257516   2.172   2.766   0.299  0.1439 -0.7482  0.0613
12034TIP3    H157517   2.079   2.773   0.321 -0.1012  0.1840 -1.1808
12034TIP3    H257518   2.216   2.818   0.366 -0.4837  1.0042 -0.8027
12035TIP3   OH257519   0.975   6.127   4.636  0.6252 -0.8474  0.3195
12035TIP3    H157520   1.035   6.201   4.627 -1.5335  0.8671 -0.9273
12035TIP3    H257521   1.001   6.066   4.566  1.2220 -0.3629  0.1143
12036TIP3   OH257522   6.175   4.886  14.885 -0.2760 -0.2998 -0.0094
12036TIP3    H157523   6.169   4.793  14.867 -1.6857 -0.0229 -1.2256
12036TIP3    H257524   6.123   4.899  14.964  0.8679 -0.6832  0.8228
12037TIP3   OH257525   1.464   3.822   0.468 -0.3657 -0.1412  0.2784
12037TIP3    H157526   1.373   3.800   0.448 -0.5918  0.0310  1.0797
12037TIP3    H257527   1.504   3.739   0.494  0.4480 -0.7675 -2.5825
12038TIP3   OH257528   6.674   3.935   1.907 -0.2924  0.3819  0.0358
12038TIP3    H157529   6.689   3.866   1.842  0.8448  2.2540 -1.8404
12038TIP3    H257530   6.612   3.898   1.969 -1.3635 -1.5706 -2.0722
12039TIP3   OH257531   0.571   4.713   3.547  0.7401 -0.1692  0.1509
12039TIP3    H157532   0.573   4.808   3.551 -0.0664 -0.1162 -0.5582
12039TIP3    H257533   0.575   4.692   3.454  2.2410 -0.8853  0.3352
12040TIP3   OH257534   5.457   1.794  16.363  0.4304 -0.0442 -0.9765
12040TIP3    H157535   5.430   1.836  16.281 -0.1365 -0.8794 -1.2385
12040TIP3    H257536   5.383   1.738  16.386  0.3392  0.6405  0.4507
12041TIP3   OH257537   1.565   4.289  13.464 -0.5152  0.1628 -0.6101
12041TIP3    H157538   1.592   4.243  13.384  1.1909  3.1027 -1.8639
12041TIP3    H257539   1.615   4.246  13.533  0.1512 -0.6149 -1.5341
12042TIP3   OH257540   1.240   5.378   3.787 -0.1102  0.4040  0.2122
12042TIP3    H157541   1.220   5.399   3.878 -1.1670 -0.0741  0.1133
12042TIP3    H257542   1.327   5.414   3.772  1.0003 -1.3391  2.0269
12043TIP3   OH257543   4.339   5.403   3.398  0.1548 -0.4990  0.4177
12043TIP3    H157544   4.328   5.313   3.368 -0.3685 -0.1761 -0.4009
12043TIP3    H257545   4.423   5.431   3.363 -1.0023  0.3031 -2.0060
12044TIP3   OH257546   1.435   3.801   0.060  0.1557  0.3609  0.4709
12044TIP3    H157547   1.513   3.765   0.103  0.1249  1.2517  1.3069
12044TIP3    H257548   1.362   3.752   0.099  0.1702  0.7635  1.0093
12045TIP3   OH257549   5.667   5.264   2.081  0.5933  0.6073 -0.0697
12045TIP3    H157550   5.603   5.295   2.016  1.3745 -1.1777 -1.7960
12045TIP3    H257551   5.688   5.342   2.133 -1.1516  1.7788 -1.0260
12046TIP3   OH257552   3.735   4.716  17.139 -0.0879 -0.0883 -0.3038
12046TIP3    H157553   3.770   4.704  17.227 -1.0640  0.3026  0.1483
12046TIP3    H257554   3.704   4.629  17.114  0.7642 -0.3337 -0.5186
12047TIP3   OH257555   4.189   6.544  16.850  0.5188 -0.2272 -0.9369
12047TIP3    H157556   4.212   6.512  16.937  0.0602  1.5540 -0.1160
12047TIP3    H257557   4.273   6.557  16.807  0.9879  2.0447  0.4778
12048TIP3   OH257558   6.545   4.581   2.565 -0.0670 -0.3920  0.3694
12048TIP3    H157559   6.497   4.508   2.603  1.5066 -1.5298  0.2775
12048TIP3    H257560   6.617   4.597   2.627  1.4939 -1.0914 -1.1963
12049TIP3   OH257561   2.836   6.383   3.591  1.1303 -0.0162 -0.6173
12049TIP3    H157562   2.752   6.337   3.602 -0.3745  2.8335  1.0344
12049TIP3    H257563   2.859   6.368   3.499 -0.8544 -1.4119 -0.9680
12050TIP3   OH257564   3.375   1.302  11.129 -0.2473  0.0461 -0.5884
12050TIP3    H157565   3.292   1.310  11.083  0.0514  0.8518 -1.0097
12050TIP3    H257566   3.406   1.392  11.140  0.4885 -0.2303 -0.2878
12051TIP3   OH257567   2.082   3.625  12.909  0.5006  0.1584 -0.0467
12051TIP3    H157568   2.100   3.543  12.954  1.2901  0.3102 -0.0557
12051TIP3    H257569   2.043   3.599  12.826  1.3089 -0.2546 -0.3148
12052TIP3   OH257570   1.917   5.734  15.036  0.5430 -0.2283 -0.1243
12052TIP3    H157571   1.851   5.801  15.017  2.2684  2.2380  1.8102
12052TIP3    H257572   1.983   5.745  14.969  1.6902  1.3804  1.1813
12053TIP3   OH257573   1.199   0.970  16.206  0.6467  0.3581  0.1350
12053TIP3    H157574   1.184   1.018  16.287 -0.9029 -0.3272  0.2905
12053TIP3    H257575   1.275   0.915  16.224  0.1392 -0.0067  1.2360
12054TIP3   OH257576   4.628   4.345  13.843 -0.1126  0.4792 -0.6968
12054TIP3    H157577   4.551   4.381  13.888 -0.6146 -1.0515 -0.2281
12054TIP3    H257578   4.641   4.402  13.768 -1.2450  1.2255 -0.3642
12055TIP3   OH257579   0.961   0.890   5.119  0.7802 -0.4520 -0.2043
12055TIP3    H157580   0.985   0.838   5.196  2.1459  0.5803  0.1162
12055TIP3    H257581   0.915   0.829   5.062  2.0414 -1.9338  0.2910
12056TIP3   OH257582   4.442   4.502  17.328  0.3322  0.3070  0.0861
12056TIP3    H157583   4.448   4.593  17.300 -0.7497  0.1107 -0.8625
12056TIP3    H257584   4.389   4.504  17.407 -0.5019  0.4209 -0.4644
12057TIP3   OH257585   4.040   0.208  15.336 -0.0500  0.5581  0.4298
12057TIP3    H157586   4.043   0.161  15.252  0.7868  0.1340  0.6770
12057TIP3    H257587   4.003   0.293  15.315 -0.4000  0.2378 -0.2672
12058TIP3   OH257588   3.333   0.186   5.158  0.1236  0.2593 -0.3742
12058TIP3    H157589   3.406   0.146   5.111 -1.1754 -2.9789  0.0972
12058TIP3    H257590   3.267   0.116   5.163 -1.9981  2.2479  1.3871
12059TIP3   OH257591   0.135   0.221  13.912  0.0518  0.0946 -0.1868
12059TIP3    H157592   0.095   0.295  13.957  1.3168  0.4417  0.3828
12059TIP3    H257593   0.187   0.176  13.978  1.3576  0.1936 -1.0986
12060TIP3   OH257594   5.565   3.721  12.166  0.2538  0.5686 -0.0974
12060TIP3    H157595   5.482   3.674  12.167  1.0584 -0.9661 -0.6736
12060TIP3    H257596   5.603   3.705  12.252 -0.0339  1.2439  0.1552
12061TIP3   OH257597   3.075   0.509   2.158 -0.6432 -0.2161 -0.0226
12061TIP3    H157598   2.996   0.561   2.169 -0.2320  1.3273 -3.1226
12061TIP3    H257599   3.044   0.428   2.118 -0.7577  0.0301 -0.4401
12062TIP3   OH257600   6.128   2.335   2.312 -0.1089  0.2244  0.1936
12062TIP3    H157601   6.039   2.313   2.286 -0.0274 -2.4593  1.8406
12062TIP3    H257602   6.182   2.314   2.236 -0.7050  0.5035 -0.3150
12063TIP3   OH257603   1.085   6.705  16.840  0.3524  0.0881  0.1212
12063TIP3    H157604   1.124   6.632  16.889  2.5626  0.7233 -0.5484
12063TIP3    H257605   1.133   6.782  16.870 -0.6133  0.9952 -0.5926
12064TIP3   OH257606   1.386   2.150  13.949  0.4793  0.6540 -0.4993
12064TIP3    H157607   1.480   2.164  13.963  0.9573 -2.7706  0.4470
12064TIP3    H257608   1.381   2.088  13.877 -1.1137  0.9835 -0.7050
12065TIP3   OH257609   6.395   0.461   5.469  0.3369 -0.0906 -0.0573
12065TIP3    H157610   6.324   0.430   5.412  0.5057 -0.6238  0.0186
12065TIP3    H257611   6.377   0.419   5.553  1.0825 -0.7114 -0.2005
12066TIP3   OH257612   1.216   3.003  14.124 -0.0743 -0.0673 -0.4461
12066TIP3    H157613   1.303   3.026  14.157 -0.7195 -0.3470  1.5164
12066TIP3    H257614   1.233   2.962  14.039  1.8305 -1.4288  0.5243
12067TIP3   OH257615   1.167   5.307   3.164  0.1941  0.7947 -0.1749
12067TIP3    H157616   1.213   5.352   3.093  0.6857  1.2427  0.4202
12067TIP3    H257617   1.191   5.355   3.243  0.1453 -0.0688  0.3820
12068TIP3   OH257618   5.152   5.056  13.725  0.3618 -0.1002 -0.3379
12068TIP3    H157619   5.229   4.999  13.717  1.7834  1.4998  1.0248
12068TIP3    H257620   5.134   5.058  13.819 -2.1075 -1.2816 -0.6934
12069TIP3   OH257621   6.449   1.562  17.452 -0.1285  0.6810  0.0321
12069TIP3    H157622   6.537   1.542  17.419 -0.1917  0.3061  0.0880
12069TIP3    H257623   6.413   1.623  17.389 -0.6507 -0.8329 -1.1844
12070TIP3   OH257624   1.031   5.824   2.032  0.5766 -0.2320  0.0583
12070TIP3    H157625   1.112   5.839   2.081  1.0081  0.2628 -0.7891
12070TIP3    H257626   1.024   5.899   1.973 -1.6851  0.9398  1.6704
12071TIP3   OH257627   6.624   5.429   5.966 -0.7883 -0.1716  0.8240
12071TIP3    H157628   6.671   5.451   5.886  0.6182 -1.7715  1.1605
12071TIP3    H257629   6.580   5.511   5.991 -1.9004  0.1712 -1.9402
12072TIP3   OH257630   5.110   3.399   5.575 -0.3596  0.3370 -0.4113
12072TIP3    H157631   5.076   3.344   5.505 -1.3119  0.0296  0.2804
12072TIP3    H257632   5.046   3.469   5.586 -0.4048  0.1896  0.3777
12073TIP3   OH257633   3.910   5.721   2.567 -0.2438  0.6588  0.4013
12073TIP3    H157634   3.900   5.801   2.515 -1.2138  0.3210  0.0404
12073TIP3    H257635   3.952   5.659   2.507 -0.4639  0.5769  0.3284
12074TIP3   OH257636   2.934   3.134   3.134  0.1129  0.4765  0.1761
12074TIP3    H157637   2.882   3.139   3.214  0.9577  1.3897  0.6945
12074TIP3    H257638   3.022   3.111   3.165  0.0809 -0.8116 -0.6571
12075TIP3   OH257639   1.437   5.451   0.984 -0.2784 -0.3270 -0.0494
12075TIP3    H157640   1.439   5.544   1.005 -2.8185 -0.1567 -0.3446
12075TIP3    H257641   1.520   5.435   0.939 -0.2516  2.0337 -0.9594
12076TIP3   OH257642   1.601   0.383  12.808  0.1329  0.4002 -0.0487
12076TIP3    H157643   1.520   0.433  12.796  0.9912  1.8242 -0.0306
12076TIP3    H257644   1.652   0.401  12.729  0.5213 -0.3407  0.0240
12077TIP3   OH257645   4.252   1.249   5.472  0.6301 -0.1342  0.4765
12077TIP3    H157646   4.283   1.162   5.498 -2.7002 -1.0727  1.8848
12077TIP3    H257647   4.291   1.264   5.386  1.7047 -2.7880  0.4069
12078TIP3   OH257648   2.651   4.085  11.641  0.2684 -0.2116 -0.8702
12078TIP3    H157649   2.564   4.049  11.662  0.2157 -0.4444 -1.4696
12078TIP3    H257650   2.641   4.179  11.651  0.5475 -0.3516  1.2660
12079TIP3   OH257651   1.180   2.900   2.265  0.3756  0.0247  0.0973
12079TIP3    H157652   1.087   2.878   2.255  0.5040 -1.4969  1.7653
12079TIP3    H257653   1.184   2.954   2.344  0.7244  1.7799 -1.0597
12080TIP3   OH257654   5.072   4.513  17.226 -0.5285  0.6813 -0.1930
12080TIP3    H157655   5.083   4.421  17.200 -0.1660  1.2391 -2.1782
12080TIP3    H257656   5.066   4.561  17.144 -0.1950  2.5255  0.7916
12081TIP3   OH257657   1.214   2.969  11.164  0.0326 -0.6893  0.0154
12081TIP3    H157658   1.230   2.890  11.216  1.7047 -0.3549  0.0619
12081TIP3    H257659   1.182   3.033  11.228 -1.7246 -1.4008 -0.0904
12082TIP3   OH257660   4.550   5.935  12.089 -0.0045 -0.0094  0.1209
12082TIP3    H157661   4.622   5.975  12.138  0.8204 -0.2532 -0.8658
12082TIP3    H257662   4.579   5.845  12.073 -0.8768 -0.3508  0.3815
12083TIP3   OH257663   5.985   3.124  13.396  0.4576 -0.2933  0.1513
12083TIP3    H157664   6.004   3.183  13.469  1.4220 -0.9844  0.4847
12083TIP3    H257665   5.932   3.176  13.336  0.6094  0.6523  0.8149
12084TIP3   OH257666   2.495   4.659  13.630  0.6484 -0.9068  0.1491
12084TIP3    H157667   2.530   4.600  13.697 -1.3972 -1.1648  1.1014
12084TIP3    H257668   2.400   4.655  13.644  0.2363 -0.1642 -2.1312
12085TIP3   OH257669   1.269   4.959  11.441  0.3716  0.0781  0.5053
12085TIP3    H157670   1.269   4.987  11.349 -0.3298  0.5582  0.6455
12085TIP3    H257671   1.189   4.997  11.478 -0.5187 -1.9205  0.7697
12086TIP3   OH257672   5.625   0.120   5.712  0.2433  0.3102  0.3593
12086TIP3    H157673   5.654   0.191   5.654 -1.3831 -0.1026 -1.0661
12086TIP3    H257674   5.652   0.147   5.799 -0.3043  2.7071 -0.1302
12087TIP3   OH257675   0.583   6.685   3.097 -0.3136 -0.2561 -0.5187
12087TIP3    H157676   0.562   6.753   3.032  1.9897  0.1510 -0.9358
12087TIP3    H257677   0.573   6.729   3.181 -0.6072  0.0443 -0.7066
12088TIP3   OH257678   4.057   5.781   4.170  0.2723  0.1159  0.1122
12088TIP3    H157679   4.014   5.865   4.152 -1.4895 -0.6107  0.6630
12088TIP3    H257680   4.090   5.752   4.085  1.0215  1.4129 -0.0608
12089TIP3   OH257681   1.546   2.722  14.375 -0.1991 -0.0650 -0.6993
12089TIP3    H157682   1.452   2.733  14.361 -0.2828  0.9275  0.4944
12089TIP3    H257683   1.585   2.803  14.343  0.1355 -0.0177 -0.1766
12090TIP3   OH257684   2.145   4.792   4.670  0.4044  0.4326  0.0233
12090TIP3    H157685   2.156   4.701   4.642  0.4013  0.6206 -0.5867
12090TIP3    H257686   2.235   4.825   4.679  0.4023  0.4588 -0.0499
12091TIP3   OH257687   6.444   3.941  12.856 -0.1352 -0.0092 -0.1718
12091TIP3    H157688   6.527   3.898  12.876 -0.0060 -0.0108 -0.7031
12091TIP3    H257689   6.389   3.871  12.821  0.7666  0.5838 -3.0833
12092TIP3   OH257690   3.956   0.414  11.896  0.0353  0.3345  0.0601
12092TIP3    H157691   3.869   0.444  11.872  0.4120  0.9164 -0.6137
12092TIP3    H257692   3.942   0.359  11.974 -0.8138  1.1636  0.5107
12093TIP3   OH257693   3.635   0.377   4.716 -0.2523 -0.4060  0.0349
12093TIP3    H157694   3.648   0.443   4.783  0.0297  1.1128 -1.4456
12093TIP3    H257695   3.546   0.392   4.684  0.6557  1.0100 -2.0377
12094TIP3   OH257696   5.031   5.165  16.511 -0.0318  0.8998  0.2605
12094TIP3    H157697   5.117   5.185  16.475  0.4746 -0.9063  0.3853
12094TIP3    H257698   4.991   5.106  16.446 -0.4342  0.2811  1.0564
12095TIP3   OH257699   3.549   2.113   4.280  0.1696  0.4089 -0.1340
12095TIP3    H157700   3.632   2.160   4.292  1.0581 -0.5522 -2.1119
12095TIP3    H257701   3.575   2.024   4.255 -1.4645 -0.0534 -0.3279
12096TIP3   OH257702   1.503   1.275   6.299  0.0173 -0.1797  0.0584
12096TIP3    H157703   1.452   1.194   6.305 -0.1775 -0.0438  0.2562
12096TIP3    H257704   1.472   1.329   6.372  1.2720 -0.5510  0.8901
12097TIP3   OH257705   3.416   0.703  17.305  0.1596 -0.3542 -0.1812
12097TIP3    H157706   3.397   0.716  17.212 -0.8061  1.0396  0.1925
12097TIP3    H257707   3.437   0.610  17.311 -2.1705 -1.0424 -1.3948
12098TIP3   OH257708   1.129   3.241   1.450 -0.6176 -0.6481 -0.1370
12098TIP3    H157709   1.218   3.213   1.472 -0.2952 -0.2206 -0.8465
12098TIP3    H257710   1.115   3.319   1.504 -0.2810 -0.2912 -0.5603
12099TIP3   OH257711   4.743   0.811  16.266 -0.5634 -0.2260  0.1271
12099TIP3    H157712   4.712   0.722  16.248 -1.5683  0.2576 -0.6606
12099TIP3    H257713   4.741   0.855  16.181  0.4539  0.4077  0.4075
12100TIP3   OH257714   4.739   1.841  12.710 -0.0096  0.4109  0.0526
12100TIP3    H157715   4.795   1.902  12.757  1.5477 -1.2647  0.4976
12100TIP3    H257716   4.696   1.789  12.778 -0.4968  0.3131 -0.3214
12101TIP3   OH257717   6.479   3.573  14.560 -0.0289  0.5652  0.1275
12101TIP3    H157718   6.520   3.489  14.579 -1.6028  0.1892  2.4578
12101TIP3    H257719   6.545   3.638  14.582  0.3200 -0.0579  0.9914
12102TIP3   OH257720   5.466   5.044   4.255  0.6907  0.1973 -0.1937
12102TIP3    H157721   5.494   5.031   4.164 -0.9386  0.0273 -0.6956
12102TIP3    H257722   5.441   4.956   4.285  0.3830  0.3937  0.1306
12103TIP3   OH257723   4.550   3.347  16.535  0.8003  0.1621 -0.0730
12103TIP3    H157724   4.545   3.263  16.489  0.0563  0.3661 -0.3739
12103TIP3    H257725   4.628   3.389  16.498 -0.6861  1.0325 -2.4077
12104TIP3   OH257726   4.020   2.109  13.773 -0.3662  0.1077  0.2815
12104TIP3    H157727   3.981   2.196  13.762  1.3137  0.7717 -0.8882
12104TIP3    H257728   4.039   2.103  13.866 -0.7033  0.9054  0.4074
12105TIP3   OH257729   2.325   1.093   5.734 -0.0445 -0.6602 -0.2166
12105TIP3    H157730   2.236   1.112   5.703  0.7764  1.9347 -1.2521
12105TIP3    H257731   2.312   1.041   5.813 -2.4869 -0.2885 -0.2907
12106TIP3   OH257732   6.396   3.820   5.986 -0.1915  0.2259  0.4509
12106TIP3    H157733   6.332   3.849   5.921  0.3470  0.6703  0.1041
12106TIP3    H257734   6.439   3.901   6.015  0.4127 -0.0866  0.4519
12107TIP3   OH257735   4.117   4.164  12.169 -0.1580 -0.1415 -0.0421
12107TIP3    H157736   4.035   4.211  12.156  0.0118  0.4956  1.1249
12107TIP3    H257737   4.182   4.216  12.122 -0.3029 -0.3019 -0.4274
12108TIP3   OH257738   3.181   1.430   4.401  0.2731 -0.3310 -0.5184
12108TIP3    H157739   3.225   1.377   4.334  1.5837  1.6922 -1.3587
12108TIP3    H257740   3.105   1.467   4.355  0.1596 -0.3486 -0.3442
12109TIP3   OH257741   4.257   6.138  11.391 -0.1698  0.2362  0.2224
12109TIP3    H157742   4.337   6.116  11.439  0.3697  1.6246  0.0131
12109TIP3    H257743   4.255   6.076  11.318  1.0983  0.6072 -0.1598
12110TIP3   OH257744   1.444   1.773   3.227  0.0215 -0.3034  0.0126
12110TIP3    H157745   1.419   1.825   3.151  1.5140 -1.6753 -1.5024
12110TIP3    H257746   1.362   1.740   3.262 -0.7955  1.4580 -0.1492
12111TIP3   OH257747   3.487   0.340   1.827 -1.1110 -0.7932  0.6222
12111TIP3    H157748   3.502   0.246   1.819 -2.7591 -1.0010 -0.3130
12111TIP3    H257749   3.435   0.363   1.751  2.4676  1.6605 -1.4012
12112TIP3   OH257750   5.561   6.019  14.000  0.2738  0.2542  0.1576
12112TIP3    H157751   5.504   5.946  14.021  0.1706 -0.1560 -1.4322
12112TIP3    H257752   5.645   5.998  14.042  0.6619 -1.4703 -1.3746
12113TIP3   OH257753   1.811   4.746   5.561 -0.0202 -0.3678 -0.2344
12113TIP3    H157754   1.808   4.840   5.546 -1.4596 -0.3064  0.2879
12113TIP3    H257755   1.904   4.726   5.573  0.4115  0.7829 -1.4781
12114TIP3   OH257756   4.407   6.220  14.679 -0.3326 -0.4846  0.5231
12114TIP3    H157757   4.345   6.152  14.652 -0.1954 -0.7505  0.8718
12114TIP3    H257758   4.493   6.183  14.659 -0.2372 -0.6106  1.1457
12115TIP3   OH257759   4.843   5.181   4.578  0.5386 -0.3415 -0.2890
12115TIP3    H157760   4.809   5.225   4.500 -0.2955  0.3286  0.4339
12115TIP3    H257761   4.924   5.228   4.599 -0.4960  1.0970  0.6473
12116TIP3   OH257762   6.074   0.730  15.472  0.0908 -0.5160  0.0583
12116TIP3    H157763   6.133   0.800  15.498 -1.2626  0.2802  1.1498
12116TIP3    H257764   6.089   0.719  15.378  1.6509 -0.0673  0.2335
12117TIP3   OH257765   0.183   6.133  15.282 -0.1224 -0.2823  0.0068
12117TIP3    H157766   0.127   6.060  15.308  0.1944 -0.5697 -0.1114
12117TIP3    H257767   0.154   6.155  15.194  0.2958 -0.7781 -0.2614
12118TIP3   OH257768   3.064   4.519  14.966  0.5175  0.0663 -0.7343
12118TIP3    H157769   3.038   4.472  14.887  1.1506  0.3218 -1.0984
12118TIP3    H257770   3.123   4.459  15.012 -1.7836 -1.1544  0.8667
12119TIP3   OH257771   1.845   5.777  16.581  0.3170 -0.3328  1.0050
12119TIP3    H157772   1.868   5.716  16.511 -0.2880  0.2433  0.2823
12119TIP3    H257773   1.846   5.723  16.661 -0.5199 -1.3770  0.3505
12120TIP3   OH257774   4.296   3.544  13.998 -0.0564 -0.1963 -0.3354
12120TIP3    H157775   4.275   3.633  13.969 -0.3783 -1.1639 -3.4288
12120TIP3    H257776   4.212   3.506  14.024  0.1179  0.4117  1.2558
12121TIP3   OH257777   1.409   0.652   3.079 -0.2757  0.3698 -0.1782
12121TIP3    H157778   1.325   0.646   3.123 -0.5064  0.7059 -0.5638
12121TIP3    H257779   1.448   0.733   3.112 -2.1047  2.7532 -3.3472
12122TIP3   OH257780   4.878   4.425   5.789 -0.2931  0.2226  0.7958
12122TIP3    H157781   4.792   4.467   5.789 -0.3062  0.3034 -1.4399
12122TIP3    H257782   4.871   4.355   5.724  1.4904  0.5963  0.1388
12123TIP3   OH257783   0.980   1.003   3.220  0.2032  0.3646 -0.0362
12123TIP3    H157784   0.914   1.072   3.231  1.5048  1.4398  1.3010
12123TIP3    H257785   1.047   1.043   3.165  0.6371 -0.0787  0.1654
12124TIP3   OH257786   0.558   0.904   6.134  0.1463 -0.0201  0.0421
12124TIP3    H157787   0.495   0.908   6.206 -0.8154  0.4220 -0.8077
12124TIP3    H257788   0.644   0.901   6.177 -0.3972  0.6376  1.1958
12125TIP3   OH257789   3.101   2.990   6.327 -0.1346  0.0650 -0.3675
12125TIP3    H157790   3.129   3.052   6.259 -2.6056  2.8721  0.9324
12125TIP3    H257791   3.096   3.043   6.406 -0.5955 -2.3134  1.2955
12126TIP3   OH257792   4.557   1.129   0.598 -0.1674 -0.8771  0.5560
12126TIP3    H157793   4.539   1.141   0.691  1.8928  0.3353  0.8658
12126TIP3    H257794   4.471   1.132   0.556 -1.1811 -1.8639  2.4255
12127TIP3   OH257795   4.259   5.752  11.259 -0.4000 -0.4726 -0.4406
12127TIP3    H157796   4.174   5.763  11.217  0.2983 -0.3332 -1.8698
12127TIP3    H257797   4.314   5.821  11.222 -0.1804  0.7574  1.9773
12128TIP3   OH257798   2.145   0.005   4.194  0.4436 -0.0529  0.3401
12128TIP3    H157799   2.116  -0.077   4.235  0.3522 -0.1157  0.1502
12128TIP3    H257800   2.065   0.043   4.158  0.4176  0.3190  0.7810
12129TIP3   OH257801   5.364   3.606   1.357  0.0708  1.0602  0.3490
12129TIP3    H157802   5.306   3.678   1.379  1.7836  2.4653  0.5027
12129TIP3    H257803   5.452   3.644   1.359  1.0163 -0.9494  0.0839
12130TIP3   OH257804   3.961   2.193  12.250 -0.7318 -0.5268 -0.3687
12130TIP3    H157805   3.949   2.170  12.158 -3.2038  2.4772 -0.9714
12130TIP3    H257806   3.990   2.284  12.248  1.6934 -1.1174  1.8812
12131TIP3   OH257807   3.861   3.932   0.265  0.5628 -0.0938 -0.3166
12131TIP3    H157808   3.858   3.887   0.181  2.6667  0.6204 -0.8166
12131TIP3    H257809   3.805   4.009   0.253  0.5749 -0.1824 -0.9373
12132TIP3   OH257810   4.521   4.856   4.466 -0.3254  0.1883 -0.4821
12132TIP3    H157811   4.553   4.923   4.527 -0.0508 -0.8124  0.5045
12132TIP3    H257812   4.565   4.877   4.384  0.8930  0.3723  0.1893
12133TIP3   OH257813   0.697   1.819   1.247  0.4057  0.1422  0.2479
12133TIP3    H157814   0.671   1.857   1.162  0.6043 -0.2845 -0.0091
12133TIP3    H257815   0.617   1.777   1.279  0.1736  0.8082  0.5539
12134TIP3   OH257816   1.559   3.032  17.059 -0.4283 -0.3555 -0.8076
12134TIP3    H157817   1.553   2.973  16.984  0.0987  0.2778 -1.3526
12134TIP3    H257818   1.472   3.069  17.068  0.1737  1.8197 -2.9724
12135TIP3   OH257819   6.099   6.035   2.339  0.2168 -0.0021  0.3136
12135TIP3    H157820   6.165   5.982   2.383 -2.7008 -2.2463  2.3946
12135TIP3    H257821   6.052   5.974   2.283 -0.3651  1.4383 -0.8437
12136TIP3   OH257822   1.649   5.782   6.308 -0.4889  0.1124  0.0453
12136TIP3    H157823   1.649   5.828   6.224 -0.0222 -1.0559 -0.6162
12136TIP3    H257824   1.557   5.775   6.332 -0.6227  0.4961 -0.3520
12137TIP3   OH257825   3.691   0.743  12.467  0.0821 -0.1518  0.2687
12137TIP3    H157826   3.602   0.764  12.440 -0.3787 -2.2566 -0.0176
12137TIP3    H257827   3.744   0.816  12.435 -1.3322  0.4182 -0.8652
12138TIP3   OH257828   5.625   1.206  14.766 -0.0389 -0.0887  0.5428
12138TIP3    H157829   5.696   1.142  14.778  0.4658  0.1105 -1.1598
12138TIP3    H257830   5.555   1.157  14.723  0.5785  0.5797 -1.3301
12139TIP3   OH257831   5.592   4.437  13.598 -0.0105 -0.4284  0.3555
12139TIP3    H157832   5.638   4.375  13.542  1.4574 -0.0824  1.1396
12139TIP3    H257833   5.515   4.463  13.547  0.1798 -1.6918 -0.6151
12140TIP3   OH257834   4.140   1.225   1.361  0.2999  0.1381 -0.1391
12140TIP3    H157835   4.138   1.162   1.433  3.9754  0.7297  0.6361
12140TIP3    H257836   4.103   1.177   1.287 -1.8414 -1.1041  1.6228
12141TIP3   OH257837   0.756   6.459   5.414  0.0997  0.4020  0.0857
12141TIP3    H157838   0.722   6.370   5.407 -1.4420  1.0277 -0.8626
12141TIP3    H257839   0.831   6.461   5.354  0.8944 -0.5524  1.0083
12142TIP3   OH257840   5.994   4.972  14.614  0.1525 -0.1455  0.5483
12142TIP3    H157841   6.050   5.007  14.683 -0.0663  0.1034  0.5996
12142TIP3    H257842   6.020   4.880  14.607  1.5437  0.2810 -0.3734
12143TIP3   OH257843   2.815   6.327   5.481  0.2648 -0.1019  0.4100
12143TIP3    H157844   2.811   6.242   5.438  0.2180 -1.0779  2.2502
12143TIP3    H257845   2.725   6.345   5.507  0.2171  0.6968 -0.2384
12144TIP3   OH257846   5.120   0.885  12.465 -0.3674 -0.1005  0.0363
12144TIP3    H157847   5.148   0.958  12.519  0.8635 -0.5693  0.0624
12144TIP3    H257848   5.087   0.820  12.527 -1.9688  0.5951 -0.0164
12145TIP3   OH257849   3.074   0.179  15.565  0.4162  0.6190 -0.2374
12145TIP3    H157850   3.019   0.112  15.523 -0.8041  2.5151 -1.9004
12145TIP3    H257851   3.016   0.221  15.629  1.5566 -0.6697  1.7290
12146TIP3   OH257852   2.987   3.551  14.122  0.0007  0.5050  0.0447
12146TIP3    H157853   3.020   3.520  14.206  0.5702  1.1899  0.0786
12146TIP3    H257854   3.051   3.519  14.058 -1.5853 -1.9784 -0.4405
12147TIP3   OH257855   5.983   1.783  15.535 -0.3291 -0.0277 -0.3074
12147TIP3    H157856   5.972   1.718  15.605  0.5017 -2.0782 -1.9533
12147TIP3    H257857   6.065   1.757  15.492  0.8074  3.0005 -0.2177
12148TIP3   OH257858   1.060   1.961  15.401 -0.7593  0.3352 -0.6730
12148TIP3    H157859   1.073   2.052  15.375  1.7541  0.0896 -0.5286
12148TIP3    H257860   1.044   1.915  15.319 -3.2426  1.0268 -0.6356
12149TIP3   OH257861   5.288   1.841   2.820 -0.1016 -0.1579  0.0279
12149TIP3    H157862   5.373   1.851   2.776 -0.9623 -1.8768 -2.1744
12149TIP3    H257863   5.242   1.923   2.802  0.6236  0.2939  0.1838
12150TIP3   OH257864   5.705   0.220  14.505  0.1271  0.2164 -0.0727
12150TIP3    H157865   5.636   0.216  14.572 -1.5304  0.9215 -1.6618
12150TIP3    H257866   5.700   0.310  14.472  1.3355  0.0515 -0.7487
12151TIP3   OH257867   3.659   5.278   0.760  0.1573 -0.3394  0.3767
12151TIP3    H157868   3.563   5.269   0.765  0.0721 -0.0276 -0.5295
12151TIP3    H257869   3.672   5.358   0.708  0.9141 -0.6178  0.1410
12152TIP3   OH257870   3.934   0.257   3.884 -0.0139 -0.2345  0.4202
12152TIP3    H157871   4.000   0.292   3.824 -0.2879 -0.5969 -0.0916
12152TIP3    H257872   3.984   0.233   3.963  0.1955  1.2111  0.7597
12153TIP3   OH257873   1.907   5.784  16.170 -0.4332  0.3520 -0.0687
12153TIP3    H157874   1.893   5.878  16.184 -0.3517  0.1424  1.5743
12153TIP3    H257875   1.845   5.741  16.228 -1.6911 -0.6708 -2.0684
12154TIP3   OH257876   4.875   3.500  16.917 -0.1161 -0.3533 -0.0539
12154TIP3    H157877   4.949   3.547  16.956 -0.9700  0.1768  0.9904
12154TIP3    H257878   4.890   3.409  16.939 -1.9020  0.1199  4.0745
12155TIP3   OH257879   4.162   1.810   5.296 -0.1628  0.1900 -0.5259
12155TIP3    H157880   4.170   1.787   5.203 -0.3281 -0.5077 -0.3761
12155TIP3    H257881   4.193   1.732   5.342 -1.0173  0.1612  0.0131
12156TIP3   OH257882   3.488   0.978  12.856 -0.9024  0.1484 -0.1970
12156TIP3    H157883   3.571   0.959  12.899 -0.2477 -1.3913 -1.9858
12156TIP3    H257884   3.421   0.939  12.912 -0.3660  0.6738  0.8287
12157TIP3   OH257885   3.564   6.340   2.835 -0.0810  0.0282  0.6422
12157TIP3    H157886   3.652   6.366   2.863  0.2917 -0.5641  0.0490
12157TIP3    H257887   3.573   6.322   2.742 -0.3634 -1.9347  0.9515
12158TIP3   OH257888   4.282   0.733  15.214  0.2383 -0.6150 -0.3349
12158TIP3    H157889   4.319   0.692  15.292  2.0198 -0.7743 -1.2095
12158TIP3    H257890   4.344   0.712  15.144 -0.6218  0.6309 -1.5301
12159TIP3   OH257891   3.982   0.946   6.128  0.2987  0.3526  0.6139
12159TIP3    H157892   4.030   0.866   6.151  1.1925  0.1500 -1.6277
12159TIP3    H257893   3.890   0.922   6.137  0.5709 -0.5878  1.0357
12160TIP3   OH257894   0.291   6.588   3.002 -0.3983 -0.2136  0.1575
12160TIP3    H157895   0.349   6.568   3.076 -0.2216 -1.0364 -0.1856
12160TIP3    H257896   0.236   6.660   3.033  1.9473  1.8316 -0.1024
12161TIP3   OH257897   3.118   4.888   5.387  0.6130  1.0172 -0.0314
12161TIP3    H157898   3.174   4.938   5.328  3.1392  0.3459  1.6387
12161TIP3    H257899   3.148   4.911   5.475 -1.7099  0.5167  0.9810
12162TIP3   OH257900   1.698   4.684  14.621 -0.1050  0.3138 -0.0128
12162TIP3    H157901   1.781   4.650  14.589 -0.1246  0.9703 -0.7848
12162TIP3    H257902   1.718   4.715  14.710  0.2278 -0.4364  0.1811
12163TIP3   OH257903   2.414   4.962  12.209 -0.3828  0.4765 -0.2112
12163TIP3    H157904   2.380   4.899  12.272 -1.2441  1.2323  0.0950
12163TIP3    H257905   2.453   5.031  12.263  2.1331 -0.5656 -0.5324
12164TIP3   OH257906   0.793   5.899  13.451 -0.0932  0.0747 -0.3295
12164TIP3    H157907   0.760   5.864  13.534  0.6239  1.2980  0.5090
12164TIP3    H257908   0.842   5.977  13.476  1.2095 -0.2250 -1.7894
12165TIP3   OH257909   0.743   6.099   4.774 -0.1890  0.5524  0.2095
12165TIP3    H157910   0.820   6.112   4.718  1.3996  1.5191  2.4904
12165TIP3    H257911   0.760   6.016   4.818  0.0008  1.1962  1.3753
12166TIP3   OH257912   2.299   3.028   1.066  0.2101  0.4424  0.4349
12166TIP3    H157913   2.349   2.976   1.130  0.3507  1.5519  1.2662
12166TIP3    H257914   2.217   3.048   1.111  0.9108  2.5066  0.9142
12167TIP3   OH257915   1.833   1.210  14.304 -0.0654 -0.7176  0.7088
12167TIP3    H157916   1.831   1.120  14.271  0.1823 -0.1616 -0.9355
12167TIP3    H257917   1.916   1.246  14.271 -1.6293  1.1026 -1.5747
12168TIP3   OH257918   0.274   4.621  13.483 -0.2833  0.0011 -0.4431
12168TIP3    H157919   0.208   4.557  13.510 -0.8397  0.4622 -0.6890
12168TIP3    H257920   0.238   4.706  13.509 -0.0688  0.3086 -1.1177
12169TIP3   OH257921   4.253   4.095   0.759  0.3039 -0.3998  0.3471
12169TIP3    H157922   4.179   4.104   0.818 -0.3889 -0.5631 -0.4849
12169TIP3    H257923   4.215   4.064   0.676  1.2454 -0.1535 -0.1969
12170TIP3   OH257924   0.086   1.187   0.668 -0.0530 -0.5222 -0.7657
12170TIP3    H157925   0.171   1.231   0.664 -0.1239 -0.1279  1.0607
12170TIP3    H257926   0.098   1.107   0.617  0.6810  0.6183 -2.4796
12171TIP3   OH257927   0.470   6.325   5.832 -0.0814 -0.3576 -0.3129
12171TIP3    H157928   0.515   6.357   5.910  0.7483 -0.1302 -0.8794
12171TIP3    H257929   0.405   6.263   5.866 -0.6556  0.7448  0.6658
12172TIP3   OH257930   3.612   5.208  17.440 -0.2788 -0.2771 -0.2342
12172TIP3    H157931   3.564   5.154  17.503 -0.5107  0.4383  0.2104
12172TIP3    H257932   3.658   5.272  17.494 -0.1956  0.1189 -0.7689
12173TIP3   OH257933   1.516   6.590  15.029 -0.4636  0.0496 -0.3840
12173TIP3    H157934   1.431   6.581  15.072 -0.0381  0.5368  0.5829
12173TIP3    H257935   1.573   6.631  15.095  0.2305  0.7410 -1.3677
12174TIP3   OH257936   2.627   3.007   3.549 -0.1988  0.0130 -0.4351
12174TIP3    H157937   2.609   2.924   3.593 -1.4727  0.7594  0.5269
12174TIP3    H257938   2.718   3.027   3.571  0.4117 -1.5017 -1.3716
12175TIP3   OH257939   3.413   2.351   3.534  0.4698  0.6403  0.0160
12175TIP3    H157940   3.353   2.277   3.536 -0.2324  1.1773 -0.6237
12175TIP3    H257941   3.454   2.347   3.448  1.5111  0.1728  0.5141
12176TIP3   OH257942   6.137   4.750   0.869  0.2036  0.1127 -0.4951
12176TIP3    H157943   6.188   4.768   0.948 -0.1419 -0.8370 -0.0464
12176TIP3    H257944   6.057   4.801   0.880 -0.1799 -0.6210  0.1312
12177TIP3   OH257945   0.138   1.967  12.118 -0.1869 -0.6283  0.0838
12177TIP3    H157946   0.134   2.058  12.091 -0.7853 -0.6225  0.1800
12177TIP3    H257947   0.088   1.964  12.200 -1.0782 -1.2377 -0.4704
12178TIP3   OH257948   5.455   6.421  12.106  0.1377  0.1319 -0.2986
12178TIP3    H157949   5.484   6.476  12.179 -1.2585  2.1802 -1.1936
12178TIP3    H257950   5.366   6.452  12.087 -0.0819 -1.3637 -1.9087
12179TIP3   OH257951   2.332   3.657  13.884  0.0532  0.6521 -0.0602
12179TIP3    H157952   2.352   3.699  13.800  0.9007  1.9814  0.7793
12179TIP3    H257953   2.412   3.608  13.906  0.5485  1.8250  0.8455
12180TIP3   OH257954   5.408   2.000  13.630  0.0360  0.0898  0.2832
12180TIP3    H157955   5.496   1.982  13.665  0.3875  0.3355 -0.4645
12180TIP3    H257956   5.349   1.978  13.703  0.8025  1.6381  1.4262
12181TIP3   OH257957   2.410   4.654   5.763 -0.4029  0.2163  0.6985
12181TIP3    H157958   2.338   4.707   5.726 -1.3391 -1.2143  0.3930
12181TIP3    H257959   2.489   4.697   5.732 -1.1334  1.3036  0.2597
12182TIP3   OH257960   5.590   2.255  16.664  0.0931  0.3983  0.2059
12182TIP3    H157961   5.551   2.178  16.624  1.6683  0.2038 -1.0926
12182TIP3    H257962   5.566   2.327  16.605  1.4666  0.2987 -0.5282
12183TIP3   OH257963   4.071   4.221   2.652  0.3437  0.2541 -0.2527
12183TIP3    H157964   4.102   4.228   2.742  0.5894 -2.2473 -0.0995
12183TIP3    H257965   3.976   4.213   2.660  0.4906 -1.5046 -0.0906
12184TIP3   OH257966   0.440   1.148   6.042  0.6451 -0.0626 -0.4681
12184TIP3    H157967   0.499   1.097   6.097  0.4391  1.7446  1.6026
12184TIP3    H257968   0.353   1.113   6.060  0.4887  0.9954  1.0473
12185TIP3   OH257969   6.264   0.921  12.481 -0.2769  0.6404  0.5773
12185TIP3    H157970   6.266   0.938  12.575  0.1506  0.3662  0.6213
12185TIP3    H257971   6.348   0.953  12.449 -0.5130  0.9431  0.2472
12186TIP3   OH257972   4.377   5.453  16.584 -0.0764 -0.0487 -0.6660
12186TIP3    H157973   4.344   5.500  16.507  0.0902 -0.1827 -0.8199
12186TIP3    H257974   4.319   5.480  16.655 -0.1211  0.2137 -0.8021
12187TIP3   OH257975   6.067   1.149   0.676  0.4579  0.2511  0.2735
12187TIP3    H157976   6.152   1.153   0.720  1.2715 -0.9986 -1.0950
12187TIP3    H257977   6.056   1.235   0.636  2.0849 -0.2017 -1.2639
12188TIP3   OH257978   1.557   1.833  11.307 -0.0742 -0.5535  0.5986
12188TIP3    H157979   1.633   1.805  11.257 -1.2094 -1.9413 -0.4443
12188TIP3    H257980   1.525   1.911  11.260 -0.3599 -1.0725 -0.0916
12189TIP3   OH257981   3.523   4.699   5.613  0.2964  0.1360  0.1791
12189TIP3    H157982   3.509   4.791   5.592  1.3731  0.4768  0.8906
12189TIP3    H257983   3.597   4.672   5.559 -0.4842 -0.5362 -0.5867
12190TIP3   OH257984   2.135   4.556   3.227  0.4807  0.0910  0.7129
12190TIP3    H157985   2.128   4.627   3.290  0.5561  2.3626 -1.6687
12190TIP3    H257986   2.228   4.535   3.224  1.3488  3.3612 -1.8954
12191TIP3   OH257987   3.135   0.190  12.015 -0.9055  0.0244 -0.6072
12191TIP3    H157988   3.085   0.230  12.086 -1.0953 -0.3825 -0.5074
12191TIP3    H257989   3.194   0.129  12.058 -2.0741 -1.3438 -0.8854
12192TIP3   OH257990   3.013   2.443  14.006  0.2320  0.2669 -0.5645
12192TIP3    H157991   3.104   2.443  14.033 -0.5204 -0.6347  2.2930
12192TIP3    H257992   3.015   2.419  13.913  2.8015 -1.0425 -0.2373
12193TIP3   OH257993   3.120   5.000  12.776 -0.0697  0.0391 -0.2981
12193TIP3    H157994   3.130   4.941  12.850  4.1857  1.9618  0.9976
12193TIP3    H257995   3.051   5.060  12.803 -1.7236 -1.9289  0.0492
12194TIP3   OH257996   0.222   1.025   1.885 -0.4561 -0.2202 -0.2623
12194TIP3    H157997   0.186   0.938   1.902 -1.7493  0.1313 -1.0392
12194TIP3    H257998   0.294   1.011   1.823 -1.6548 -0.6200 -1.6192
12195TIP3   OH257999   2.538   2.948  12.706 -0.2749  0.3680 -0.0863
12195TIP3    H158000   2.484   2.950  12.786  0.5208 -0.7402  0.4957
12195TIP3    H258001   2.626   2.929  12.737  0.2435  0.9293 -1.1572
12196TIP3   OH258002   5.245   4.021  15.775 -0.6278 -0.0760  0.6563
12196TIP3    H158003   5.327   4.053  15.738 -0.6342  0.7838  1.3724
12196TIP3    H258004   5.180   4.036  15.706 -0.4467  0.5640  0.6211
12197TIP3   OH258005   1.726   6.327  15.220 -0.9740 -0.5710 -0.7743
12197TIP3    H158006   1.713   6.255  15.282 -0.2939  1.4961  1.9717
12197TIP3    H258007   1.676   6.399  15.257  0.4962  1.1473 -1.9644
12198TIP3   OH258008   2.280   5.977  11.194 -0.2832  1.0362 -0.0869
12198TIP3    H158009   2.212   6.013  11.137  0.4564  0.5923 -1.3053
12198TIP3    H258010   2.363   6.003  11.152  0.3143  1.7181  1.4532
12199TIP3   OH258011   6.286   5.597  12.745 -0.1543  0.0495 -0.0656
12199TIP3    H158012   6.204   5.646  12.751 -0.9546 -1.3198  0.5517
12199TIP3    H258013   6.328   5.609  12.830 -0.6214 -0.7772  0.2893
12200TIP3   OH258014   0.607   6.400  14.389 -0.2473 -0.2880  0.5768
12200TIP3    H158015   0.606   6.347  14.469  0.7301  0.7327  1.2983
12200TIP3    H258016   0.615   6.490  14.420  0.3490  0.1137 -0.6727
12201TIP3   OH258017   1.373   0.696   4.019 -0.0841 -0.0337 -0.1235
12201TIP3    H158018   1.301   0.715   3.959 -0.2957  2.7064  0.8617
12201TIP3    H258019   1.451   0.726   3.972  0.1577 -0.8951 -0.2858
12202TIP3   OH258020   1.986   6.323  16.472  0.5944 -0.2807  0.4855
12202TIP3    H158021   1.945   6.403  16.506  1.1374  0.2885 -0.1509
12202TIP3    H258022   2.052   6.355  16.410  0.5907 -1.2376 -0.0303
12203TIP3   OH258023   2.051   0.539   3.577  0.3323  0.5918  0.6829
12203TIP3    H158024   2.032   0.586   3.659 -4.0575 -0.0044  0.2492
12203TIP3    H258025   1.978   0.563   3.519  1.2103 -1.9978 -1.6923
12204TIP3   OH258026   5.289   5.854   4.668  0.1213 -0.6267 -0.2359
12204TIP3    H158027   5.270   5.939   4.627  1.4280 -0.6610 -0.9840
12204TIP3    H258028   5.380   5.861   4.696  0.0197 -1.5338  0.3637
12205TIP3   OH258029   1.206   0.691   6.352  0.1340 -0.4225  1.0742
12205TIP3    H158030   1.117   0.662   6.375 -0.5258  0.3003 -0.4312
12205TIP3    H258031   1.204   0.786   6.366  0.1419 -0.1657 -0.4592
12206TIP3   OH258032   3.747   3.515  12.390  0.0531  0.0608  0.0307
12206TIP3    H158033   3.734   3.519  12.296  0.7215  1.6757 -0.0117
12206TIP3    H258034   3.840   3.496  12.401  0.4664  2.1077  0.3410
12207TIP3   OH258035   5.523   2.824  14.378 -0.4483 -0.2253  0.3518
12207TIP3    H158036   5.571   2.765  14.320 -1.9371 -2.2559  1.0475
12207TIP3    H258037   5.563   2.811  14.464 -0.6002 -0.0086  0.4562
12208TIP3   OH258038   3.081   4.097   5.584  0.4267  0.4482  1.0477
12208TIP3    H158039   3.088   4.093   5.680 -1.1930 -2.7366  1.1361
12208TIP3    H258040   3.164   4.062   5.553 -1.0808 -4.1253  1.5264
12209TIP3   OH258041   2.439   2.613  17.429  0.0154 -0.1968  0.2493
12209TIP3    H158042   2.468   2.676  17.496  1.4994  0.0283 -0.5632
12209TIP3    H258043   2.504   2.543  17.433 -0.4172 -0.6352 -0.3282
12210TIP3   OH258044   3.557   5.915  13.864 -0.3582 -0.4740  0.6783
12210TIP3    H158045   3.608   5.919  13.945  0.8850 -1.1120 -0.0339
12210TIP3    H258046   3.551   5.821  13.844  1.9756 -0.2649 -1.5008
12211TIP3   OH258047   3.631   4.222   1.912  0.3410  0.7501 -0.5092
12211TIP3    H158048   3.618   4.237   2.006  1.5510  0.5386 -0.2890
12211TIP3    H258049   3.611   4.306   1.872 -0.9802  0.6207 -0.1571
12212TIP3   OH258050   4.303   5.001  14.407 -0.3845  0.1318 -0.2707
12212TIP3    H158051   4.352   4.941  14.464 -0.1492 -0.4172 -1.0409
12212TIP3    H258052   4.225   5.024  14.459  0.3621  0.5262  0.7158
12213TIP3   OH258053   3.239   5.573   5.541  0.4994 -0.4783  0.0852
12213TIP3    H158054   3.212   5.527   5.621  1.2119  0.0886  0.6734
12213TIP3    H258055   3.328   5.542   5.525  1.3878  1.3998  1.0819
12214TIP3   OH258056   3.707   6.419  12.086  0.1965  0.0240  0.9372
12214TIP3    H158057   3.721   6.478  12.160 -0.3190  0.7329  0.4889
12214TIP3    H258058   3.626   6.451  12.046 -0.7260 -1.6853  1.3460
12215TIP3   OH258059   0.630   5.848  16.733  0.0967 -0.4493 -0.0758
12215TIP3    H158060   0.688   5.914  16.772 -0.4696  0.3316 -0.5431
12215TIP3    H258061   0.542   5.878  16.753 -0.1725 -1.1842 -0.1193
12216TIP3   OH258062   3.471   3.784  11.453 -0.2114  0.2009  0.3526
12216TIP3    H158063   3.541   3.745  11.506 -0.2654  1.3271  1.2993
12216TIP3    H258064   3.394   3.730  11.473  0.6477 -2.1127 -1.9821
12217TIP3   OH258065   2.370   5.159   5.380 -0.1767 -0.6472  0.1474
12217TIP3    H158066   2.445   5.116   5.421  0.1289  0.4489  0.7923
12217TIP3    H258067   2.295   5.127   5.430 -0.0080 -0.8103  0.3000
12218TIP3   OH258068   5.120   3.440   3.906 -0.5410  0.3589 -0.5845
12218TIP3    H158069   5.158   3.494   3.837  0.8119 -1.2953 -1.1872
12218TIP3    H258070   5.194   3.393   3.945 -1.6388 -1.0701 -0.1073
12219TIP3   OH258071   6.290   3.543   6.558  0.0669 -0.0657 -0.0337
12219TIP3    H158072   6.330   3.552   6.645  0.8654  0.1658 -0.4159
12219TIP3    H258073   6.245   3.626   6.543 -0.2400 -0.1806  0.2375
12220TIP3   OH258074   1.189   2.741   4.680  0.5070 -0.1663  0.1199
12220TIP3    H158075   1.104   2.757   4.640  0.5038 -0.5296 -0.0225
12220TIP3    H258076   1.215   2.826   4.717  0.3564  0.0902 -0.3545
12221TIP3   OH258077   3.688   2.644  12.072 -0.4410  0.1019 -0.3563
12221TIP3    H158078   3.762   2.676  12.124 -0.0483  1.0104 -1.4339
12221TIP3    H258079   3.637   2.590  12.133  0.0853  0.9980  0.9232
12222TIP3   OH258080   2.685   4.394   6.029 -0.1165 -0.0473  0.0683
12222TIP3    H158081   2.691   4.367   6.120  0.3816  0.8741  0.3247
12222TIP3    H258082   2.750   4.340   5.984  0.4180  0.2616  0.4577
12223TIP3   OH258083   2.713   2.070   0.590  0.3078 -0.1058 -0.1185
12223TIP3    H158084   2.738   2.087   0.499  0.7625  0.4620  0.1040
12223TIP3    H258085   2.796   2.064   0.636  0.0687 -0.0083  0.3246
12224TIP3   OH258086   4.286   2.708  12.699 -1.2695  0.5207  0.0940
12224TIP3    H158087   4.217   2.749  12.752 -1.0896 -0.1003  0.8327
12224TIP3    H258088   4.307   2.627  12.746  0.8493  1.3137  0.5936
12225TIP3   OH258089   3.530   0.857   5.202 -0.4931 -0.4941 -0.0286
12225TIP3    H158090   3.447   0.884   5.163 -1.1251 -0.6179  1.1968
12225TIP3    H258091   3.505   0.810   5.282  0.7636  2.3033  2.1905
12226TIP3   OH258092   3.274   1.965  12.377  0.0686 -0.6103  0.6057
12226TIP3    H158093   3.356   1.978  12.328 -1.4143  1.1460 -1.6511
12226TIP3    H258094   3.215   1.923  12.314 -1.1954 -0.5884  1.7275
12227TIP3   OH258095   4.779   0.478  16.642 -0.0723 -0.1046  0.2942
12227TIP3    H158096   4.873   0.496  16.649  0.2565 -0.6321 -2.0257
12227TIP3    H258097   4.741   0.561  16.613 -0.0601 -0.3238 -0.3704
12228TIP3   OH258098   1.133   0.995   2.011  0.3945 -0.7390  0.2383
12228TIP3    H158099   1.174   0.927   1.958 -0.0044 -0.0135 -1.0398
12228TIP3    H258100   1.039   0.987   1.992  0.4464  0.9560 -0.9224
12229TIP3   OH258101   5.452   4.236   3.286 -0.3534  0.1812 -0.2423
12229TIP3    H158102   5.425   4.309   3.342  1.2632  0.5898  0.0584
12229TIP3    H258103   5.510   4.276   3.222  1.1499 -0.9362  0.3725
12230TIP3   OH258104   3.938   0.371  13.429 -0.3052  0.5178 -0.2287
12230TIP3    H158105   3.858   0.392  13.476  0.6418 -0.2245  1.8087
12230TIP3    H258106   3.911   0.367  13.337 -2.1051  2.5375  0.1407
12231TIP3   OH258107   0.110   4.883  17.340  0.5585  0.5032  0.0762
12231TIP3    H158108   0.058   4.825  17.284  0.3820  0.8681 -0.1458
12231TIP3    H258109   0.074   4.869  17.428  1.1550 -0.4245  0.1882
12232TIP3   OH258110   0.833   0.425  12.044  0.7969 -0.2301 -0.0343
12232TIP3    H158111   0.900   0.491  12.028  0.8099  0.3132  1.9850
12232TIP3    H258112   0.753   0.475  12.063 -0.1686 -0.8623 -2.1622
12233TIP3   OH258113   0.867   2.879   1.006  0.6906  0.0376  0.2207
12233TIP3    H158114   0.896   2.908   0.920  1.8838  0.7142  0.8296
12233TIP3    H258115   0.798   2.940   1.030  1.1265  0.5374  0.2135
12234TIP3   OH258116   0.500   1.088   0.138  0.1488  0.6071  0.2317
12234TIP3    H158117   0.470   1.002   0.110 -0.0221  0.8164 -0.2469
12234TIP3    H258118   0.504   1.139   0.057  1.2117  0.7606  0.3759
12235TIP3   OH258119   0.391   6.194   2.620 -0.3873 -0.0713 -0.6217
12235TIP3    H158120   0.322   6.147   2.667  0.8859 -1.7427 -0.3456
12235TIP3    H258121   0.418   6.263   2.681  0.5664 -1.5973  0.7826
12236TIP3   OH258122   0.733   5.283  16.143 -0.2064  0.1201  0.2830
12236TIP3    H158123   0.738   5.199  16.096 -0.7625 -0.8591  1.8942
12236TIP3    H258124   0.695   5.343  16.079 -1.3031 -1.2522 -0.4188
12237TIP3   OH258125   2.014   2.216   3.890 -0.2173  0.0206 -0.0110
12237TIP3    H158126   2.085   2.246   3.947 -0.4206  0.5657 -0.0325
12237TIP3    H258127   2.012   2.121   3.901  1.3658 -0.1728 -0.9909
12238TIP3   OH258128   6.505   0.616   6.292  0.5243  0.8400  0.5684
12238TIP3    H158129   6.466   0.703   6.288 -3.0600 -0.6437 -1.4537
12238TIP3    H258130   6.448   0.567   6.352  0.6063 -0.8442 -0.6587
12239TIP3   OH258131   1.585   1.749  12.273 -0.1245  0.0290 -0.3822
12239TIP3    H158132   1.641   1.792  12.337 -1.6755  0.8965  0.4252
12239TIP3    H258133   1.590   1.656  12.295  0.9854  0.0937 -0.3288
12240TIP3   OH258134   1.483   0.988  13.571 -0.0720 -0.9385 -0.3071
12240TIP3    H158135   1.483   0.990  13.475 -2.2767 -1.2679 -0.3770
12240TIP3    H258136   1.479   1.080  13.596 -1.0471 -0.8889 -0.5982
12241TIP3   OH258137   3.305   2.101   1.214 -0.0773 -0.1134 -0.2238
12241TIP3    H158138   3.286   2.084   1.306 -2.2764  0.8731 -0.4240
12241TIP3    H258139   3.237   2.163   1.186 -0.0118 -1.0259 -2.7283
12242TIP3   OH258140   2.916   4.304   5.660 -0.5265 -0.3217 -0.0542
12242TIP3    H158141   2.955   4.228   5.616 -0.6567 -0.6657  0.4224
12242TIP3    H258142   2.916   4.372   5.593  0.5092 -0.4414 -0.1978
12243TIP3   OH258143   2.919   5.446  15.921 -0.4446  0.9993 -0.6295
12243TIP3    H158144   2.862   5.502  15.867 -4.2739  0.6219  2.5288
12243TIP3    H258145   2.972   5.508  15.971 -0.6354  1.5546 -1.0949
12244TIP3   OH258146   3.876   5.387   5.668  0.0678 -0.2937  0.1755
12244TIP3    H158147   3.932   5.382   5.591  0.2792 -0.0880  0.3096
12244TIP3    H258148   3.936   5.412   5.739 -0.3526  0.9800  0.1220
12245TIP3   OH258149   1.148   6.204  16.727 -0.2844 -0.8702 -0.7579
12245TIP3    H158150   1.058   6.184  16.751 -0.5511  1.7823  0.9358
12245TIP3    H258151   1.195   6.209  16.810  1.2875 -1.4787 -1.5522
12246TIP3   OH258152   6.647   0.423  16.949 -0.4394  0.1485 -0.4710
12246TIP3    H158153   6.696   0.495  16.989 -0.1489  0.5518 -1.5167
12246TIP3    H258154   6.556   0.452  16.953 -0.4521  0.0164  0.2308
12247TIP3   OH258155   6.674   5.475   4.104  0.1115 -0.3141  0.1776
12247TIP3    H158156   6.676   5.385   4.138  0.6193 -0.6044 -0.5785
12247TIP3    H258157   6.696   5.530   4.179  1.9405 -0.9851  0.1901
12248TIP3   OH258158   5.064   2.996   0.674 -0.3704  0.5909  0.6180
12248TIP3    H158159   5.076   3.087   0.646 -2.5218  0.7637  0.0725
12248TIP3    H258160   5.032   3.002   0.764 -2.7798  0.5630 -0.1670
12249TIP3   OH258161   4.577   0.299   4.091 -0.2351  0.1186  0.1045
12249TIP3    H158162   4.625   0.286   4.173  0.4896  0.5596 -0.2451
12249TIP3    H258163   4.487   0.319   4.120 -0.1042 -0.2020  0.7714
12250TIP3   OH258164   0.880   1.292   5.602  0.1203 -0.1781  0.0346
12250TIP3    H158165   0.817   1.226   5.631  1.8231 -2.0670 -0.3141
12250TIP3    H258166   0.905   1.265   5.514  1.3556  0.5463  0.1307
12251TIP3   OH258167   1.263   2.803  15.007 -0.5829  0.0404  0.0742
12251TIP3    H158168   1.197   2.870  15.025  1.1180  1.8363 -0.0047
12251TIP3    H258169   1.309   2.791  15.090  0.4384  0.5221 -0.3977
12252TIP3   OH258170   1.056   0.700  13.673 -0.0194  0.0626  0.6582
12252TIP3    H158171   1.019   0.746  13.749  0.6217 -1.5075  1.9713
12252TIP3    H258172   1.057   0.766  13.604 -0.5330  1.5840  2.0344
12253TIP3   OH258173   6.170   0.314   1.985  0.6080  0.4841  0.2580
12253TIP3    H158174   6.169   0.409   1.995 -0.6090  0.5246 -0.0188
12253TIP3    H258175   6.232   0.298   1.913  0.7620  1.0723  0.2562
12254TIP3   OH258176   5.338   2.717  15.179 -0.0691  0.4510  0.0326
12254TIP3    H158177   5.260   2.668  15.151 -0.1949  0.5059  0.2896
12254TIP3    H258178   5.313   2.809  15.169 -0.2600  0.4744  0.7353
12255TIP3   OH258179   6.582   5.101  13.171 -0.8701 -0.3059 -0.2777
12255TIP3    H158180   6.488   5.095  13.158 -1.0031  2.8957 -1.7839
12255TIP3    H258181   6.598   5.193  13.192  1.9313 -0.7096 -0.2344
12256TIP3   OH258182   4.270   4.774  16.406  0.0785  0.4193 -0.4308
12256TIP3    H158183   4.324   4.736  16.475 -0.6815  0.9982  0.5111
12256TIP3    H258184   4.249   4.861  16.437 -1.2600  0.2718 -0.8418
12257TIP3   OH258185   0.177   2.137  11.062  0.3143  0.1416 -0.5484
12257TIP3    H158186   0.228   2.127  10.981  0.0356  1.1620 -0.8658
12257TIP3    H258187   0.093   2.096  11.042  0.8772 -1.2508 -0.1357
12258TIP3   OH258188   0.349   1.640   1.889 -0.4478 -0.3706 -0.0473
12258TIP3    H158189   0.389   1.605   1.969 -0.1467  0.1428  0.0385
12258TIP3    H258190   0.258   1.657   1.913 -0.7617 -1.6528 -0.2751
12259TIP3   OH258191   3.691   5.468   1.902  0.3138  0.1120 -0.2739
12259TIP3    H158192   3.776   5.439   1.935  0.7361  0.3942 -1.0972
12259TIP3    H258193   3.639   5.387   1.895 -0.1352  0.1298  1.9551
12260TIP3   OH258194   6.160   2.320  12.533 -0.2300 -0.2389  0.4974
12260TIP3    H158195   6.248   2.286  12.550 -0.8164 -2.2752 -0.2416
12260TIP3    H258196   6.166   2.361  12.447 -0.6318 -3.1084 -1.0042
12261TIP3   OH258197   6.268   4.993  17.053 -0.0994  0.3940  0.2439
12261TIP3    H158198   6.321   4.919  17.083 -0.0143 -0.6457 -2.2398
12261TIP3    H258199   6.325   5.069  17.064  0.7523 -0.2737  0.5172
12262TIP3   OH258200   4.604   1.148  17.035 -0.0943 -0.3655  0.4232
12262TIP3    H158201   4.687   1.173  17.073 -0.4243 -0.1295  1.0001
12262TIP3    H258202   4.622   1.066  16.988  0.2928 -0.7254  1.1806
12263TIP3   OH258203   3.876   1.459  11.149  0.0026 -0.3773 -0.1195
12263TIP3    H158204   3.797   1.502  11.116  0.4850  2.2163  1.7758
12263TIP3    H258205   3.911   1.412  11.073 -1.9506  0.5475 -1.6947
12264TIP3   OH258206   2.825   0.943   3.524 -0.6603  0.0476  0.1108
12264TIP3    H158207   2.806   0.877   3.591  0.0182  1.8177  2.1433
12264TIP3    H258208   2.810   1.027   3.567  0.9203  1.2981 -1.6030
12265TIP3   OH258209   4.235   4.661  12.056  0.7748  0.2668  0.0952
12265TIP3    H158210   4.308   4.723  12.058  2.3863 -1.4914 -1.1424
12265TIP3    H258211   4.162   4.709  12.096  2.3816  2.3459  0.7150
12266TIP3   OH258212   1.970   6.017   6.129 -1.0497 -0.0965 -0.0938
12266TIP3    H158213   1.989   6.014   6.036 -1.3152 -0.5750 -0.1369
12266TIP3    H258214   1.948   6.108   6.147 -0.2535  0.1507 -0.3438
12267TIP3   OH258215   3.770   1.699   3.920  0.5022 -0.4720 -0.2322
12267TIP3    H158216   3.740   1.717   4.009  1.9360 -0.0650  0.2051
12267TIP3    H258217   3.795   1.606   3.922  1.4270 -0.2295  0.0877
12268TIP3   OH258218   1.728   5.606  14.629 -0.2192  0.0621  0.2810
12268TIP3    H158219   1.643   5.629  14.666 -1.5693 -1.5329 -1.5928
12268TIP3    H258220   1.761   5.688  14.592 -1.4187  0.5331  0.2065
12269TIP3   OH258221   6.107   3.558   5.100  0.1888 -0.0735 -0.5693
12269TIP3    H158222   6.129   3.522   5.014  0.2243 -0.5374 -0.3726
12269TIP3    H258223   6.185   3.545   5.153  0.2537  0.4415 -0.5363
12270TIP3   OH258224   4.974   2.488  13.593  0.4138  0.2432  0.3580
12270TIP3    H158225   5.001   2.431  13.665 -0.5000  0.7433  1.1178
12270TIP3    H258226   4.894   2.447  13.559 -0.5155  1.2990  1.2134
12271TIP3   OH258227   1.992   1.680  12.969  0.2651  0.0745  0.0865
12271TIP3    H158228   1.951   1.630  12.898 -0.1903  0.3219  0.1716
12271TIP3    H258229   2.048   1.616  13.014  0.0805 -0.2354 -0.1211
12272TIP3   OH258230   3.322   4.865   1.154 -0.3001 -0.1453 -0.1381
12272TIP3    H158231   3.250   4.925   1.172 -1.6776 -2.2088  1.5305
12272TIP3    H258232   3.280   4.784   1.125  1.2311 -1.6811  1.6543
12273TIP3   OH258233   5.876   6.090   1.562 -0.1585 -0.6624 -0.1713
12273TIP3    H158234   5.815   6.162   1.546  1.2169  1.3620  2.7200
12273TIP3    H258235   5.820   6.013   1.573 -2.1800  0.8828  1.2114
12274TIP3   OH258236   5.776   2.995  12.367  0.2515 -0.3840 -0.0918
12274TIP3    H158237   5.785   3.044  12.449  0.5787 -1.2705  0.4121
12274TIP3    H258238   5.716   2.924  12.388  0.3394 -0.6162 -0.6211
12275TIP3   OH258239   6.332   4.992   5.269  0.3677  0.1878 -0.1093
12275TIP3    H158240   6.408   4.942   5.238  0.1308  0.3847 -1.0327
12275TIP3    H258241   6.369   5.060   5.326  0.9285  0.5647 -0.9091
12276TIP3   OH258242   4.694   4.752   2.863 -0.6366 -0.5838 -0.3266
12276TIP3    H158243   4.784   4.776   2.842 -0.8536  1.3269  0.7073
12276TIP3    H258244   4.700   4.660   2.892  0.9077 -0.5882 -0.5848
12277TIP3   OH258245   0.369   6.249   5.496 -0.0695 -0.5769  0.3675
12277TIP3    H158246   0.297   6.258   5.433  0.0700 -0.5748  0.2058
12277TIP3    H258247   0.448   6.253   5.442  0.0433 -0.9476  0.5007
12278TIP3   OH258248   6.199   5.988  16.137 -0.2008 -0.1164 -0.4238
12278TIP3    H158249   6.143   6.042  16.192 -0.2729 -0.4856 -0.1242
12278TIP3    H258250   6.228   6.046  16.067  2.2091  1.2383  1.5133
12279TIP3   OH258251   6.139   2.285   2.939 -0.2536 -0.0274  0.4267
12279TIP3    H158252   6.050   2.311   2.914 -0.4384 -2.1973 -1.5793
12279TIP3    H258253   6.189   2.366   2.939 -2.1106  1.1735  1.0529
12280TIP3   OH258254   4.316   3.536  16.675  0.7704  0.0630  0.5059
12280TIP3    H158255   4.254   3.605  16.699 -0.4069 -0.5522 -0.6457
12280TIP3    H258256   4.270   3.455  16.696  2.0631 -0.3987  1.6645
12281TIP3   OH258257   5.387   2.305   2.278 -0.0228 -0.3457 -0.1401
12281TIP3    H158258   5.429   2.252   2.210 -0.4213 -1.2915  0.3320
12281TIP3    H258259   5.405   2.395   2.252  0.6975 -0.7040 -0.9483
12282TIP3   OH258260   5.792   4.907   1.307  0.7960 -0.3362 -0.1567
12282TIP3    H158261   5.796   4.965   1.232  0.8323 -0.6300 -0.3859
12282TIP3    H258262   5.859   4.940   1.367  1.5552 -0.7777 -0.7481
12283TIP3   OH258263   5.609   5.928   3.125  0.4810  0.3012 -0.0030
12283TIP3    H158264   5.642   5.931   3.035  0.3470 -0.5948 -0.0889
12283TIP3    H258265   5.581   6.018   3.143  1.0126  0.6083 -0.6640
12284TIP3   OH258266   3.705   1.189   4.287 -0.1557 -0.3159 -0.3836
12284TIP3    H158267   3.796   1.161   4.277 -0.0483  0.1840 -0.8742
12284TIP3    H258268   3.654   1.108   4.278  0.3295 -0.9963  2.1924
12285TIP3   OH258269   0.744   1.848   2.416  0.0707  0.2601  1.2149
12285TIP3    H158270   0.699   1.796   2.349  0.5940 -2.2471  2.6827
12285TIP3    H258271   0.829   1.805   2.427  1.1592  2.3414  1.5081
12286TIP3   OH258272   1.692   3.633  16.583 -0.5069 -0.0959  0.3272
12286TIP3    H158273   1.727   3.606  16.498 -0.1993  0.2958  0.3283
12286TIP3    H258274   1.765   3.678  16.626 -1.1478  1.1915  0.1216
12287TIP3   OH258275   3.733   6.532  13.112 -0.2434  0.4023  0.3467
12287TIP3    H158276   3.804   6.472  13.138 -0.1760 -0.1921 -1.1309
12287TIP3    H258277   3.775   6.618  13.107  0.6963 -0.1113 -1.5969
12288TIP3   OH258278   2.959   5.556   6.294  0.1930  0.1254 -0.3809
12288TIP3    H158279   3.044   5.512   6.296 -0.5616 -1.5082 -1.6680
12288TIP3    H258280   2.908   5.512   6.362 -0.0746  0.0609 -0.6192
12289TIP3   OH258281   6.579   0.959   0.233  0.4691  0.3748  0.0876
12289TIP3    H158282   6.530   0.878   0.217 -0.3129  0.7936  0.3166
12289TIP3    H258283   6.663   0.944   0.191  0.6745 -0.9156  0.8928
12290TIP3   OH258284   1.791   0.552  11.456 -0.7006  0.0780  0.0650
12290TIP3    H158285   1.722   0.586  11.399 -1.4456 -0.8374  0.3891
12290TIP3    H258286   1.872   0.589  11.421 -1.0922 -0.7413 -1.8075
12291TIP3   OH258287   2.975   2.046  14.563  0.3675 -0.7497 -0.2463
12291TIP3    H158288   2.997   2.015  14.475 -1.7436 -0.9175 -0.7739
12291TIP3    H258289   2.911   1.982  14.595 -1.9936  1.4375 -0.2484
12292TIP3   OH258290   6.104   2.911  12.303 -0.4097  0.8343  0.0783
12292TIP3    H158291   6.061   2.825  12.299 -1.1339  1.1632  0.6424
12292TIP3    H258292   6.056   2.965  12.240 -0.9079  1.2329  0.7873
12293TIP3   OH258293   0.072   2.365  13.445 -0.1786  0.1560  0.2567
12293TIP3    H158294   0.160   2.401  13.459 -0.6178  1.8052 -0.9013
12293TIP3    H258295   0.088   2.280  13.403  0.8630  0.1513  0.6250
12294TIP3   OH258296   0.112   6.340  17.273 -0.3700 -0.3822  0.0716
12294TIP3    H158297   0.147   6.307  17.356 -2.0881 -0.1863  0.9358
12294TIP3    H258298   0.057   6.268  17.241  0.2654 -0.4444 -0.8944
12295TIP3   OH258299   2.599   1.965   3.862 -0.0890  0.2567 -0.1707
12295TIP3    H158300   2.610   1.903   3.790 -1.6007 -0.0752 -0.1647
12295TIP3    H258301   2.507   1.954   3.889  0.3059  0.7149  1.4889
12296TIP3   OH258302   5.629   4.445   0.986 -0.2872  0.0509 -0.2940
12296TIP3    H158303   5.652   4.510   0.920 -0.4660  1.3225  0.8282
12296TIP3    H258304   5.537   4.424   0.968 -0.0558 -0.3307 -1.0241
12297TIP3   OH258305   6.008   0.220  17.160 -0.5162  0.3871  0.0432
12297TIP3    H158306   5.942   0.249  17.223  0.5133  1.3739  0.7164
12297TIP3    H258307   6.087   0.209  17.212 -0.3684 -1.8645 -0.5556
12298TIP3   OH258308   2.371   2.882  16.984  0.5187  0.7251 -0.1114
12298TIP3    H158309   2.409   2.906  17.069  0.2157 -0.6247  0.4180
12298TIP3    H258310   2.305   2.949  16.968  0.6398  1.0465  0.6731
12299TIP3   OH258311   0.801   3.373  12.304  0.6030 -0.1059  0.2798
12299TIP3    H158312   0.734   3.314  12.339  1.0781 -0.6061  0.3707
12299TIP3    H258313   0.855   3.396  12.379  1.7883 -1.4003 -0.1136
12300TIP3   OH258314   4.086   6.681  11.350  0.2982 -0.0694  0.1627
12300TIP3    H158315   4.142   6.670  11.427 -0.5505  0.0339  0.8054
12300TIP3    H258316   4.138   6.734  11.290  0.6557  0.5524  1.0087
12301TIP3   OH258317   5.187   4.485   4.617  1.0904  0.2312  0.4490
12301TIP3    H158318   5.161   4.551   4.552  0.1899 -0.6789 -0.1353
12301TIP3    H258319   5.164   4.523   4.701  2.1973  1.3980  0.2656
12302TIP3   OH258320   5.339   1.200   1.203 -0.0740 -0.2566 -0.2139
12302TIP3    H158321   5.407   1.177   1.141  0.3265  1.1867 -0.3509
12302TIP3    H258322   5.261   1.217   1.149 -0.2237 -0.7708 -0.1600
12303TIP3   OH258323   2.221   0.835   2.371  0.0508 -0.1133  0.1199
12303TIP3    H158324   2.275   0.853   2.448  1.9513  2.7955 -1.6975
12303TIP3    H258325   2.258   0.890   2.302 -0.7955 -3.3693 -3.2839
12304TIP3   OH258326   3.469   1.270  12.960  0.1870  0.5278 -0.3620
12304TIP3    H158327   3.490   1.185  12.920  0.2805 -0.2526  1.2644
12304TIP3    H258328   3.547   1.292  13.012  0.6389  2.2139 -1.6757
12305TIP3   OH258329   2.678   2.324   5.634  0.0598 -0.0719 -0.1062
12305TIP3    H158330   2.747   2.388   5.617 -1.2886  0.9598 -2.1589
12305TIP3    H258331   2.690   2.257   5.567 -2.0391  1.1685 -1.8587
12306TIP3   OH258332   1.078   2.587  16.141  0.2898 -0.2900  0.5037
12306TIP3    H158333   1.088   2.502  16.182  0.8126 -0.7127 -0.4781
12306TIP3    H258334   1.023   2.637  16.202  0.5284 -1.1006  1.3973
12307TIP3   OH258335   2.125   5.018  13.424  0.8360 -0.1819 -0.4025
12307TIP3    H158336   2.094   5.011  13.514  3.1604 -2.5275  0.3553
12307TIP3    H258337   2.125   4.929  13.391  2.2827  0.3065 -1.8844
12308TIP3   OH258338   1.210   5.359  17.291 -0.0646 -0.2371 -0.3867
12308TIP3    H158339   1.299   5.395  17.285  0.2337 -1.0065 -0.7419
12308TIP3    H258340   1.170   5.406  17.364  1.1422 -0.9529  0.7778
12309TIP3   OH258341   2.248   5.244  13.951  0.2738 -0.2744  0.0073
12309TIP3    H158342   2.159   5.230  13.918  0.9341 -1.3679 -1.3877
12309TIP3    H258343   2.285   5.310  13.893  0.0885  0.9303  1.1986
12310TIP3   OH258344   3.138   6.243  13.428 -0.0533  0.7282 -0.0225
12310TIP3    H158345   3.185   6.161  13.443  1.8684  1.6677 -0.5967
12310TIP3    H258346   3.138   6.286  13.514 -1.7751 -0.1537  0.4800
12311TIP3   OH258347   3.597   3.388   0.934  0.3797  0.3025 -0.2268
12311TIP3    H158348   3.600   3.357   0.843  0.7176  1.9501 -0.8206
12311TIP3    H258349   3.504   3.389   0.955  0.3558 -1.0123 -0.1996
12312TIP3   OH258350   1.489   4.394  12.773 -0.3677 -0.3108  0.8944
12312TIP3    H158351   1.422   4.444  12.728 -0.6604 -1.4212  0.0625
12312TIP3    H258352   1.533   4.458  12.830 -1.3515  0.6637  0.5801
12313TIP3   OH258353   6.519   6.254   1.914  0.2146 -0.3245 -0.1081
12313TIP3    H158354   6.424   6.252   1.926  0.1825 -1.1896 -0.4957
12313TIP3    H258355   6.549   6.167   1.940  0.9553  0.0841  0.4284
12314TIP3   OH258356   1.878   6.505   1.482 -0.0165 -0.1537 -0.1440
12314TIP3    H158357   1.947   6.556   1.524  0.5333  0.6064 -1.8485
12314TIP3    H258358   1.799   6.558   1.493  0.1229  0.0434 -0.0770
12315TIP3   OH258359   0.594   3.601  16.906 -0.0818 -0.6754 -0.5632
12315TIP3    H158360   0.548   3.545  16.968 -0.8379 -1.8935 -2.1558
12315TIP3    H258361   0.561   3.689  16.923 -0.2332 -0.9726  0.7694
12316TIP3   OH258362   4.235   1.492  12.535 -0.4805  0.7280  0.7723
12316TIP3    H158363   4.207   1.554  12.468 -1.9868  2.9953  3.3082
12316TIP3    H258364   4.313   1.533  12.574  0.8207 -0.9167  0.0327
12317TIP3   OH258365   1.097   4.678   1.588 -0.0853  0.7325 -0.4168
12317TIP3    H158366   1.190   4.676   1.565  0.0884  1.9030  0.1003
12317TIP3    H258367   1.089   4.617   1.661  0.1208  0.0454 -0.9623
12318TIP3   OH258368   4.681   0.592  11.383  0.0956 -0.4489 -0.6167
12318TIP3    H158369   4.747   0.590  11.452  0.4970 -1.9885 -1.0279
12318TIP3    H258370   4.601   0.621  11.428  0.4666 -0.9539  0.4010
12319TIP3   OH258371   0.983   0.532   6.717 -0.1359  0.0388  0.7817
12319TIP3    H158372   1.048   0.603   6.722  0.6503 -0.4351 -1.3471
12319TIP3    H258373   1.035   0.452   6.718 -0.7444 -0.3845  0.1206
12320TIP3   OH258374   2.105   1.460  13.668 -0.1194 -0.0642 -0.0855
12320TIP3    H158375   2.151   1.530  13.621 -0.8514 -0.1407 -0.9328
12320TIP3    H258376   2.136   1.379  13.627  1.8255 -0.3865  1.8381
12321TIP3   OH258377   1.424   5.952   3.505  0.2104  0.0483 -0.2926
12321TIP3    H158378   1.491   5.922   3.443  1.5700  0.3900  0.9664
12321TIP3    H258379   1.427   5.888   3.576 -0.1184  0.6221  0.2421
12322TIP3   OH258380   4.628   4.599  11.269  0.7367  0.1720  0.0862
12322TIP3    H158381   4.663   4.630  11.185 -1.5430 -2.8828 -2.2229
12322TIP3    H258382   4.668   4.513  11.281 -0.8192 -0.4834  0.8078
12323TIP3   OH258383   0.888   6.471   0.790  0.2080 -0.4106 -0.1122
12323TIP3    H158384   0.827   6.453   0.718 -0.3532  2.1104 -0.3436
12323TIP3    H258385   0.933   6.551   0.765  1.5272 -0.6079  1.4269
12324TIP3   OH258386   5.889   0.428  11.951 -0.3597  0.0340  0.0034
12324TIP3    H158387   5.850   0.431  11.863  0.6374  0.6052 -0.4365
12324TIP3    H258388   5.953   0.357  11.947  0.6350  0.9100 -0.1613
12325TIP3   OH258389   1.791   1.959   4.464  0.5637  0.0788 -0.5478
12325TIP3    H158390   1.770   1.878   4.417  1.7641 -0.7676  0.2983
12325TIP3    H258391   1.727   1.962   4.536  0.1399  0.2086 -0.9249
12326TIP3   OH258392   0.968   0.088   1.063  0.0299 -0.2510 -0.1949
12326TIP3    H158393   1.060   0.104   1.041 -0.2144 -1.0288 -2.0110
12326TIP3    H258394   0.971   0.030   1.139  1.1163 -1.7024 -1.2911
12327TIP3   OH258395   2.839   6.296  16.626 -0.2724  0.1624 -0.1586
12327TIP3    H158396   2.853   6.267  16.535  1.5344  1.1903 -0.2369
12327TIP3    H258397   2.848   6.216  16.678 -2.4103 -0.6540 -0.9058
12328TIP3   OH258398   0.860   4.160  11.900  0.0265 -0.0561  0.6343
12328TIP3    H158399   0.784   4.148  11.957  0.3003 -1.3270  0.7659
12328TIP3    H258400   0.936   4.141  11.956  0.3631 -0.1815  0.1459
12329TIP3   OH258401   5.279   0.694  16.078 -0.0748  0.2342  0.2572
12329TIP3    H158402   5.223   0.619  16.056 -0.0084 -0.3036  1.8584
12329TIP3    H258403   5.365   0.656  16.098  0.5595  0.9452 -0.9510
12330TIP3   OH258404   3.197   4.743  16.308 -0.2044  0.4195  0.9000
12330TIP3    H158405   3.132   4.695  16.358  1.1062 -0.6419  1.6537
12330TIP3    H258406   3.222   4.684  16.237 -0.2103  0.9098  0.4762
12331TIP3   OH258407   1.267   3.476   5.264  0.6022 -0.1850  0.0735
12331TIP3    H158408   1.351   3.444   5.295  0.8274  1.3577  1.2004
12331TIP3    H258409   1.286   3.560   5.222 -0.3473  0.1548  0.2789
12332TIP3   OH258410   2.840   2.699   2.074  0.3990 -0.1067 -0.1888
12332TIP3    H158411   2.920   2.649   2.089 -0.6541 -2.0469 -0.6492
12332TIP3    H258412   2.774   2.654   2.128 -1.0597 -0.5871 -2.2483
12333TIP3   OH258413   2.779   0.483   4.015  0.2714  0.3725  0.4364
12333TIP3    H158414   2.845   0.469   3.947 -0.7524  0.3792 -0.5935
12333TIP3    H258415   2.779   0.402   4.066  0.0407 -0.2255 -0.4799
12334TIP3   OH258416   0.795   5.894  11.789  0.6218  0.0270 -0.4969
12334TIP3    H158417   0.833   5.879  11.876  0.0787  0.4414 -0.1770
12334TIP3    H258418   0.847   5.965  11.752  0.3586  0.3917 -0.1800
12335TIP3   OH258419   1.666   6.056  15.394 -0.2150 -0.1607  0.0222
12335TIP3    H158420   1.639   5.965  15.391  1.7266 -0.7775 -1.8974
12335TIP3    H258421   1.589   6.104  15.423 -1.3476 -2.3537  0.8737
12336TIP3   OH258422   0.606   4.359  11.476 -0.3897 -0.4512  0.2767
12336TIP3    H158423   0.669   4.410  11.425 -0.2495  0.8654  1.6970
12336TIP3    H258424   0.528   4.355  11.421  0.7682 -1.8029 -1.3652
12337TIP3   OH258425   0.314   5.715   4.468 -0.3376  0.5428 -0.1128
12337TIP3    H158426   0.402   5.733   4.436 -0.6060  0.0570 -1.1466
12337TIP3    H258427   0.279   5.801   4.494  0.7456  0.6316  1.1715
12338TIP3   OH258428   2.490   5.874  14.563  0.3155  0.3235  0.4579
12338TIP3    H158429   2.456   5.787  14.585  0.1271  0.2131 -0.2582
12338TIP3    H258430   2.577   5.877  14.603  0.2678 -0.1443  0.5977
12339TIP3   OH258431   5.894   2.406  11.978 -0.1081  0.1568 -0.0446
12339TIP3    H158432   5.900   2.502  11.985  2.3390  0.0645  0.0283
12339TIP3    H258433   5.809   2.391  11.936 -0.7744  2.3164  0.3624
12340TIP3   OH258434   0.084   1.726   4.013  0.0956 -0.2966  0.0987
12340TIP3    H158435   0.168   1.687   3.987  0.2347 -0.2863  0.5131
12340TIP3    H258436   0.029   1.650   4.033 -0.0359 -0.3060 -0.3019
12341TIP3   OH258437   4.193   5.605   0.488  0.6329  0.0214 -0.0505
12341TIP3    H158438   4.248   5.577   0.415  2.0509  0.4531  0.8129
12341TIP3    H258439   4.185   5.527   0.543 -0.2423 -0.2402 -0.5375
12342TIP3   OH258440   1.709   4.987  16.596  0.3114  0.3942 -0.1209
12342TIP3    H158441   1.770   5.043  16.644 -0.7913  0.3164  1.4768
12342TIP3    H258442   1.635   5.045  16.576 -0.2501 -0.1417  0.3613
12343TIP3   OH258443   2.654   5.876   0.433  0.4316  0.1312  0.6317
12343TIP3    H158444   2.672   5.796   0.481  0.9861  0.4009  0.8861
12343TIP3    H258445   2.698   5.945   0.483 -1.9322  0.9802  1.7113
12344TIP3   OH258446   4.247   2.877   5.137  0.9110 -0.1292  0.1823
12344TIP3    H158447   4.243   2.790   5.178 -0.4853  0.3532  1.1496
12344TIP3    H258448   4.158   2.911   5.146  0.8948  0.5611 -2.0946
12345TIP3   OH258449   0.123   5.540  13.451  0.3568 -0.1672  0.2499
12345TIP3    H158450   0.031   5.535  13.479 -0.0866 -0.3173 -1.1452
12345TIP3    H258451   0.118   5.569  13.359  1.7342  0.2998  0.3040
12346TIP3   OH258452   3.009   2.602   0.965  0.1449 -0.0460  0.2373
12346TIP3    H158453   2.916   2.589   0.985  0.2146 -0.8556  0.0602
12346TIP3    H258454   3.026   2.541   0.893  0.7789  0.2111  0.1686
12347TIP3   OH258455   4.139   0.564  14.266  0.4300  0.3533 -0.1663
12347TIP3    H158456   4.097   0.650  14.274 -0.9069 -0.2461 -0.4068
12347TIP3    H258457   4.142   0.530  14.356 -4.1133 -1.5924 -0.4980
12348TIP3   OH258458   0.878   5.318   4.754  0.3016 -0.0088  0.4767
12348TIP3    H158459   0.970   5.296   4.737 -0.1901 -0.7013 -1.5705
12348TIP3    H258460   0.879   5.413   4.770  1.4233 -0.0851  0.9669
12349TIP3   OH258461   3.218   4.236   3.965  0.1259 -0.3711  0.5210
12349TIP3    H158462   3.192   4.225   4.057 -0.0997 -0.5669  0.4354
12349TIP3    H258463   3.137   4.221   3.916  0.3035 -0.5270  0.2744
12350TIP3   OH258464   4.048   2.374   1.500  0.1159 -0.2634 -0.4453
12350TIP3    H158465   4.105   2.326   1.560  1.5860  1.1498 -0.6249
12350TIP3    H258466   4.069   2.466   1.516 -3.0432  0.4544  0.3590
12351TIP3   OH258467   5.149   5.448  16.345  0.3651  0.5695  0.8961
12351TIP3    H158468   5.104   5.396  16.411  0.1569 -0.9461 -0.3809
12351TIP3    H258469   5.079   5.489  16.294  0.4437 -0.0554  0.2591
12352TIP3   OH258470   2.507   3.923  16.955 -0.3795  0.5003 -0.8171
12352TIP3    H158471   2.510   4.018  16.961 -1.9036  0.4833  2.2198
12352TIP3    H258472   2.433   3.905  16.897 -1.7848  1.2519  0.6584
12353TIP3   OH258473   5.397   1.988   3.530  0.1934  0.8263  0.0709
12353TIP3    H158474   5.486   2.021   3.537  1.0457 -0.5408 -2.8208
12353TIP3    H258475   5.401   1.901   3.569  0.6965 -0.0344 -1.7997
12354TIP3   OH258476   4.951   0.669   4.216  0.1041  0.2671  0.2901
12354TIP3    H158477   4.984   0.604   4.154 -2.2377 -0.0462 -0.7275
12354TIP3    H258478   4.954   0.626   4.301  2.3294  0.3114  0.2952
12355TIP3   OH258479   4.379   5.476  11.558  0.8023 -0.1246 -0.4995
12355TIP3    H158480   4.328   5.556  11.561  1.3933  0.2382  0.3366
12355TIP3    H258481   4.469   5.505  11.545  0.9109 -0.7076 -1.1362
12356TIP3   OH258482   3.352   1.235   4.239 -0.2079 -0.6922  0.6005
12356TIP3    H158483   3.422   1.225   4.175 -1.3463 -1.1411 -0.6044
12356TIP3    H258484   3.396   1.225   4.324  1.5360  1.0939 -0.0039
12357TIP3   OH258485   4.585   0.173   1.618  0.0754  0.3577  0.2871
12357TIP3    H158486   4.654   0.235   1.642  0.3906  0.5962 -1.1564
12357TIP3    H258487   4.581   0.177   1.523 -1.4121 -0.2348  0.2986
12358TIP3   OH258488   5.873   3.858  16.249  0.1797  0.8904  0.3964
12358TIP3    H158489   5.818   3.851  16.171 -1.1077 -1.2770  1.4172
12358TIP3    H258490   5.895   3.768  16.271 -0.5565  1.3122  3.2397
12359TIP3   OH258491   0.932   1.852  17.403  0.0654  0.4482 -0.2974
12359TIP3    H158492   0.968   1.930  17.446 -0.8442  1.6877 -1.6871
12359TIP3    H258493   0.895   1.800  17.475  1.3767  0.8868  0.7394
12360TIP3   OH258494   2.109   6.338   5.842 -0.4793  0.2859  0.8872
12360TIP3    H158495   2.033   6.383   5.807  0.2555  0.5173 -0.4960
12360TIP3    H258496   2.139   6.394   5.914 -1.4582  0.3077  1.2887
12361TIP3   OH258497   0.156   6.353  12.981 -0.1196  0.1259  0.3293
12361TIP3    H158498   0.210   6.296  13.035 -0.5137 -0.3381  0.2460
12361TIP3    H258499   0.157   6.438  13.026 -0.1497 -0.1570  0.8672
12362TIP3   OH258500   4.515   6.322  11.911 -0.0489 -0.5199 -0.0767
12362TIP3    H158501   4.541   6.324  12.003 -0.4784 -0.4596  0.0483
12362TIP3    H258502   4.435   6.375  11.908  0.8214  0.7896 -0.7725
12363TIP3   OH258503   5.898   2.224  11.417 -0.3244  0.0852  0.1975
12363TIP3    H158504   5.877   2.242  11.508 -0.6078  0.0873  0.1332
12363TIP3    H258505   5.833   2.159  11.389 -0.4090  0.2859 -0.0797
12364TIP3   OH258506   3.302   0.547   2.283  0.0381  0.1556  0.1278
12364TIP3    H158507   3.354   0.509   2.212  1.6744  0.6877  1.0028
12364TIP3    H258508   3.216   0.562   2.244 -0.4136 -3.4264 -0.5734
12365TIP3   OH258509   1.244   1.799   4.174  0.0555 -0.0809  0.6540
12365TIP3    H158510   1.228   1.840   4.259  0.3145 -2.6626  2.0591
12365TIP3    H258511   1.158   1.798   4.132 -0.8442 -1.7325  2.3743
12366TIP3   OH258512   0.992   0.045  13.187  0.7519 -0.0611  0.3019
12366TIP3    H158513   1.035   0.065  13.270  1.6830 -0.1833 -0.1374
12366TIP3    H258514   1.063   0.043  13.123  0.1785 -0.9516 -0.3334
12367TIP3   OH258515   4.551   3.530   2.442  0.2936  0.2015  0.4936
12367TIP3    H158516   4.616   3.542   2.373  0.0412  0.3213  0.2739
12367TIP3    H258517   4.555   3.436   2.463 -1.5582 -0.4727 -1.6589
12368TIP3   OH258518   3.371   4.349  11.748  0.4130 -0.1016 -0.3277
12368TIP3    H158519   3.325   4.291  11.808  0.1074 -0.0368 -0.4961
12368TIP3    H258520   3.320   4.430  11.749 -0.7503 -0.7543 -2.1773
12369TIP3   OH258521   0.133   6.572  15.242 -0.5763 -0.1489  0.0325
12369TIP3    H158522   0.186   6.534  15.313  0.0874 -1.3815 -1.0656
12369TIP3    H258523   0.191   6.570  15.166 -2.0453 -1.1435 -1.1188
12370TIP3   OH258524   2.074   6.207   1.527 -0.0406 -0.3749 -0.2106
12370TIP3    H158525   2.040   6.159   1.452 -0.2032  1.1917 -1.1846
12370TIP3    H258526   2.124   6.279   1.488  1.7713 -0.7858  1.1801
12371TIP3   OH258527   0.049   2.920   0.527  0.1150 -0.2002  0.2167
12371TIP3    H158528   0.028   2.828   0.515 -2.0733  0.1776  0.6175
12371TIP3    H258529   0.055   2.955   0.438 -0.1650 -0.5086  0.0745
12372TIP3   OH258530   0.311   0.406  17.513  0.5632  0.7104 -0.0394
12372TIP3    H158531   0.220   0.418  17.487  1.0657  1.0662 -1.7723
12372TIP3    H258532   0.336   0.322  17.473  1.2406  1.0575 -0.3676
12373TIP3   OH258533   5.336   4.350   0.076 -0.0510 -0.4622  0.2572
12373TIP3    H158534   5.302   4.361   0.165  2.2813 -2.6060  1.5364
12373TIP3    H258535   5.341   4.255   0.065 -0.0568 -0.2315 -2.1120
12374TIP3   OH258536   5.438   2.014   0.533  0.5550  0.4896 -0.3999
12374TIP3    H158537   5.487   2.040   0.455  1.1502  0.6649  0.0254
12374TIP3    H258538   5.351   1.992   0.500  0.8020  0.5466 -1.1142
12375TIP3   OH258539   6.226   3.977   3.059 -0.0394 -0.0521  0.3117
12375TIP3    H158540   6.247   4.039   2.989  2.0333  1.9709  2.5465
12375TIP3    H258541   6.283   3.902   3.043 -0.7112 -0.3160 -0.9786
12376TIP3   OH258542   5.220   0.647  13.256  0.1362 -0.2566  0.2493
12376TIP3    H158543   5.248   0.583  13.190  0.3552 -0.1898  0.2763
12376TIP3    H258544   5.255   0.731  13.224  1.6314 -0.4529  1.2528
12377TIP3   OH258545   2.207   0.279  14.830  0.5675 -0.3808  0.3328
12377TIP3    H158546   2.239   0.189  14.837  2.8321  0.4273  1.0843
12377TIP3    H258547   2.209   0.298  14.736 -0.7054 -1.3358  0.0830
12378TIP3   OH258548   3.433   2.739   0.809 -0.3295 -0.3513  0.4310
12378TIP3    H158549   3.527   2.752   0.817 -0.5126  0.4398  1.5192
12378TIP3    H258550   3.423   2.681   0.733  0.8888  1.2752 -1.0463
12379TIP3   OH258551   4.641   4.954   3.153 -0.1865 -0.5137 -0.0028
12379TIP3    H158552   4.623   4.999   3.236  1.6788 -2.6142  1.6735
12379TIP3    H258553   4.678   5.022   3.097 -1.0379  0.8692  1.0295
12380TIP3   OH258554   3.938   5.378  13.831 -0.6091  0.3315  0.4552
12380TIP3    H158555   3.890   5.443  13.780  0.1095  0.4212 -0.1339
12380TIP3    H258556   3.942   5.415  13.919 -1.8067  0.2105  0.5812
12381TIP3   OH258557   3.372   2.917   4.426 -0.5662  0.0979  0.3505
12381TIP3    H158558   3.398   2.959   4.344  3.5269 -0.8508  0.9668
12381TIP3    H258559   3.301   2.858   4.401 -0.9686  1.4365 -2.0315
12382TIP3   OH258560   2.657   5.925   6.005 -0.0306 -0.1614  0.8176
12382TIP3    H158561   2.598   5.934   6.080  0.0210 -0.7933  0.9342
12382TIP3    H258562   2.724   5.863   6.033  0.7251  0.5909  0.6995
12383TIP3   OH258563   5.006   4.949   5.652  0.4188  0.3615  0.1252
12383TIP3    H158564   4.940   5.012   5.623  0.5935  1.3405  1.7358
12383TIP3    H258565   4.979   4.866   5.612 -0.7713  1.1100 -0.6836
12384TIP3   OH258566   0.568   3.509   3.879 -0.2126 -0.0935 -0.1157
12384TIP3    H158567   0.491   3.452   3.870 -1.2166  1.4828 -2.5370
12384TIP3    H258568   0.636   3.464   3.828 -0.7049  0.3064 -1.1679
12385TIP3   OH258569   5.634   5.015   2.149  0.0391 -0.0686 -0.3101
12385TIP3    H158570   5.675   5.099   2.128  1.0100 -0.7747 -1.3399
12385TIP3    H258571   5.542   5.026   2.125  0.5044  0.1597 -2.0562
12386TIP3   OH258572   4.261   6.501  14.095 -0.2080 -0.1745  0.3426
12386TIP3    H158573   4.310   6.492  14.176  2.5005 -0.1645 -1.1512
12386TIP3    H258574   4.271   6.593  14.070  2.0525 -0.8369 -1.6322
12387TIP3   OH258575   5.539   4.774   0.426 -0.0045  0.0746 -0.1042
12387TIP3    H158576   5.465   4.834   0.428 -0.8021 -0.7864 -1.8919
12387TIP3    H258577   5.504   4.692   0.463  1.1218  0.6674  2.4967
12388TIP3   OH258578   2.304   1.080  16.714 -0.2574  0.2284  0.0420
12388TIP3    H158579   2.277   1.147  16.777  0.1580  1.9960 -1.5562
12388TIP3    H258580   2.228   1.067  16.658 -0.7194 -1.5390  1.0114
12389TIP3   OH258581   1.880   1.479   0.939 -0.1229 -1.1179  0.4035
12389TIP3    H158582   1.939   1.410   0.970  1.5454 -1.2618 -2.6153
12389TIP3    H258583   1.880   1.544   1.008 -1.6832 -3.9806  3.3716
12390TIP3   OH258584   0.711   5.487  13.571  0.4783 -0.3205  0.3728
12390TIP3    H158585   0.771   5.532  13.512 -0.2861  1.8262  1.1546
12390TIP3    H258586   0.710   5.541  13.650 -1.8084 -0.7480  0.7033
12391TIP3   OH258587   3.906   2.617   5.789 -0.2544  0.3108 -0.1725
12391TIP3    H158588   3.889   2.703   5.828 -2.0150  0.7790 -1.8005
12391TIP3    H258589   3.991   2.591   5.824 -0.3290  2.0514  1.4893
12392TIP3   OH258590   3.333   4.505   2.393  0.1285  0.4442 -0.2742
12392TIP3    H158591   3.252   4.517   2.343 -1.4427 -1.2662  1.6681
12392TIP3    H258592   3.356   4.592   2.423  0.1954  1.2641 -2.4846
12393TIP3   OH258593   3.758   5.195   1.672 -0.3848  0.3333  0.0296
12393TIP3    H158594   3.746   5.163   1.762 -1.0242 -1.2874 -0.5778
12393TIP3    H258595   3.838   5.247   1.675  1.4149 -2.2521  0.9377
12394TIP3   OH258596   3.246   3.517   3.880  0.0500 -0.0774  0.3285
12394TIP3    H158597   3.269   3.424   3.879 -1.3688 -0.4461 -0.8000
12394TIP3    H258598   3.214   3.532   3.969 -0.0894 -0.7681  0.4038
12395TIP3   OH258599   2.597   3.274   3.775 -0.7401  0.2973  0.5670
12395TIP3    H158600   2.638   3.289   3.690  1.3104  1.6256  1.7047
12395TIP3    H258601   2.616   3.183   3.796 -1.3357 -0.0627 -0.4071
12396TIP3   OH258602   5.400   1.014  14.751 -0.1528  0.5260  0.0018
12396TIP3    H158603   5.341   1.083  14.719 -0.0607 -0.0678 -1.5119
12396TIP3    H258604   5.362   0.933  14.718 -0.1467 -0.1645  1.5972
12397TIP3   OH258605   0.678   5.151   4.585  0.2532  0.4538 -0.0233
12397TIP3    H158606   0.774   5.146   4.594  0.2784 -1.1764 -0.8255
12397TIP3    H258607   0.645   5.122   4.670  0.4834 -0.5801 -0.2769
12398TIP3   OH258608   1.609   0.462  14.314 -0.0099  0.6592  0.3454
12398TIP3    H158609   1.669   0.448  14.241  1.3808  0.1633  1.5282
12398TIP3    H258610   1.567   0.546  14.295 -1.0517 -0.3154 -1.9048
12399TIP3   OH258611   0.423   5.879   2.748 -0.1917  0.0728 -0.1633
12399TIP3    H158612   0.373   5.953   2.782  0.2077 -0.2084  1.0683
12399TIP3    H258613   0.430   5.818   2.821  0.6015 -0.6062 -0.7800
12400TIP3   OH258614   4.731   6.651  15.078  0.0759  0.4128  0.1369
12400TIP3    H158615   4.706   6.630  14.988  0.3617 -1.0052  0.3574
12400TIP3    H258616   4.658   6.703  15.112 -0.6992 -0.2391 -0.4894
12401TIP3   OH258617   0.894   0.347   4.408  0.5853  0.2007 -0.9711
12401TIP3    H158618   0.955   0.272   4.408  0.5281  0.1536 -0.8373
12401TIP3    H258619   0.828   0.324   4.473  0.5278  0.3366 -0.9814
12402TIP3   OH258620   5.915   2.303   5.285  0.1171 -0.1529 -0.4940
12402TIP3    H158621   5.896   2.252   5.363 -1.8401  0.6528 -0.3860
12402TIP3    H258622   5.934   2.391   5.318  0.9112 -0.1850 -0.8394
12403TIP3   OH258623   0.222   5.046   0.738  0.2776  0.5718 -0.4629
12403TIP3    H158624   0.133   5.011   0.731  1.1669 -1.5202 -2.1728
12403TIP3    H258625   0.211   5.127   0.788 -2.0024 -1.7279  3.2560
12404TIP3   OH258626   0.266   5.928  10.827 -0.4329  0.3078  0.4415
12404TIP3    H158627   0.322   5.909  10.752  0.4281 -0.4795  1.2516
12404TIP3    H258628   0.305   6.006  10.867 -0.6316  0.4740  0.3058
12405TIP3   OH258629   6.329   6.478   1.055 -0.3080 -0.2441  0.2765
12405TIP3    H158630   6.290   6.419   1.119 -2.4822 -0.7558 -1.3655
12405TIP3    H258631   6.256   6.535   1.028  0.5446  0.0543 -1.5672
12406TIP3   OH258632   4.194   4.607   2.962 -0.2810  0.0873 -0.2266
12406TIP3    H158633   4.107   4.646   2.945 -1.2194 -2.1252 -0.8755
12406TIP3    H258634   4.253   4.657   2.906 -1.2103  1.3321 -0.1414
12407TIP3   OH258635   0.588   4.116  17.049  0.6376 -0.1909  0.1860
12407TIP3    H158636   0.642   4.188  17.018 -0.3302  1.0736  1.3691
12407TIP3    H258637   0.538   4.089  16.972  1.8865 -0.4672 -0.5711
12408TIP3   OH258638   2.618   4.507  12.083  0.1457 -0.1323 -0.1912
12408TIP3    H158639   2.621   4.496  12.178 -0.5063  4.4914  0.5964
12408TIP3    H258640   2.525   4.516  12.063  0.3800  1.5071 -0.7414
12409TIP3   OH258641   0.710   2.499  14.422 -0.1105 -0.6777  0.3058
12409TIP3    H158642   0.773   2.568  14.438 -1.3477  0.5427  0.0679
12409TIP3    H258643   0.730   2.468  14.334 -1.2960  1.3642 -0.7569
12410TIP3   OH258644   4.241   0.477  17.219  0.1351 -0.1218 -0.0997
12410TIP3    H158645   4.265   0.523  17.300 -0.8056 -0.6530  0.4998
12410TIP3    H258646   4.311   0.499  17.158  0.3658  1.0884  0.5551
12411TIP3   OH258647   0.390   5.790  17.084 -0.3135  0.3077  0.4994
12411TIP3    H158648   0.387   5.695  17.073 -1.6049  0.4449 -0.5214
12411TIP3    H258649   0.342   5.807  17.164 -0.5309  0.1287  0.4085
12412TIP3   OH258650   1.779   3.651  14.917 -0.1678 -0.0564 -0.0946
12412TIP3    H158651   1.744   3.593  14.849 -0.3732 -0.6150  0.4806
12412TIP3    H258652   1.713   3.719  14.927 -0.1332  0.0342 -0.4532
12413TIP3   OH258653   4.529   5.247   2.599  0.0207  0.3812 -0.1263
12413TIP3    H158654   4.471   5.206   2.535  0.3478  1.5364 -1.2119
12413TIP3    H258655   4.570   5.174   2.645 -0.8808 -0.4662 -0.6485
12414TIP3   OH258656   0.261   1.561  15.793  0.0670 -0.0666  0.2286
12414TIP3    H158657   0.347   1.525  15.817 -0.1250 -0.6073  0.1324
12414TIP3    H258658   0.269   1.583  15.701 -0.4306 -1.8028 -0.2710
12415TIP3   OH258659   1.631   2.850  14.619  0.1564  0.1655  0.1611
12415TIP3    H158660   1.644   2.795  14.542  0.5035 -0.9806  1.0153
12415TIP3    H258661   1.580   2.924  14.587  3.1144  1.4958 -1.9345
12416TIP3   OH258662   4.759   5.841   2.004  0.0258 -0.4198  0.1492
12416TIP3    H158663   4.751   5.904   1.931  0.8794 -0.4612 -0.0009
12416TIP3    H258664   4.846   5.802   1.991  0.2236 -0.3591  1.2473
12417TIP3   OH258665   0.924   2.873   1.264 -0.4850  0.0395  0.2572
12417TIP3    H158666   0.904   2.853   1.172 -0.0171  1.5472 -0.2047
12417TIP3    H258667   0.980   2.950   1.259 -0.3042  0.0262  1.8195
12418TIP3   OH258668   1.409   1.637  14.579 -0.7121 -0.3927 -0.0033
12418TIP3    H158669   1.353   1.689  14.637 -0.3267 -1.4231  1.3541
12418TIP3    H258670   1.483   1.612  14.634  1.1856  0.9909 -1.7478
12419TIP3   OH258671   6.233   0.561  15.129  0.1405  0.4135 -0.0183
12419TIP3    H158672   6.156   0.616  15.116 -0.4595 -0.7603 -1.9227
12419TIP3    H258673   6.307   0.616  15.106 -0.3374  0.8746 -0.4881
12420TIP3   OH258674   5.724   5.595  11.659  0.3331 -0.3901 -0.1968
12420TIP3    H158675   5.633   5.626  11.649  0.9092  1.5311  0.1236
12420TIP3    H258676   5.730   5.568  11.750 -0.0316 -0.9661 -0.3377
12421TIP3   OH258677   2.942   0.991  13.103  0.9275 -0.2888  0.4588
12421TIP3    H158678   2.963   0.971  13.194  0.8682 -0.3619  0.4560
12421TIP3    H258679   2.932   0.906  13.061  0.4451 -0.2539  0.5000
12422TIP3   OH258680   0.727   1.982  14.401  0.2567  0.4537  0.0507
12422TIP3    H158681   0.794   2.050  14.396  1.2858 -0.5840 -0.4647
12422TIP3    H258682   0.666   2.004  14.330  1.2685  0.1296 -0.9399
12423TIP3   OH258683   4.093   4.388   0.728 -0.0354 -0.8001 -0.8263
12423TIP3    H158684   4.075   4.318   0.792 -1.7289 -0.4936 -0.9135
12423TIP3    H258685   4.127   4.460   0.781  2.9602 -2.0401 -0.8825
12424TIP3   OH258686   3.757   5.632   1.136  0.4808  0.1443  0.8973
12424TIP3    H158687   3.669   5.659   1.163  0.4243  0.0855  0.7710
12424TIP3    H258688   3.745   5.590   1.051  0.4154 -1.2721  1.5759
12425TIP3   OH258689   0.818   6.270  16.245 -0.0301 -0.2373 -0.7127
12425TIP3    H158690   0.777   6.350  16.279 -0.4238 -0.4333 -0.7213
12425TIP3    H258691   0.871   6.237  16.318  2.7119  1.7215 -1.6409
12426TIP3   OH258692   1.781   6.586   0.186 -0.0931  0.0179  0.2038
12426TIP3    H158693   1.691   6.579   0.157 -0.5405  2.6250  0.7287
12426TIP3    H258694   1.827   6.630   0.114  0.9461 -1.8338 -0.3244
12427TIP3   OH258695   4.853   6.623  13.893 -0.8675  0.0002  0.3276
12427TIP3    H158696   4.849   6.634  13.988  0.8563  0.0335  0.4357
12427TIP3    H258697   4.892   6.537  13.880  1.5229  1.0673 -0.2482
12428TIP3   OH258698   2.902   4.107   4.430  0.5331 -0.3818  0.3815
12428TIP3    H158699   2.874   4.020   4.459 -0.0048 -1.1295 -2.0570
12428TIP3    H258700   2.881   4.165   4.503 -1.5120 -1.9194  1.1246
12429TIP3   OH258701   0.962   6.321  12.293  0.5938 -0.2104 -0.0261
12429TIP3    H158702   0.923   6.318  12.205 -0.8134  0.3524  0.5420
12429TIP3    H258703   0.978   6.229  12.315  2.1455 -0.3081 -1.3349
12430TIP3   OH258704   2.508   3.652   6.007  0.5588  0.2029  0.3992
12430TIP3    H158705   2.534   3.690   6.091 -1.5323 -0.3607  1.3822
12430TIP3    H258706   2.570   3.687   5.944  3.4789 -0.8745  2.4426
12431TIP3   OH258707   0.695   2.626  12.522 -0.3365  0.2997  0.1528
12431TIP3    H158708   0.715   2.672  12.441 -1.1903 -1.4114 -1.1008
12431TIP3    H258709   0.778   2.624  12.570  0.9681 -1.1368 -2.0031
12432TIP3   OH258710   5.163   6.060  16.475  0.1100  0.0505  0.0722
12432TIP3    H158711   5.213   6.037  16.397 -0.5198  0.7338 -0.5463
12432TIP3    H258712   5.075   6.024  16.458 -0.1587  0.6150  0.2608
12433TIP3   OH258713   0.852   5.308   0.281  0.0640  0.2969  0.0124
12433TIP3    H158714   0.796   5.373   0.325 -0.4866  0.4274 -0.8514
12433TIP3    H258715   0.930   5.357   0.255 -0.9643  1.0198 -1.9232
12434TIP3   OH258716   6.135   1.742   4.243 -0.4134  0.3307 -0.2951
12434TIP3    H158717   6.194   1.700   4.180 -0.8026 -3.4936  1.6263
12434TIP3    H258718   6.057   1.764   4.191  0.9518  1.5641 -1.9790
12435TIP3   OH258719   6.366   3.283   6.169 -0.1704  0.2782  0.6558
12435TIP3    H158720   6.423   3.350   6.206 -2.8343  1.8442  2.2903
12435TIP3    H258721   6.359   3.217   6.238 -0.6484  0.2965  0.6261
12436TIP3   OH258722   5.853   2.761   2.965 -0.6769 -0.2434  0.1802
12436TIP3    H158723   5.786   2.702   3.000  0.5829 -1.9741 -0.1985
12436TIP3    H258724   5.840   2.758   2.871  0.7541 -1.7177 -0.0150
12437TIP3   OH258725   1.772   1.758  15.012 -0.4775  0.0925  0.0786
12437TIP3    H158726   1.714   1.682  15.016 -0.6282  0.2548  1.4485
12437TIP3    H258727   1.719   1.830  15.045  0.4413  0.2802  1.2024
12438TIP3   OH258728   2.166   0.661   4.058 -0.4091 -0.3455  0.2548
12438TIP3    H158729   2.111   0.701   4.126  1.5057  0.6981  1.2782
12438TIP3    H258730   2.187   0.574   4.093 -1.3191 -0.7144 -0.1015
12439TIP3   OH258731   2.382   3.189  13.486 -0.4323  0.5723  0.4664
12439TIP3    H158732   2.346   3.101  13.481 -0.0711  0.4001  0.8183
12439TIP3    H258733   2.353   3.223  13.570 -2.6023  1.7153 -0.6622
12440TIP3   OH258734   6.137   1.461   2.837 -0.3423  0.3658 -0.0151
12440TIP3    H158735   6.150   1.522   2.764  1.4364 -0.9596 -0.8745
12440TIP3    H258736   6.079   1.508   2.897  1.5502  3.2327 -0.2257
12441TIP3   OH258737   2.204   0.980  16.305  0.0353 -0.0765  0.0569
12441TIP3    H158738   2.256   0.901  16.324  0.2052 -0.1000 -0.4874
12441TIP3    H258739   2.179   1.013  16.391  1.8080  0.5066  0.3894
12442TIP3   OH258740   0.786   3.508  17.120 -0.6161 -0.4187 -0.2457
12442TIP3    H158741   0.880   3.494  17.124 -0.4966 -1.5590 -3.7762
12442TIP3    H258742   0.771   3.550  17.035 -3.3043 -0.7862 -0.0578
12443TIP3   OH258743   3.211   2.640  12.366  0.1102  0.1523 -0.4594
12443TIP3    H158744   3.116   2.642  12.377  0.0318  0.1812 -1.0786
12443TIP3    H258745   3.245   2.629  12.454 -0.5172 -1.1452 -0.3545
12444TIP3   OH258746   2.704   6.409   4.728  0.6175 -0.4042  0.1361
12444TIP3    H158747   2.745   6.369   4.805 -1.5369  0.0996  1.6478
12444TIP3    H258748   2.688   6.500   4.754  0.9711  0.1183 -1.3922
12445TIP3   OH258749   2.874   1.435  11.395  0.1123 -0.3859 -0.3839
12445TIP3    H158750   2.815   1.431  11.319 -0.4566  0.2553  0.0125
12445TIP3    H258751   2.960   1.455  11.357 -0.2419  0.3166 -0.8396
12446TIP3   OH258752   4.811   1.095  12.113  0.0589 -0.7760 -0.3294
12446TIP3    H158753   4.883   1.035  12.128  0.2967 -0.6225 -0.8450
12446TIP3    H258754   4.745   1.043  12.067 -0.2226 -0.9528  0.2591
12447TIP3   OH258755   6.499   5.644  11.590  0.0731  0.3845  0.1017
12447TIP3    H158756   6.457   5.558  11.586  1.3786 -0.2321 -1.2047
12447TIP3    H258757   6.471   5.681  11.674  0.6665 -1.9390  1.3909
12448TIP3   OH258758   3.138   6.605  13.057 -0.0752  0.1784  0.2941
12448TIP3    H158759   3.198   6.679  13.061 -0.4161  0.6489 -2.0064
12448TIP3    H258760   3.052   6.642  13.077 -0.4820  0.7884 -2.2841
12449TIP3   OH258761   4.818   6.124  12.695 -0.1307 -0.4247  0.2843
12449TIP3    H158762   4.863   6.047  12.730  0.0506 -0.0030  1.0032
12449TIP3    H258763   4.867   6.198  12.731 -0.2116  0.0302 -0.5176
12450TIP3   OH258764   4.802   5.672   2.526  0.1287  0.0722 -0.0880
12450TIP3    H158765   4.869   5.708   2.469  1.2760  1.9620  2.2696
12450TIP3    H258766   4.812   5.720   2.609 -3.1245 -0.6507  0.8948
12451TIP3   OH258767   4.954   4.516   3.180 -0.3319  0.1245  0.8072
12451TIP3    H158768   4.954   4.443   3.118  1.0886 -0.3020  1.2703
12451TIP3    H258769   4.861   4.534   3.196 -0.7358 -0.0151 -1.1190
12452TIP3   OH258770   2.725   6.034  14.038  0.1094  0.3691  0.0912
12452TIP3    H158771   2.630   6.033  14.038  0.0169  1.2141  2.7205
12452TIP3    H258772   2.749   6.063  14.126  2.8146 -0.3806 -0.2996
12453TIP3   OH258773   1.217   5.447  15.661 -0.0257  0.1976 -0.8401
12453TIP3    H158774   1.273   5.513  15.619 -0.0926  0.1686 -0.9775
12453TIP3    H258775   1.251   5.439  15.750  0.4325 -0.1018 -1.0392
12454TIP3   OH258776   3.594   4.213  13.871 -0.3379 -0.4019  0.4834
12454TIP3    H158777   3.651   4.148  13.912  0.2725 -0.4765 -0.4515
12454TIP3    H258778   3.528   4.162  13.824  1.7855 -0.5143 -2.6322
12455TIP3   OH258779   0.159   2.620  14.826  0.2121 -0.1829 -0.1986
12455TIP3    H158780   0.107   2.583  14.754  1.1221  2.1904 -2.2098
12455TIP3    H258781   0.225   2.554  14.845 -0.8650 -1.4098 -0.6024
12456TIP3   OH258782   1.687   6.617   2.448 -0.4326 -0.1689  0.4794
12456TIP3    H158783   1.742   6.672   2.393 -0.3542 -0.0445  0.6830
12456TIP3    H258784   1.643   6.677   2.507 -0.9799 -0.2392  0.1587
12457TIP3   OH258785   3.460   0.744  13.400 -0.4427 -0.0126 -0.4128
12457TIP3    H158786   3.543   0.787  13.378  0.0782 -0.9674 -0.3835
12457TIP3    H258787   3.462   0.662  13.351 -0.9927 -0.4303  0.2502
12458TIP3   OH258788   6.639   0.682   1.939 -0.1575  0.8389 -0.0054
12458TIP3    H158789   6.701   0.713   2.005  0.1704  0.2707 -0.0435
12458TIP3    H258790   6.573   0.751   1.934  0.2482  1.2560  0.3360
12459TIP3   OH258791   6.066   4.267   5.822  0.1754  0.1523 -0.1812
12459TIP3    H158792   6.008   4.327   5.774  1.5569  1.2814 -0.5294
12459TIP3    H258793   6.044   4.282   5.914  0.2839  0.9974 -0.2782
12460TIP3   OH258794   4.559   4.808   1.593  0.5371 -0.7609 -0.1591
12460TIP3    H158795   4.516   4.833   1.512  0.7446 -1.6502 -0.5508
12460TIP3    H258796   4.649   4.842   1.584  0.5748 -0.9051 -0.3216
12461TIP3   OH258797   3.895   1.062  14.665 -0.5184 -0.1398 -0.0891
12461TIP3    H158798   3.882   0.983  14.613 -0.7121 -1.2911  1.6373
12461TIP3    H258799   3.826   1.060  14.731  1.5822 -0.5002  2.2658
12462TIP3   OH258800   0.779   2.891  12.754 -0.1487 -0.0867  0.1784
12462TIP3    H158801   0.857   2.907  12.702 -0.4561 -1.3068 -0.7073
12462TIP3    H258802   0.715   2.856  12.692 -1.9914  2.3763  0.5205
12463TIP3   OH258803   5.244   0.640   6.261 -0.0685 -0.4428  0.1092
12463TIP3    H158804   5.304   0.690   6.315  0.2716 -0.5731 -0.1422
12463TIP3    H258805   5.269   0.548   6.275  0.5031 -0.4450 -0.8080
12464TIP3   OH258806   4.184   1.967  15.979 -0.2995 -0.4014 -0.2826
12464TIP3    H158807   4.095   1.945  15.953 -0.5305 -0.4146  0.4811
12464TIP3    H258808   4.229   1.989  15.898 -1.3780  0.9863 -0.5297
12465TIP3   OH258809   3.798   1.278   5.904  0.0257 -0.0421  0.5191
12465TIP3    H158810   3.876   1.330   5.884  1.0860 -1.2659  1.2526
12465TIP3    H258811   3.755   1.325   5.975  0.2451  0.5054  0.2921
12466TIP3   OH258812   2.526   3.957   4.336  0.0796 -0.1109 -0.0033
12466TIP3    H158813   2.486   3.871   4.347  0.9416 -0.6216 -0.7765
12466TIP3    H258814   2.452   4.015   4.315 -0.3338 -0.9380 -0.9258
12467TIP3   OH258815   5.519   3.623   4.983 -0.2786  0.0468 -0.1538
12467TIP3    H158816   5.547   3.578   5.063 -0.5279 -0.8161 -0.5429
12467TIP3    H258817   5.598   3.668   4.953  0.1841 -0.7583 -0.1668
12468TIP3   OH258818   5.682   1.353  15.667  0.0462 -0.7235  0.0288
12468TIP3    H158819   5.749   1.291  15.697 -1.2306 -2.7355 -1.0343
12468TIP3    H258820   5.612   1.345  15.732 -0.6260 -1.3258 -0.7554
12469TIP3   OH258821   3.893   6.535   6.352 -0.1141 -0.3472 -0.2270
12469TIP3    H158822   3.924   6.446   6.369  0.6787 -0.3100 -1.3670
12469TIP3    H258823   3.798   6.525   6.338 -0.4998 -0.6296  2.0859
12470TIP3   OH258824   2.228   6.289  11.584 -0.0567  0.0212  0.7389
12470TIP3    H158825   2.311   6.284  11.632 -0.4189 -1.4936  1.2707
12470TIP3    H258826   2.228   6.212  11.527 -0.1963  1.1299 -0.8083
12471TIP3   OH258827   5.704   1.266  12.225 -0.2205  0.5558 -0.1894
12471TIP3    H158828   5.788   1.236  12.192  0.2205  0.7898  0.6887
12471TIP3    H258829   5.640   1.208  12.183  0.2919  0.9099 -1.5101
12472TIP3   OH258830   4.925   3.176  16.037  0.2661 -0.2242  0.1174
12472TIP3    H158831   4.887   3.264  16.039  2.5077  0.8503 -1.1899
12472TIP3    H258832   4.936   3.153  16.130 -1.9627  0.0582  0.5151
12473TIP3   OH258833   4.228   1.935   0.088 -0.4534 -0.2316  0.1913
12473TIP3    H158834   4.292   1.987   0.039  1.3081  0.2610  2.8310
12473TIP3    H258835   4.185   1.998   0.146 -1.7930 -0.9527  0.0264
12474TIP3   OH258836   6.345   2.471  15.914  0.0898 -0.6734  0.7795
12474TIP3    H158837   6.296   2.537  15.964 -2.0867 -3.0639  2.0482
12474TIP3    H258838   6.432   2.470  15.953  0.0433  1.1166  1.0018
12475TIP3   OH258839   4.275   0.737   3.199  0.3723  0.1145 -0.4370
12475TIP3    H158840   4.220   0.677   3.249  2.7919 -1.8252  0.1172
12475TIP3    H258841   4.300   0.688   3.121  2.6579  0.1665  0.1803
12476TIP3   OH258842   5.491   4.628  12.705  1.0346  0.5140  0.2659
12476TIP3    H158843   5.433   4.574  12.651  2.0615 -0.8893  0.5097
12476TIP3    H258844   5.559   4.567  12.735  2.3661  2.0087  0.3715
12477TIP3   OH258845   4.162   1.835   5.844 -0.3255  0.3574  0.0847
12477TIP3    H158846   4.188   1.901   5.908  1.7062 -0.1943 -0.1153
12477TIP3    H258847   4.165   1.752   5.892  0.1545  0.0698 -0.4222
12478TIP3   OH258848   0.643   3.991   1.038  0.1054  0.5234  0.1709
12478TIP3    H158849   0.695   3.918   1.003 -0.7915 -0.0675  0.0368
12478TIP3    H258850   0.580   3.950   1.097 -1.4027  0.9876 -1.0362
12479TIP3   OH258851   4.987   2.145  15.609  0.2159 -0.1012  0.2510
12479TIP3    H158852   5.079   2.158  15.631  0.2933 -0.4103  0.1084
12479TIP3    H258853   4.949   2.108  15.689 -0.1422  1.5424  0.8807
12480TIP3   OH258854   3.920   4.887   0.837 -0.1697  0.2272 -0.1859
12480TIP3    H158855   3.995   4.900   0.895 -0.4675  0.3991  0.1633
12480TIP3    H258856   3.896   4.796   0.848  0.4535 -0.0365 -0.8687
12481TIP3   OH258857   3.141   2.736   3.404  0.0471 -0.0638 -0.7712
12481TIP3    H158858   3.211   2.799   3.386  1.0882 -1.0975 -0.5022
12481TIP3    H258859   3.062   2.789   3.411  0.1316  0.8960 -4.4903
12482TIP3   OH258860   5.725   1.829  13.462 -0.7508 -0.7478  0.3211
12482TIP3    H158861   5.693   1.859  13.547 -0.2966 -0.0462  0.2583
12482TIP3    H258862   5.801   1.885  13.445 -2.7678  1.4965 -2.0908
12483TIP3   OH258863   5.424   6.430  16.811  0.1907  0.4275 -0.2880
12483TIP3    H158864   5.369   6.497  16.852 -0.7221 -1.1313  1.1482
12483TIP3    H258865   5.377   6.407  16.731 -1.2520 -0.7516  0.8253
12484TIP3   OH258866   0.563   2.436   0.073  0.1079 -0.2163 -0.2434
12484TIP3    H158867   0.594   2.525   0.090  0.6828 -0.1930 -1.3548
12484TIP3    H258868   0.532   2.405   0.158 -1.6925  1.6506 -0.1403
12485TIP3   OH258869   4.135   3.122   4.483 -0.2696 -0.5412  0.6598
12485TIP3    H158870   4.152   3.073   4.403  1.1839 -1.3040  1.3829
12485TIP3    H258871   4.216   3.172   4.497 -0.3414 -0.7336  1.8498
12486TIP3   OH258872   6.329   2.679  13.637 -0.2702 -0.9367  0.2118
12486TIP3    H158873   6.237   2.673  13.610  0.3783 -0.0717 -2.5204
12486TIP3    H258874   6.329   2.737  13.713 -2.1219 -2.3500  1.3771
12487TIP3   OH258875   3.556   4.442  15.019 -0.2944  0.6295  0.2543
12487TIP3    H158876   3.494   4.511  15.042 -0.5666  0.5830 -0.3252
12487TIP3    H258877   3.513   4.394  14.948  0.3606  0.5356 -0.0842
12488TIP3   OH258878   0.202   1.264   2.273  0.5444  0.2156  0.8671
12488TIP3    H158879   0.236   1.353   2.285 -0.6871  0.5139  2.5650
12488TIP3    H258880   0.257   1.210   2.329 -0.7954  0.4902  2.5418
12489TIP3   OH258881   4.286   4.401  12.050  0.1765 -0.0000  0.3270
12489TIP3    H158882   4.258   4.490  12.067 -0.9173 -0.0531 -0.9573
12489TIP3    H258883   4.371   4.393  12.093  0.1110  1.5278  0.7862
12490TIP3   OH258884   5.500   5.332  11.929  0.1670  0.2263  1.1779
12490TIP3    H158885   5.460   5.245  11.921  1.0694 -0.1245 -0.0196
12490TIP3    H258886   5.587   5.321  11.890 -0.1086  1.9284 -0.0285
12491TIP3   OH258887   1.778   6.280  13.581  0.4831  0.4003 -0.6396
12491TIP3    H158888   1.766   6.194  13.541  0.6418 -0.4766  1.1078
12491TIP3    H258889   1.866   6.306  13.554  1.0984 -0.7647  0.1734
12492TIP3   OH258890   6.528   3.714   0.114 -0.1741  0.2873  0.0302
12492TIP3    H158891   6.530   3.802   0.078  0.9724  0.4938  0.5628
12492TIP3    H258892   6.439   3.704   0.148 -1.1767  0.2140 -2.4467
12493TIP3   OH258893   3.422   5.812   1.733  0.1976 -0.1884 -0.1296
12493TIP3    H158894   3.364   5.887   1.746  0.0447  0.0333 -1.8673
12493TIP3    H258895   3.364   5.742   1.702  0.1781 -1.3785  2.3306
12494TIP3   OH258896   0.319   2.502  13.582  0.2054 -0.0726  0.2619
12494TIP3    H158897   0.286   2.481  13.669  0.2900  0.8032  0.5110
12494TIP3    H258898   0.386   2.437  13.565  0.5348  0.0518  1.0583
12495TIP3   OH258899   4.323   4.723  15.702  0.2449  0.1423 -0.3632
12495TIP3    H158900   4.306   4.633  15.675 -2.7757  0.8355 -1.1103
12495TIP3    H258901   4.246   4.772  15.673  1.8109  3.0141 -0.0604
12496TIP3   OH258902   6.265   1.231   2.937  0.4775 -0.5084 -0.0974
12496TIP3    H158903   6.234   1.156   2.886  0.3506  0.3018 -1.2357
12496TIP3    H258904   6.223   1.307   2.897  0.1432  0.1430  1.4056
12497TIP3   OH258905   0.023   4.501  12.426 -0.3956  0.0312 -0.4702
12497TIP3    H158906   0.113   4.497  12.394  0.0710  1.1043  0.6066
12497TIP3    H258907   0.025   4.459  12.512 -1.1108 -0.6688 -0.7793
12498TIP3   OH258908   2.159   4.127  13.813  0.1234 -0.3343  0.1263
12498TIP3    H158909   2.207   4.189  13.758 -1.9388  0.8356 -0.4471
12498TIP3    H258910   2.098   4.084  13.752  0.2298 -1.5828  0.8752
12499TIP3   OH258911   4.703   4.712  15.048  0.2559  0.3297 -0.3947
12499TIP3    H158912   4.673   4.770  15.118 -0.5234 -0.4678 -0.0483
12499TIP3    H258913   4.734   4.771  14.980  0.8635  1.1220  0.5398
12500TIP3   OH258914   3.151   5.926  16.132  0.1424 -0.0730  0.2045
12500TIP3    H158915   3.066   5.909  16.170  0.1193 -2.4897 -0.7351
12500TIP3    H258916   3.156   6.021  16.125 -1.8772  0.1836  1.5511
12501TIP3   OH258917   0.487   2.329   1.674  0.1260  0.5677  0.1247
12501TIP3    H158918   0.480   2.248   1.725  1.1423  0.1960 -0.2857
12501TIP3    H258919   0.506   2.397   1.740  0.7452  0.2119  0.3216
12502TIP3   OH258920   5.575   0.862  16.795  0.4573 -0.4469  0.3936
12502TIP3    H158921   5.513   0.909  16.851  0.1402 -0.7772  0.3284
12502TIP3    H258922   5.522   0.795  16.752  0.7848 -0.4773  0.0303
12503TIP3   OH258923   0.331   3.507  14.044  0.5126  0.2443 -0.3538
12503TIP3    H158924   0.247   3.545  14.018 -0.8008 -0.7027  2.1547
12503TIP3    H258925   0.322   3.414  14.025  0.4147 -0.0842  1.1836
12504TIP3   OH258926   0.654   2.574   5.013  0.0766 -0.3388 -0.9429
12504TIP3    H158927   0.561   2.572   4.991 -0.8244  0.7518  2.1381
12504TIP3    H258928   0.656   2.596   5.107  3.4262 -1.3943 -0.6254
12505TIP3   OH258929   0.718   1.548  16.943 -0.4939  0.0567  0.0791
12505TIP3    H158930   0.696   1.640  16.957 -1.3956 -0.3821  1.7696
12505TIP3    H258931   0.784   1.550  16.873 -0.5934  1.9599 -0.0217
12506TIP3   OH258932   2.106   4.014  13.509 -0.1126 -0.5136 -0.5270
12506TIP3    H158933   2.051   3.938  13.529 -0.2863 -0.0402  0.9414
12506TIP3    H258934   2.181   4.005  13.568 -0.1266  0.4299 -0.3492
12507TIP3   OH258935   2.737   0.229   4.191  0.0425 -0.1718  0.5410
12507TIP3    H158936   2.825   0.193   4.201  0.1342 -0.3641 -0.8710
12507TIP3    H258937   2.689   0.195   4.267  0.1831 -3.1169 -0.5633
12508TIP3   OH258938   1.664   6.674  12.125  0.2376 -0.1251 -0.2222
12508TIP3    H158939   1.723   6.599  12.132 -0.5433 -1.0176 -2.3106
12508TIP3    H258940   1.624   6.665  12.038 -0.6654  2.1498 -0.1140
12509TIP3   OH258941   4.537   3.420   2.746  0.2573 -0.5251 -0.0975
12509TIP3    H158942   4.454   3.375   2.759  0.9300 -1.8926 -0.4271
12509TIP3    H258943   4.590   3.398   2.823  1.2469 -1.8351 -1.1134
12510TIP3   OH258944   5.574   1.999   6.408  0.1896 -0.6455 -0.2937
12510TIP3    H158945   5.533   2.085   6.407  1.7211  0.1567 -3.2049
12510TIP3    H258946   5.619   1.994   6.493 -0.0883  1.3217  0.0050
12511TIP3   OH258947   4.089   5.486  12.688  0.1976 -0.5930  0.0746
12511TIP3    H158948   4.099   5.580  12.674  1.3157 -0.7014  0.0727
12511TIP3    H258949   4.042   5.455  12.610 -2.8172  0.3611  1.3541
12512TIP3   OH258950   5.472   3.462  10.974  0.2669  0.0017 -0.1031
12512TIP3    H158951   5.531   3.426  10.908 -1.0035  0.7747 -1.7011
12512TIP3    H258952   5.524   3.530  11.018  0.8094  0.1505 -0.9653
12513TIP3   OH258953   4.109   2.049  14.414 -0.1278 -0.0244  0.0630
12513TIP3    H158954   4.159   1.979  14.373 -1.5171 -1.3990  0.5902
12513TIP3    H258955   4.097   2.020  14.505 -1.7079  0.3071 -0.0055
12514TIP3   OH258956   5.861   4.510  15.591  0.7186  0.2703  0.2303
12514TIP3    H158957   5.776   4.466  15.585 -0.0458  1.8681 -1.8553
12514TIP3    H258958   5.922   4.441  15.614 -1.1852 -0.8411  2.3417
12515TIP3   OH258959   6.160   3.642   4.629  0.4251  0.5421 -0.4922
12515TIP3    H158960   6.117   3.677   4.551 -2.1926 -1.0677  0.0905
12515TIP3    H258961   6.142   3.548   4.626  1.3849  0.2427  1.3888
12516TIP3   OH258962   5.675   2.164  10.678 -0.1452  0.1017 -0.6427
12516TIP3    H158963   5.669   2.252  10.641  1.1012 -0.3112 -1.9023
12516TIP3    H258964   5.718   2.112  10.610  0.1991 -1.2083  0.5330
12517TIP3   OH258965   3.393   0.650  11.156 -0.2804 -0.3653 -0.5207
12517TIP3    H158966   3.357   0.569  11.120  0.1199 -0.0514 -1.6650
12517TIP3    H258967   3.323   0.683  11.213  0.3185 -2.5091  1.6045
12518TIP3   OH258968   0.513   1.472   4.972 -0.2434 -0.4573 -0.0928
12518TIP3    H158969   0.433   1.522   4.952 -0.0354 -0.4943 -1.0343
12518TIP3    H258970   0.557   1.461   4.888  0.5583 -0.7930  0.3586
12519TIP3   OH258971   1.314   1.433  14.060  0.1872  0.3215 -0.2217
12519TIP3    H158972   1.286   1.415  13.971 -0.5361 -1.2187  0.2792
12519TIP3    H258973   1.242   1.483  14.099  0.1191  0.2366 -0.2401
12520TIP3   OH258974   6.492   4.117   2.608 -0.0064 -0.8183 -0.2761
12520TIP3    H158975   6.568   4.103   2.663 -1.0246 -1.1274  1.0991
12520TIP3    H258976   6.483   4.036   2.558 -0.3313 -1.3940  0.6982
12521TIP3   OH258977   3.043   6.695   0.184 -0.1112  0.2624  0.6137
12521TIP3    H158978   3.018   6.691   0.276 -2.1187  1.3371  0.1623
12521TIP3    H258979   2.961   6.683   0.136  1.0884 -1.8229 -1.1005
12522TIP3   OH258980   3.658   6.027   3.166 -0.2567 -0.0013 -0.3551
12522TIP3    H158981   3.564   6.037   3.150 -0.3866 -1.8803 -0.9577
12522TIP3    H258982   3.665   5.947   3.217  0.9371  0.8700  0.9035
12523TIP3   OH258983   5.143   4.094   5.506  0.2871 -0.1237 -0.4750
12523TIP3    H158984   5.152   4.174   5.454  1.9700  0.2549  0.3208
12523TIP3    H258985   5.226   4.048   5.493 -0.7413 -1.8917 -1.1051
12524TIP3   OH258986   4.256   3.648  12.081 -0.1338  0.4506  0.3822
12524TIP3    H158987   4.219   3.736  12.091 -1.0373  0.0797  0.3949
12524TIP3    H258988   4.179   3.590  12.079  0.4220 -0.2827 -0.2010
12525TIP3   OH258989   3.276   5.281   5.901 -0.2669  0.5065  0.7232
12525TIP3    H158990   3.235   5.367   5.912 -1.0392  0.3866 -0.8856
12525TIP3    H258991   3.204   5.219   5.899  0.3246 -0.2974  2.4890
12526TIP3   OH258992   2.111   4.893   5.172  0.2555 -0.7644  0.5726
12526TIP3    H158993   2.186   4.848   5.134 -0.2170 -0.5120 -0.7224
12526TIP3    H258994   2.054   4.822   5.203  0.3434 -1.0029  0.1953
12527TIP3   OH258995   0.653   1.926   2.682 -0.0623  0.4280 -0.0968
12527TIP3    H158996   0.674   1.945   2.590 -1.0227  1.1446 -0.1839
12527TIP3    H258997   0.704   1.847   2.702  0.8888  0.7940 -0.9591
12528TIP3   OH258998   5.288   6.600   2.806 -0.3064  0.1669 -0.7037
12528TIP3    H158999   5.352   6.626   2.873 -0.1614 -0.1776 -0.7035
12528TIP3    H259000   5.318   6.513   2.778 -0.0999  0.5029 -1.5476
12529TIP3   OH259001   1.388   2.750  17.164 -0.0301 -0.6934 -0.4946
12529TIP3    H159002   1.452   2.721  17.229  0.2442  0.7058 -0.0992
12529TIP3    H259003   1.424   2.725  17.080  1.0157 -0.0136 -0.2679
12530TIP3   OH259004   3.470   5.110   4.878 -0.2293  0.1016  0.9257
12530TIP3    H159005   3.437   5.037   4.930 -2.5664 -0.7391 -1.4927
12530TIP3    H259006   3.496   5.071   4.794 -2.4429  2.0464 -0.8119
12531TIP3   OH259007   4.132   2.526   5.908  0.5997  0.2833  0.1606
12531TIP3    H159008   4.182   2.445   5.917  1.7089  1.0218  0.9997
12531TIP3    H259009   4.178   2.576   5.841 -0.7447 -0.2206 -1.1970
12532TIP3   OH259010   4.146   2.770   0.517 -0.6546 -0.6952 -0.4141
12532TIP3    H159011   4.099   2.705   0.464 -2.2392 -0.4541  0.6094
12532TIP3    H259012   4.076   2.818   0.562  0.5755  0.1440  0.6605
12533TIP3   OH259013   1.883   5.766  13.623 -0.4639 -0.0347 -0.1982
12533TIP3    H159014   1.789   5.784  13.629  0.0510  3.2743  0.0065
12533TIP3    H259015   1.924   5.838  13.671  2.2354  0.1302 -2.4522
12534TIP3   OH259016   4.014   3.374   2.720 -0.4552 -0.0745 -0.0417
12534TIP3    H159017   3.951   3.310   2.687 -0.1072 -0.2904 -0.2921
12534TIP3    H259018   3.963   3.428   2.781 -0.8304 -0.3791 -0.0781
12535TIP3   OH259019   2.305   0.464  15.819  0.0257 -0.1241 -0.2416
12535TIP3    H159020   2.271   0.426  15.738 -0.0336  0.1075 -0.3282
12535TIP3    H259021   2.324   0.389  15.875  0.9112 -0.3322 -0.8022
12536TIP3   OH259022   4.503   5.038  16.432  0.2937  0.4664 -0.3971
12536TIP3    H159023   4.537   5.098  16.365  0.6752  2.4462  1.4759
12536TIP3    H259024   4.564   4.964  16.430  0.7419  0.8412 -1.7009
12537TIP3   OH259025   2.683   4.993  14.463  0.6913 -0.2181 -0.1097
12537TIP3    H159026   2.760   5.010  14.409  0.5343 -1.9053 -0.9402
12537TIP3    H259027   2.697   5.045  14.542  2.4979 -0.1861 -0.4108
12538TIP3   OH259028   0.101   2.230  14.153  0.4421  0.2470  0.3282
12538TIP3    H159029   0.181   2.190  14.119  0.3728  0.3124  0.0865
12538TIP3    H259030   0.109   2.323  14.131 -0.3232  0.0341 -0.9279
12539TIP3   OH259031   2.314   5.430   1.950 -0.0188 -0.3739  0.4207
12539TIP3    H159032   2.240   5.490   1.939  0.6122  0.3543  0.0574
12539TIP3    H259033   2.362   5.464   2.026  0.8565  0.1424 -0.3471
12540TIP3   OH259034   2.080   1.692   5.808  0.5552 -0.8134 -0.0340
12540TIP3    H159035   2.076   1.647   5.724 -0.8184  0.7251 -0.8512
12540TIP3    H259036   2.104   1.624   5.871 -0.3331 -2.4086 -1.3535
12541TIP3   OH259037   6.397   5.226   1.549  0.3153 -0.0937 -0.1768
12541TIP3    H159038   6.363   5.137   1.543  1.2525 -0.4493 -0.3931
12541TIP3    H259039   6.415   5.239   1.642 -2.6167  0.9784  0.3540
12542TIP3   OH259040   5.305   1.634   0.183  0.0722 -0.1229 -0.1855
12542TIP3    H159041   5.282   1.567   0.119 -1.0478 -0.1769  0.2497
12542TIP3    H259042   5.222   1.659   0.222  0.4443  1.7061 -0.5093
12543TIP3   OH259043   0.588   4.233  14.258 -0.0357  0.0456  0.1036
12543TIP3    H159044   0.640   4.187  14.192 -0.6303 -0.9292  0.2881
12543TIP3    H259045   0.501   4.240  14.218  0.1772  1.5551 -0.1549
12544TIP3   OH259046   3.423   0.412   3.267  0.0113  0.0206  0.2137
12544TIP3    H159047   3.477   0.490   3.250  1.8040 -1.7939 -3.7583
12544TIP3    H259048   3.346   0.424   3.212  0.9017 -1.4138 -1.4608
12545TIP3   OH259049   0.270   4.317  17.000 -0.1081  0.3221  0.3016
12545TIP3    H159050   0.273   4.413  17.006  0.7399  0.3129  0.2005
12545TIP3    H259051   0.314   4.287  17.079  1.4647  0.0628 -0.6264
12546TIP3   OH259052   4.143   1.751   3.111  0.1633 -0.5122  0.0217
12546TIP3    H159053   4.228   1.706   3.114  1.4202  1.7528  0.2194
12546TIP3    H259054   4.143   1.796   3.026 -0.2084  0.6393  0.6131
12547TIP3   OH259055   6.146   2.668   2.257 -0.3475 -0.5293  0.4386
12547TIP3    H159056   6.124   2.631   2.343  0.6371 -2.4145 -0.0651
12547TIP3    H259057   6.062   2.694   2.220 -0.8565 -0.3016  1.6955
12548TIP3   OH259058   3.552   1.542   5.242 -0.0467  0.4353  0.1681
12548TIP3    H159059   3.568   1.456   5.281 -1.0470  0.4743  0.7109
12548TIP3    H259060   3.458   1.543   5.225  0.1881  0.8706 -1.2055
12549TIP3   OH259061   2.023   2.761  14.791  0.1037 -0.0103 -0.0772
12549TIP3    H159062   2.069   2.823  14.735 -0.8323  1.1163  0.3613
12549TIP3    H259063   2.087   2.737  14.858  0.6155  0.1254 -0.5088
12550TIP3   OH259064   1.110   1.413  14.308  0.2483  0.1354 -0.0708
12550TIP3    H159065   1.074   1.465  14.236  0.5501  2.2731  1.2326
12550TIP3    H259066   1.197   1.451  14.324 -0.2687  0.5299  2.1407
12551TIP3   OH259067   4.275   1.413   2.124  0.3891  0.0152  0.5914
12551TIP3    H159068   4.236   1.466   2.195 -0.9168  0.3565 -0.3335
12551TIP3    H259069   4.299   1.331   2.166 -1.4847 -0.2673  1.2394
12552TIP3   OH259070   1.118   2.541  15.890 -0.2478  0.2982  0.0909
12552TIP3    H159071   1.094   2.449  15.880 -1.5983  0.8013 -1.7765
12552TIP3    H259072   1.122   2.555  15.984 -3.5856 -0.8253  0.5153
12553TIP3   OH259073   2.278   0.513   4.766  0.2634  0.1373 -0.4378
12553TIP3    H159074   2.260   0.538   4.676 -1.3762  0.1756 -0.1154
12553TIP3    H259075   2.198   0.534   4.814  1.2647  0.5578  1.1249
12554TIP3   OH259076   1.035   2.189  14.949 -0.0842  0.0714  0.6997
12554TIP3    H159077   0.955   2.137  14.952 -2.1716  3.0729  1.2859
12554TIP3    H259078   1.039   2.222  14.859  0.1117  0.4969  0.8645
12555TIP3   OH259079   5.817   4.998  15.904  0.1389  0.2116 -0.0341
12555TIP3    H159080   5.866   5.027  15.827  1.6984  0.1480  0.8898
12555TIP3    H259081   5.884   4.964  15.964 -1.2106 -1.3488  0.6583
12556TIP3   OH259082   0.529   3.759  13.915  0.3069  0.0836  0.4085
12556TIP3    H159083   0.526   3.775  14.010  1.8727 -1.9732  0.8939
12556TIP3    H259084   0.553   3.843  13.877 -2.4064  1.5338  1.5598
12557TIP3   OH259085   5.073   5.300  12.281  0.5325  0.2236  0.1329
12557TIP3    H159086   5.105   5.332  12.197  0.8910 -0.4171  0.0187
12557TIP3    H259087   5.113   5.213  12.290 -0.4828 -0.2290  0.3934
12558TIP3   OH259088   3.161   5.731   4.216 -0.1453 -0.4413  0.0814
12558TIP3    H159089   3.249   5.764   4.231  0.2131 -0.5688 -1.5420
12558TIP3    H259090   3.169   5.675   4.139 -1.9677  1.1273 -1.3413
12559TIP3   OH259091   0.471   3.516  13.782  0.1564 -0.3322  0.1496
12559TIP3    H159092   0.476   3.583  13.851 -0.6675 -1.2284  1.1215
12559TIP3    H259093   0.412   3.450  13.818  0.2369 -1.1470 -1.1667
12560TIP3   OH259094   3.965   5.264  12.149 -0.1643  0.4908 -0.0067
12560TIP3    H159095   4.006   5.278  12.234 -0.5366  2.1068 -0.0617
12560TIP3    H259096   3.894   5.329  12.146 -1.5991 -1.0454 -0.6399
12561TIP3   OH259097   3.004   2.052  14.118  0.2356  0.3059 -0.2358
12561TIP3    H159098   3.072   2.118  14.112  0.2314  0.5607  1.7837
12561TIP3    H259099   2.933   2.084  14.062  0.0255  2.3225  1.0760
12562TIP3   OH259100   3.816   3.574   1.855  0.6120 -0.6804 -0.2391
12562TIP3    H159101   3.814   3.596   1.948 -1.4502 -0.4173 -0.2837
12562TIP3    H259102   3.890   3.515   1.845  1.7939  0.4797  1.2722
12563TIP3   OH259103   4.093   3.627   0.854 -0.3823 -0.0804  0.5514
12563TIP3    H159104   4.073   3.596   0.942  2.7492 -0.6699  1.1915
12563TIP3    H259105   4.075   3.551   0.798 -0.8451 -0.2397  0.9066
12564TIP3   OH259106   0.513   2.976  15.068 -0.1424  0.2697 -0.5840
12564TIP3    H159107   0.435   2.930  15.038  0.1113  0.0112 -0.8544
12564TIP3    H259108   0.584   2.940  15.015  0.4887 -0.9004  0.9693
12565TIP3   OH259109   6.205   1.113   4.942  0.1084 -0.3113 -0.0507
12565TIP3    H159110   6.203   1.056   4.865 -2.3201  0.2620 -0.4655
12565TIP3    H259111   6.210   1.053   5.016  0.6527 -0.9315 -0.5779
12566TIP3   OH259112   6.099   0.960  13.708  0.4170  0.5246 -0.1867
12566TIP3    H159113   6.075   0.941  13.798 -0.2880  1.3561 -0.1879
12566TIP3    H259114   6.180   1.010  13.714  1.6617 -1.3888 -0.1367
12567TIP3   OH259115   4.501   3.453   6.439 -0.0467 -0.4241  0.5116
12567TIP3    H159116   4.469   3.488   6.356  2.1439 -2.0825 -1.1191
12567TIP3    H259117   4.450   3.373   6.452 -0.3170 -0.2180  0.7635
12568TIP3   OH259118   0.412   3.429  12.895 -0.2492 -0.7599  0.1452
12568TIP3    H159119   0.458   3.404  12.975  0.6860 -0.3713 -0.2585
12568TIP3    H259120   0.327   3.386  12.902 -0.4207 -0.2461  1.6242
12569TIP3   OH259121   4.966   4.969  16.297 -0.6148  0.1050 -0.1834
12569TIP3    H159122   4.945   5.000  16.209  1.1967 -0.8219 -1.0044
12569TIP3    H259123   4.903   4.899  16.314 -2.2139  1.5501  0.0952
12570TIP3   OH259124   5.329   5.962   0.817  0.6645 -0.5779 -0.0411
12570TIP3    H159125   5.283   6.041   0.786  1.5786 -0.0229 -0.0291
12570TIP3    H259126   5.401   5.996   0.870 -0.0227 -1.4836  1.5297
12571TIP3   OH259127   4.155   1.402  14.581 -0.4241  0.2634 -0.7060
12571TIP3    H159128   4.094   1.334  14.551 -0.0809 -0.3288 -0.1106
12571TIP3    H259129   4.101   1.480  14.591 -1.3515 -0.5291  0.8930
12572TIP3   OH259130   0.404   6.551  13.469  0.1919 -0.0375 -0.4700
12572TIP3    H159131   0.342   6.623  13.464 -0.0484 -0.2249 -0.2139
12572TIP3    H259132   0.459   6.561  13.391 -0.2923  0.0006 -0.8106
12573TIP3   OH259133   3.152   0.361   3.179  0.3672 -0.3149  0.5418
12573TIP3    H159134   3.163   0.273   3.215 -0.2930 -0.4829  0.3542
12573TIP3    H259135   3.058   0.379   3.191  0.5817  0.5494  1.0150
12574TIP3   OH259136   5.596   2.951  15.788  0.6397  0.3016  0.5476
12574TIP3    H159137   5.607   2.873  15.841  0.2496  0.6943  1.2084
12574TIP3    H259138   5.543   3.010  15.841  3.0051  2.0288  1.1441
12575TIP3   OH259139   5.510   1.313   3.910  0.1552 -0.8463 -0.2163
12575TIP3    H159140   5.422   1.279   3.920 -0.6572  1.4189  1.2697
12575TIP3    H259141   5.538   1.284   3.823 -1.8846 -1.9267 -0.5674
12576TIP3   OH259142   4.669   1.170  17.368 -0.1000 -0.1510  0.3077
12576TIP3    H159143   4.620   1.188  17.448  0.7728 -0.5227  0.9422
12576TIP3    H259144   4.633   1.088  17.335 -0.1759 -0.2146  0.5505
12577TIP3   OH259145   4.100   0.656   2.888 -0.3122 -0.0211 -0.0753
12577TIP3    H159146   4.055   0.596   2.948 -0.0538  1.0044  1.1849
12577TIP3    H259147   4.103   0.739   2.935  0.4932  0.6483 -1.2586
12578TIP3   OH259148   5.756   4.791  14.453  0.6977 -0.4428 -0.2703
12578TIP3    H159149   5.700   4.729  14.500 -0.4577 -2.0973 -3.5323
12578TIP3    H259150   5.843   4.751  14.456  0.6935 -0.4101  0.5972
12579TIP3   OH259151   1.481   0.208  15.740 -0.4151  0.2621 -0.5518
12579TIP3    H159152   1.514   0.295  15.716 -0.0005  0.3734  0.4131
12579TIP3    H259153   1.393   0.225  15.773  0.7736  0.7726  2.6589
12580TIP3   OH259154   5.625   6.071  17.139  0.2788 -0.0123  0.4463
12580TIP3    H159155   5.583   5.997  17.094 -0.6319  0.9167 -0.2844
12580TIP3    H259156   5.676   6.115  17.071 -0.3431  0.8534  0.5210
12581TIP3   OH259157   1.965   2.899   1.045 -0.1581  0.4290  0.0792
12581TIP3    H159158   1.935   2.809   1.056  0.2588  0.2603 -0.1423
12581TIP3    H259159   2.006   2.901   0.958  0.1451  0.7423  0.2233
12582TIP3   OH259160   0.542   6.487   3.517  0.1772  0.2467 -0.0186
12582TIP3    H159161   0.506   6.424   3.455  0.4303  0.1160 -0.0353
12582TIP3    H259162   0.634   6.460   3.527  0.2866  0.6111 -0.0262
12583TIP3   OH259163   5.507   6.087  10.668 -0.1964 -0.2114  0.1493
12583TIP3    H159164   5.464   6.133  10.741  0.1329  2.2829 -1.1095
12583TIP3    H259165   5.555   6.156  10.622  0.1879 -1.8396 -2.0318
12584TIP3   OH259166   4.071   5.899   2.685  0.3341 -0.7632 -0.2427
12584TIP3    H159167   4.012   5.828   2.658  0.6453 -0.7543 -0.9874
12584TIP3    H259168   4.014   5.975   2.693  0.3710 -0.5118 -1.9743
12585TIP3   OH259169   2.528   0.011  16.006 -0.0495 -0.6183  0.4764
12585TIP3    H159170   2.580   0.087  16.034  1.2109 -0.8518 -1.0619
12585TIP3    H259171   2.590  -0.043  15.957 -1.9790 -0.3506 -2.5119
12586TIP3   OH259172   2.119   4.930  12.013  0.4477  0.3179  0.0013
12586TIP3    H159173   2.091   4.896  12.098  0.2743  1.3164  0.3538
12586TIP3    H259174   2.203   4.973  12.030  0.8164 -0.1822 -0.4987
12587TIP3   OH259175   5.688   5.829   0.168 -0.1564  0.0767  0.1346
12587TIP3    H159176   5.713   5.885   0.242 -0.0111 -0.1345  0.2461
12587TIP3    H259177   5.648   5.752   0.209  0.4374 -0.2983  0.0168
12588TIP3   OH259178   2.341   4.869  15.568  0.1687  0.0108  0.3494
12588TIP3    H159179   2.395   4.936  15.611 -0.7947  0.1382  1.4392
12588TIP3    H259180   2.403   4.805  15.535  1.1055  1.3391 -0.5344
12589TIP3   OH259181   2.855   3.121  17.066 -0.4327  0.5311 -0.1369
12589TIP3    H159182   2.858   3.157  16.978  1.1501  0.5869 -0.0928
12589TIP3    H259183   2.767   3.142  17.098 -0.6086  1.5830 -1.2445
12590TIP3   OH259184   5.426   5.363   0.255  0.0504 -0.2069 -0.4522
12590TIP3    H159185   5.456   5.366   0.164  1.3782  1.8138 -0.0419
12590TIP3    H259186   5.342   5.319   0.252  0.4893 -1.0237 -2.5185
12591TIP3   OH259187   5.402   2.664   0.409  0.4495  0.4899  0.0783
12591TIP3    H159188   5.338   2.618   0.355  0.7861 -1.8015  1.5011
12591TIP3    H259189   5.350   2.704   0.479  0.3525  0.7050 -0.1131
12592TIP3   OH259190   4.147   1.886   4.873  0.2605  0.1051  0.4102
12592TIP3    H159191   4.157   1.814   4.810 -1.6390  0.4431 -0.3236
12592TIP3    H259192   4.081   1.855   4.934  0.5535  0.6382  1.0115
12593TIP3   OH259193   3.757   1.639  13.557  0.1444  0.0856 -0.0254
12593TIP3    H159194   3.705   1.708  13.598 -0.0353 -0.1020  0.0627
12593TIP3    H259195   3.806   1.599  13.629  1.2792  1.0015 -0.2587
12594TIP3   OH259196   1.250   1.060  11.491 -0.2341 -0.8081  0.4616
12594TIP3    H159197   1.300   1.115  11.551  2.0219  0.2243 -2.1234
12594TIP3    H259198   1.285   0.972  11.504 -0.0535 -0.6685  0.9264
12595TIP3   OH259199   5.118   5.220   5.560  0.3254 -1.0603  0.2822
12595TIP3    H159200   5.029   5.185   5.564 -0.0402 -0.1370  0.6916
12595TIP3    H259201   5.106   5.310   5.528  1.3041 -1.5656 -1.6477
12596TIP3   OH259202   5.086   3.846  15.962  0.1861 -0.4591 -0.3011
12596TIP3    H159203   5.135   3.858  15.881  0.6863 -0.9178 -0.0810
12596TIP3    H259204   5.009   3.795  15.936 -0.2416  0.3574 -0.6683
12597TIP3   OH259205   6.683   2.219  13.777 -0.3381  0.0030  0.1892
12597TIP3    H159206   6.733   2.176  13.846  0.3420  3.0661  1.7742
12597TIP3    H259207   6.742   2.219  13.701 -0.4162 -1.8322  0.0736
12598TIP3   OH259208   5.543   5.467   1.833  0.8717 -0.0163  0.0420
12598TIP3    H159209   5.480   5.504   1.772 -0.5366 -0.8529  0.9098
12598TIP3    H259210   5.628   5.479   1.792 -0.1092 -2.0312 -2.9062
12599TIP3   OH259211   0.572   2.201  12.915  0.0027  0.4079  0.3617
12599TIP3    H159212   0.633   2.171  12.848 -1.1071  0.0361 -0.5350
12599TIP3    H259213   0.486   2.198  12.871 -0.6493  0.9324  1.5572
12600TIP3   OH259214   4.991   5.600  11.541  0.1433  0.7798 -0.1439
12600TIP3    H159215   4.923   5.579  11.605 -0.0308  2.8200  0.3911
12600TIP3    H259216   4.945   5.645  11.471  0.4158 -0.9910 -1.5324
12601TIP3   OH259217   4.377   0.851   2.723 -0.8342 -0.5262  0.3147
12601TIP3    H159218   4.457   0.891   2.755 -2.1218  1.0464  1.7473
12601TIP3    H259219   4.383   0.856   2.628  0.1941  0.7404  0.4321
12602TIP3   OH259220   3.053   0.573   1.758  0.0827 -0.0025 -0.6593
12602TIP3    H159221   3.072   0.645   1.697  0.9868  1.3030  1.0799
12602TIP3    H259222   3.069   0.610   1.845  0.9025 -2.3978  0.3040
12603TIP3   OH259223   5.040   2.760   1.720 -0.5020  0.1077  0.3904
12603TIP3    H159224   5.126   2.719   1.709 -0.8882 -0.5239 -0.3311
12603TIP3    H259225   5.056   2.853   1.700 -0.0717 -0.0799 -0.1724
12604TIP3   OH259226   0.265   0.923  15.109 -1.2833 -0.2204 -0.3865
12604TIP3    H159227   0.317   0.863  15.055  1.4170  2.0754 -0.5738
12604TIP3    H259228   0.300   0.912  15.198  0.2214  1.9025 -0.6437
12605TIP3   OH259229   5.042   4.103   3.320 -0.2487  0.8061  0.1849
12605TIP3    H159230   4.989   4.059   3.254 -0.0466  0.6260  0.1430
12605TIP3    H259231   5.055   4.191   3.285 -0.6499  0.9023  0.2682
12606TIP3   OH259232   3.517   4.675  14.737  0.4160  0.6706 -0.1546
12606TIP3    H159233   3.446   4.720  14.783  1.0734  1.3590  0.2039
12606TIP3    H259234   3.481   4.654  14.652 -0.3415  0.6921  0.1559
12607TIP3   OH259235   1.742   0.543  13.588 -0.1809 -0.1750  0.4495
12607TIP3    H159236   1.728   0.634  13.613  0.7306 -0.0260  0.4514
12607TIP3    H259237   1.817   0.515  13.641  1.9447  0.2029 -2.1621
12608TIP3   OH259238   3.247   5.232  14.746  0.3255  0.5882 -0.1414
12608TIP3    H159239   3.197   5.310  14.722 -2.4145 -1.4766 -1.7484
12608TIP3    H259240   3.180   5.167  14.767  2.4700 -1.5755  0.3743
12609TIP3   OH259241   2.760   6.137   2.470  0.5794 -0.6200 -0.3217
12609TIP3    H159242   2.722   6.077   2.406  1.1474 -0.1339 -1.1301
12609TIP3    H259243   2.837   6.174   2.426 -0.4932  1.7249 -0.4047
12610TIP3   OH259244   0.520   2.062  17.387  0.4089  0.1208 -0.1044
12610TIP3    H159245   0.435   2.022  17.367  1.7452 -1.5849 -3.0534
12610TIP3    H259246   0.549   2.017  17.467 -0.9852  0.0430  0.3975
12611TIP3   OH259247   3.477   2.316   5.717  0.2810 -0.3091 -0.1541
12611TIP3    H159248   3.488   2.400   5.763  2.0858  0.6122 -2.0807
12611TIP3    H259249   3.397   2.328   5.666  0.4780  0.2103 -0.3496
12612TIP3   OH259250   0.590   3.113   3.296 -0.1460  0.2017  0.0695
12612TIP3    H159251   0.525   3.177   3.323 -0.5927 -0.6474  1.0801
12612TIP3    H259252   0.616   3.140   3.208 -2.0153  0.4510 -0.4455
12613TIP3   OH259253   2.369   6.214  14.869 -0.5923 -0.3265 -0.3914
12613TIP3    H159254   2.316   6.277  14.820  1.4732  1.9609  0.1330
12613TIP3    H259255   2.306   6.167  14.924 -2.3190  0.6724 -1.4274
12614TIP3   OH259256   4.347   1.358  14.758  0.2532  0.7245  0.0472
12614TIP3    H159257   4.411   1.428  14.744 -0.5227  1.4571  0.0853
12614TIP3    H259258   4.279   1.374  14.693 -0.3692  0.5392  0.6348
12615TIP3   OH259259   5.062   0.376   0.639 -0.2122  0.0715  0.3650
12615TIP3    H159260   4.982   0.398   0.590 -0.2359 -1.0452 -0.1346
12615TIP3    H259261   5.117   0.330   0.575 -0.2654 -1.4873  1.3792
12616TIP3   OH259262   1.086   4.466  14.457 -0.3048 -0.0182  0.3512
12616TIP3    H159263   1.046   4.396  14.509 -0.6806 -0.7914 -0.9240
12616TIP3    H259264   1.013   4.510  14.416  0.0466 -0.5208 -0.8611
12617TIP3   OH259265   4.708   5.253   1.727  0.0967 -0.6130 -0.4893
12617TIP3    H159266   4.626   5.303   1.731  0.6055  0.1944  0.1657
12617TIP3    H259267   4.716   5.229   1.634  0.5892  1.8853 -1.1792
12618TIP3   OH259268   5.424   1.650  11.881  0.3864  0.2939 -0.1812
12618TIP3    H159269   5.349   1.598  11.850  1.0020 -0.7512  0.0258
12618TIP3    H259270   5.483   1.652  11.806  0.9846 -0.5219  0.2473
12619TIP3   OH259271   5.344   4.757  17.235 -0.0754  0.0498  0.2070
12619TIP3    H159272   5.351   4.668  17.199  0.3431  0.0114  0.3787
12619TIP3    H259273   5.258   4.787  17.206  0.1396 -0.0806 -0.6064
12620TIP3   OH259274   5.345   3.319  11.680 -0.1335  0.2096 -0.1443
12620TIP3    H159275   5.267   3.335  11.627 -1.0323 -0.4216  0.9389
12620TIP3    H259276   5.394   3.402  11.677 -0.4125  0.3478 -1.5070
12621TIP3   OH259277   6.628   3.692  13.194 -0.3280 -0.1361  0.1370
12621TIP3    H159278   6.634   3.775  13.242 -0.2262  0.9600 -1.6879
12621TIP3    H259279   6.667   3.628  13.253  1.8107  1.5383  0.6778
12622TIP3   OH259280   0.700   5.307   0.677 -0.0313 -0.4261  0.2736
12622TIP3    H159281   0.717   5.323   0.584  0.7386  0.7291  0.5809
12622TIP3    H259282   0.632   5.240   0.678  0.1268 -0.6432 -1.1171
12623TIP3   OH259283   3.043   2.854  12.797  0.2257  0.5277 -0.4472
12623TIP3    H159284   3.046   2.779  12.737 -0.6551 -0.7850  1.0653
12623TIP3    H259285   3.102   2.918  12.758 -0.8545  0.0466 -3.0948
12624TIP3   OH259286   6.171   5.289   5.738 -0.6199  0.3363 -0.6202
12624TIP3    H159287   6.094   5.335   5.770 -0.8569 -1.3475  1.3916
12624TIP3    H259288   6.142   5.198   5.727  1.7042 -1.1508  3.3930
12625TIP3   OH259289   2.634   5.896  12.145 -0.7153  0.5828 -0.6780
12625TIP3    H159290   2.572   5.825  12.129 -1.4360  1.2859 -1.0822
12625TIP3    H259291   2.673   5.914  12.060  0.8765 -0.5684 -0.2483
12626TIP3   OH259292   3.211   4.800  15.956  0.7318  0.6988 -0.2440
12626TIP3    H159293   3.169   4.714  15.965  1.2062  0.6468  2.2496
12626TIP3    H259294   3.301   4.786  15.986  0.9332  1.9782 -0.1858
12627TIP3   OH259295   2.397   4.056  13.011 -0.3558  0.2763  0.3304
12627TIP3    H159296   2.379   4.089  12.922 -2.5905 -1.1365  0.1719
12627TIP3    H259297   2.350   3.972  13.015  2.8399 -1.6494  1.5891
12628TIP3   OH259298   1.160   4.199  16.460  0.6742  0.1797  0.9532
12628TIP3    H159299   1.226   4.195  16.529  0.2212 -0.9199  1.3434
12628TIP3    H259300   1.132   4.109  16.448  0.0070  0.4922  0.0461
12629TIP3   OH259301   6.145   2.865   5.970  0.1595 -0.0808  0.0142
12629TIP3    H159302   6.085   2.818   5.911 -0.4825  0.0344  0.5584
12629TIP3    H259303   6.091   2.934   6.008  0.4921 -0.3139  0.9363
12630TIP3   OH259304   5.762   0.628  12.294 -0.2618  0.5365  0.5543
12630TIP3    H159305   5.812   0.642  12.213 -2.5786 -1.0006 -1.2736
12630TIP3    H259306   5.824   0.583  12.352  1.2254  0.9239 -0.6545
12631TIP3   OH259307   6.391   6.621  12.676  0.2640  0.2778  0.2241
12631TIP3    H159308   6.470   6.651  12.723  0.2281  0.2989  0.2720
12631TIP3    H259309   6.328   6.601  12.746 -0.1540  1.3092  0.1709
12632TIP3   OH259310   0.569   4.264   5.997 -0.0212 -0.0668  0.2362
12632TIP3    H159311   0.494   4.307   6.039  0.8796  1.1380  0.6886
12632TIP3    H259312   0.566   4.294   5.906 -0.3344 -0.3864  0.1374
12633TIP3   OH259313   5.446   6.412   5.783  0.1437  0.1247 -0.6257
12633TIP3    H159314   5.522   6.397   5.840 -1.8480 -0.9459  1.9222
12633TIP3    H259315   5.446   6.337   5.723  1.9008  0.9402 -1.7543
12634TIP3   OH259316   0.189   3.678   2.068  0.2693 -0.8820 -0.0998
12634TIP3    H159317   0.204   3.593   2.027  0.7160 -0.8036 -0.1097
12634TIP3    H259318   0.095   3.682   2.084 -0.4238  0.1731 -3.5686
12635TIP3   OH259319   5.695   3.053  14.071  0.1381  0.0966 -0.1158
12635TIP3    H159320   5.730   3.142  14.071  0.7665 -0.1389 -0.7970
12635TIP3    H259321   5.765   2.999  14.036 -0.3995 -0.6095 -0.1465
12636TIP3   OH259322   0.816   5.197   3.762 -0.1670  0.4149  0.0864
12636TIP3    H159323   0.820   5.291   3.779  1.4702  0.3172  0.3570
12636TIP3    H259324   0.881   5.181   3.695 -0.9412 -0.4412 -0.4887
12637TIP3   OH259325   2.829   0.565  16.011  0.3907 -0.0817 -0.2337
12637TIP3    H159326   2.816   0.598  16.100  0.2384 -0.2866 -0.1798
12637TIP3    H259327   2.837   0.644  15.957  0.0223  0.0443 -0.1077
12638TIP3   OH259328   1.222   2.231   4.506  0.3895 -0.3297  0.2873
12638TIP3    H159329   1.269   2.278   4.576 -1.1993 -1.6489  2.3481
12638TIP3    H259330   1.163   2.297   4.469 -0.4522 -0.1594  1.8469
12639TIP3   OH259331   6.214   3.617   3.912  0.2137  0.3425  0.3004
12639TIP3    H159332   6.217   3.523   3.897  0.2943  0.2769  0.7176
12639TIP3    H259333   6.305   3.646   3.907  0.4629  0.0336  2.4136
12640TIP3   OH259334   4.743   0.843  15.966  0.0464  0.3356  0.2497
12640TIP3    H159335   4.683   0.769  15.953  0.1006  0.1477  1.0290
12640TIP3    H259336   4.715   0.908  15.901  0.1351 -0.4431 -0.5968
12641TIP3   OH259337   5.208   2.210  14.201 -0.0812 -0.5279 -0.0033
12641TIP3    H159338   5.263   2.137  14.228  0.4731  0.8550  3.0103
12641TIP3    H259339   5.121   2.188  14.235 -0.1814 -0.3522 -0.1449
12642TIP3   OH259340   3.237   2.368   5.618 -0.1461 -0.3889  0.0018
12642TIP3    H159341   3.184   2.430   5.667  0.5186  0.6655 -0.5952
12642TIP3    H259342   3.182   2.343   5.544 -0.0558  0.2293 -0.2796
12643TIP3   OH259343   1.500   0.350   0.011  0.1565 -0.3957  0.5095
12643TIP3    H159344   1.414   0.351   0.053  0.6459 -1.2063  1.5852
12643TIP3    H259345   1.519   0.442  -0.009  0.0649  0.0821  2.4451
12644TIP3   OH259346   1.722   3.214   0.923 -0.1134 -0.0805 -0.7116
12644TIP3    H159347   1.759   3.215   1.011 -0.0642 -2.7627 -0.6315
12644TIP3    H259348   1.724   3.306   0.896 -0.8248  0.9761  2.3294
12645TIP3   OH259349   2.965   4.113  16.296 -0.1998 -0.6871 -0.3812
12645TIP3    H159350   2.877   4.146  16.280  0.2276 -0.3754 -2.3720
12645TIP3    H259351   2.957   4.018  16.294 -1.0181 -0.8056  2.9218
12646TIP3   OH259352   4.317   5.341  15.216 -0.0436 -0.7926  0.7127
12646TIP3    H159353   4.412   5.334  15.219  0.2322  1.9783  1.1795
12646TIP3    H259354   4.296   5.339  15.123  0.3722 -2.0084  0.6260
12647TIP3   OH259355   5.392   0.178  14.009  0.4615  0.5091  0.4356
12647TIP3    H159356   5.376   0.243  13.941  0.5922  0.7069  0.5924
12647TIP3    H259357   5.419   0.229  14.085  0.3852  0.2838  0.6154
12648TIP3   OH259358   0.867   3.162  16.845  0.1052 -0.5192 -0.6928
12648TIP3    H159359   0.888   3.172  16.752 -0.3709 -0.7729 -0.8267
12648TIP3    H259360   0.953   3.152  16.887  0.2894 -1.1203 -1.1908
12649TIP3   OH259361   4.405   4.602  14.154  0.5253 -0.3779  0.2690
12649TIP3    H159362   4.405   4.697  14.143  1.1878 -0.2832  1.0067
12649TIP3    H259363   4.376   4.587  14.243  0.9033 -0.8399  0.3227
12650TIP3   OH259364   3.986   2.063   2.878 -0.2472  0.1412  0.3097
12650TIP3    H159365   3.975   2.098   2.967  0.0631  0.5685  0.1840
12650TIP3    H259366   4.077   2.033   2.875 -0.6429 -1.1335  0.5662
12651TIP3   OH259367   4.682   0.961   3.525  0.5717  0.2577 -0.3416
12651TIP3    H159368   4.684   0.967   3.429  1.2142  1.0154 -0.2862
12651TIP3    H259369   4.766   0.922   3.548 -0.0538 -1.0309 -0.1430
12652TIP3   OH259370   4.384   2.123   0.617  0.6868  0.2680 -0.4079
12652TIP3    H159371   4.386   2.057   0.548  0.3574  0.3556 -0.5044
12652TIP3    H259372   4.322   2.088   0.682  0.6966  0.3666 -0.3452
12653TIP3   OH259373   5.123   5.556  15.725  0.2711 -0.2601 -0.5405
12653TIP3    H159374   5.107   5.650  15.733  0.0227 -0.2394 -1.1829
12653TIP3    H259375   5.163   5.531  15.808  0.2310  0.3904 -0.3191
12654TIP3   OH259376   0.957   6.210  16.990 -0.0757  0.1415  0.7294
12654TIP3    H159377   0.937   6.303  16.983 -0.6007 -0.0694 -1.1431
12654TIP3    H259378   0.896   6.177  17.056 -1.2532  0.7810 -0.0045
12655TIP3   OH259379   4.953   1.395  14.319  0.8151  0.0788 -0.4150
12655TIP3    H159380   4.917   1.482  14.299  0.2247 -0.0865 -0.0869
12655TIP3    H259381   5.009   1.410  14.396 -0.0091  0.0159  0.2145
12656TIP3   OH259382   3.886   5.160   0.430  0.0383 -0.0814 -0.3681
12656TIP3    H159383   3.923   5.155   0.518 -0.4701 -2.4004 -0.2253
12656TIP3    H259384   3.909   5.248   0.399 -0.9285  1.3636  2.5795
12657TIP3   OH259385   6.445   1.644  16.998 -0.1715 -0.6842  0.0208
12657TIP3    H159386   6.410   1.581  16.934 -0.3790  1.3409 -1.9733
12657TIP3    H259387   6.503   1.700  16.947  0.5793  0.3229  1.8858
12658TIP3   OH259388   1.523   6.586  12.766 -0.3898 -0.6130 -0.1453
12658TIP3    H159389   1.552   6.644  12.696 -2.1446 -0.3827 -0.7253
12658TIP3    H259390   1.460   6.527  12.724  2.0603 -3.7282  0.1591
12659TIP3   OH259391   5.851   4.084   4.888  0.4241 -0.2726 -0.8957
12659TIP3    H159392   5.777   4.140   4.909  1.6610  1.1374 -0.0848
12659TIP3    H259393   5.812   4.002   4.857 -1.4967 -0.4053  1.5648
12660TIP3   OH259394   4.650   6.690  15.415 -0.3109  0.6339  0.0990
12660TIP3    H159395   4.730   6.653  15.451  0.6609 -0.3372 -2.7782
12660TIP3    H259396   4.580   6.634  15.449  0.6039 -0.5945  0.0361
12661TIP3   OH259397   4.405   4.867  14.646 -0.0340 -0.1733 -0.6050
12661TIP3    H159398   4.380   4.794  14.704  0.0452 -0.2774 -0.7026
12661TIP3    H259399   4.501   4.862  14.642 -0.0523 -0.3044 -0.9257
12662TIP3   OH259400   5.976   4.980   5.209  0.2633 -0.2866  0.8400
12662TIP3    H159401   6.007   5.001   5.297 -0.1155 -0.9888  1.1426
12662TIP3    H259402   5.978   4.885   5.204  0.3428 -0.2533  0.0614
12663TIP3   OH259403   6.140   3.591   4.209 -0.0908  0.2330  0.4615
12663TIP3    H159404   6.190   3.520   4.248  1.0221 -0.5433 -2.1096
12663TIP3    H259405   6.193   3.619   4.134 -2.2141  1.3049 -0.7366
12664TIP3   OH259406   4.366   1.132   6.516  0.0771 -0.0484 -0.2502
12664TIP3    H159407   4.461   1.136   6.512  0.0811  0.1186  0.0010
12664TIP3    H259408   4.346   1.044   6.548  0.1623  0.1281  0.2867
12665TIP3   OH259409   4.232   3.277   5.855 -0.1504 -0.0943  0.2243
12665TIP3    H159410   4.182   3.333   5.795 -1.6881 -0.1009  1.4378
12665TIP3    H259411   4.211   3.310   5.942  0.9003 -0.9906  0.8344
12666TIP3   OH259412   2.899   3.280   2.805 -0.3053 -0.1037 -1.0068
12666TIP3    H159413   2.934   3.243   2.886  3.4392  1.5868 -1.6452
12666TIP3    H259414   2.827   3.221   2.781 -1.6949 -0.6184  3.4885
12667TIP3   OH259415   3.474   0.212   5.780 -0.6983  0.4783  0.1619
12667TIP3    H159416   3.566   0.211   5.754 -0.1695 -1.8982  1.7712
12667TIP3    H259417   3.470   0.156   5.858 -3.3902  1.1216  0.5933
12668TIP3   OH259418   1.460   1.506   3.151 -0.2001  0.0202 -0.9357
12668TIP3    H159419   1.445   1.601   3.160 -1.5488 -0.2386 -0.1475
12668TIP3    H259420   1.550   1.493   3.180 -0.9294  0.7123  1.9896
12669TIP3   OH259421   0.170   4.130  11.972 -0.1193  0.0919 -0.4975
12669TIP3    H159422   0.164   4.036  11.956  2.6491 -0.3914  0.8345
12669TIP3    H259423   0.192   4.137  12.065 -1.2730  2.1469 -0.3163
12670TIP3   OH259424   4.757   4.241  12.702 -0.3515 -0.3156 -0.4969
12670TIP3    H159425   4.745   4.193  12.784 -1.3483  0.4385 -0.1777
12670TIP3    H259426   4.675   4.229  12.654 -0.8230  1.4257 -0.1908
12671TIP3   OH259427   2.328   5.685  15.004  0.0349  0.0845  0.2421
12671TIP3    H159428   2.329   5.778  15.027  3.1263  0.0601  0.6689
12671TIP3    H259429   2.301   5.683  14.912  2.3819  1.7271 -0.5754
12672TIP3   OH259430   3.744   1.326  13.083  0.2464  0.1903  0.1438
12672TIP3    H159431   3.710   1.402  13.035 -0.1695  0.4618  0.8411
12672TIP3    H259432   3.782   1.364  13.162  1.6224 -0.1762 -0.3252
12673TIP3   OH259433   1.444   0.410   0.918 -0.7794 -0.1514 -0.1264
12673TIP3    H159434   1.487   0.369   0.843 -0.3413  0.9338 -0.4932
12673TIP3    H259435   1.393   0.482   0.880 -2.2462 -0.8781  0.3953
12674TIP3   OH259436   5.769   1.563   5.797  0.1754 -0.3045  0.4296
12674TIP3    H159437   5.788   1.644   5.750 -0.7193 -0.6695 -0.5987
12674TIP3    H259438   5.690   1.582   5.847 -0.2987 -0.6632 -0.1664
12675TIP3   OH259439   4.863   1.565   3.733  0.2361 -0.1926  0.0268
12675TIP3    H159440   4.898   1.476   3.727  0.2643 -0.3361  1.7121
12675TIP3    H259441   4.934   1.621   3.701  0.5897 -0.7228 -0.1277
12676TIP3   OH259442   2.258   4.786  14.452 -0.6584  0.6291  0.2943
12676TIP3    H159443   2.227   4.876  14.444 -1.2573  0.4322  0.3261
12676TIP3    H259444   2.178   4.733  14.453 -0.2926  0.0554 -0.2568
12677TIP3   OH259445   2.793   0.569  14.481  0.1608 -0.6331 -0.5688
12677TIP3    H159446   2.804   0.560  14.576 -0.2775  2.2578 -0.1649
12677TIP3    H259447   2.706   0.534  14.464  0.1673 -1.0096  0.1275
12678TIP3   OH259448   0.825   1.225   2.592 -0.4723 -0.0376  0.3270
12678TIP3    H159449   0.842   1.202   2.501  0.3266 -0.8726  0.6703
12678TIP3    H259450   0.737   1.193   2.610 -0.8895  0.7287 -0.3401
12679TIP3   OH259451   2.661   3.883   5.866 -0.3961  0.2755  0.2004
12679TIP3    H159452   2.738   3.922   5.907 -0.5231 -0.0937  0.7925
12679TIP3    H259453   2.611   3.958   5.833 -0.4627  0.6009  1.0265
12680TIP3   OH259454   2.485   3.510  13.041 -0.3038  0.1299 -0.2250
12680TIP3    H159455   2.578   3.531  13.037  0.4323 -2.6466  0.2543
12680TIP3    H259456   2.474   3.461  13.122 -2.6033  1.9253  0.6682
12681TIP3   OH259457   0.429   1.723   5.983 -0.2008 -0.5576  0.1949
12681TIP3    H159458   0.522   1.700   5.979  0.2848  1.3395 -0.3271
12681TIP3    H259459   0.412   1.737   6.076  0.3164  0.0803  0.2018
12682TIP3   OH259460   4.467   2.919   0.105  0.1543 -0.0833  0.0247
12682TIP3    H159461   4.378   2.949   0.123 -0.6744 -3.0218  1.5089
12682TIP3    H259462   4.510   2.917   0.190  0.3671 -2.1487 -0.0705
12683TIP3   OH259463   2.568   0.479  16.196 -0.7929 -0.3500 -0.6391
12683TIP3    H159464   2.650   0.480  16.245 -1.8095 -1.1438  1.1655
12683TIP3    H259465   2.523   0.400  16.225 -1.8483 -0.3954 -2.2429
12684TIP3   OH259466   1.078   2.235  15.863 -0.6145 -0.5724 -0.6843
12684TIP3    H159467   1.034   2.153  15.841 -0.5713 -1.0821  0.9370
12684TIP3    H259468   1.127   2.214  15.943  0.5228  0.6697 -1.0299
12685TIP3   OH259469   0.192   4.864   6.736  0.4878  0.2134 -0.3780
12685TIP3    H159470   0.104   4.884   6.703  0.6252  0.4398 -0.6044
12685TIP3    H259471   0.213   4.937   6.793  0.4419  0.0498 -0.1477
12686TIP3   OH259472   1.827   0.023  14.222 -0.3013  0.3577  0.2872
12686TIP3    H159473   1.876   0.072  14.156 -0.7272 -1.5102 -1.5036
12686TIP3    H259474   1.855   0.061  14.305  0.7798  2.3352 -0.9074
12687TIP3   OH259475   4.362   2.379  16.294 -0.0430  0.7344 -0.3292
12687TIP3    H159476   4.350   2.455  16.236 -1.2945  0.6884 -0.1638
12687TIP3    H259477   4.362   2.304  16.235  2.1041  0.8698 -0.5950
12688TIP3   OH259478   6.127   3.486  12.351 -0.2033  0.1100  0.5731
12688TIP3    H159479   6.080   3.441  12.281 -2.2324 -0.2521  2.0902
12688TIP3    H259480   6.208   3.436  12.361 -0.0453 -0.0598 -1.2091
12689TIP3   OH259481   1.413   1.075  16.863  0.2059 -0.1007 -0.0315
12689TIP3    H159482   1.421   1.029  16.946 -1.3626  0.4067  0.4428
12689TIP3    H259483   1.375   1.160  16.885 -1.3875 -0.4112 -1.3359
12690TIP3   OH259484   0.618   2.035  12.420 -0.0653  0.1698  0.3116
12690TIP3    H159485   0.579   1.979  12.354  0.0948  1.3105 -0.7820
12690TIP3    H259486   0.709   2.006  12.426 -0.0300  0.1879 -0.1142
12691TIP3   OH259487   0.268   0.712   6.182 -0.2235 -0.4008 -0.3604
12691TIP3    H159488   0.342   0.660   6.214 -2.6927 -3.3419  1.1275
12691TIP3    H259489   0.284   0.800   6.216  2.3183 -1.0159  0.2634
12692TIP3   OH259490   3.471   3.235  12.281 -0.1518  0.1036 -0.6231
12692TIP3    H159491   3.422   3.317  12.273 -0.5312 -0.0125  0.3739
12692TIP3    H259492   3.548   3.248  12.226  0.0534  1.3347 -0.0840
12693TIP3   OH259493   3.999   5.373   0.268 -0.3057 -0.4028  0.1853
12693TIP3    H159494   3.999   5.464   0.299 -2.3301 -0.2410 -0.1216
12693TIP3    H259495   4.088   5.358   0.237 -0.4616  2.2678 -1.9634
12694TIP3   OH259496   0.516   4.066  17.426 -0.0887  0.0277 -0.1481
12694TIP3    H159497   0.573   4.089  17.500 -0.5543  1.4204 -0.2028
12694TIP3    H259498   0.570   4.009  17.371  0.5719 -0.2818  0.7902
12695TIP3   OH259499   0.344   0.608  14.750 -0.0556  0.2889 -0.0481
12695TIP3    H159500   0.401   0.556  14.807  0.1098  1.0414  0.4920
12695TIP3    H259501   0.291   0.659  14.811 -2.6786 -1.7573 -0.4651
12696TIP3   OH259502   2.693   5.044   4.984 -0.5006 -1.0825 -0.1664
12696TIP3    H159503   2.702   4.995   4.903 -0.5122  0.5277 -1.1964
12696TIP3    H259504   2.649   4.984   5.044  0.3605 -2.6388 -1.0218
12697TIP3   OH259505   2.399   5.333   2.410  0.0302  0.2454 -0.5196
12697TIP3    H159506   2.472   5.363   2.465  1.7298  1.2488 -3.1157
12697TIP3    H259507   2.396   5.239   2.424  0.0386  0.5284  1.6463
12698TIP3   OH259508   1.897   1.712   4.447 -0.2028  0.2879  0.2397
12698TIP3    H159509   1.861   1.687   4.362 -0.1843  0.6988  0.1121
12698TIP3    H259510   1.992   1.704   4.436 -0.2507 -1.9942  0.9367
12699TIP3   OH259511   4.496   2.993  17.004  0.0177 -0.1823 -0.0529
12699TIP3    H159512   4.505   3.066  16.943 -0.6624 -0.5160 -0.5686
12699TIP3    H259513   4.512   2.915  16.951 -1.2330 -0.5148  0.0238
12700TIP3   OH259514   5.305   0.444  13.066  0.0158 -0.4733 -0.0940
12700TIP3    H159515   5.272   0.354  13.063  1.1445 -0.8812 -0.9367
12700TIP3    H259516   5.301   0.474  12.976  1.6203 -0.4406 -0.1922
12701TIP3   OH259517   1.770   4.532  12.676  0.2519 -0.4862  0.3277
12701TIP3    H159518   1.805   4.443  12.680  0.6195 -0.3756 -0.3344
12701TIP3    H259519   1.681   4.522  12.643  1.2664 -0.3963 -2.7272
12702TIP3   OH259520   6.085   3.225  15.879 -0.1950 -0.1207  0.0343
12702TIP3    H159521   6.081   3.291  15.948 -0.6814 -0.0913 -0.0203
12702TIP3    H259522   5.994   3.209  15.856 -0.0250  0.1422 -0.8595
12703TIP3   OH259523   5.742   6.668   6.689 -0.0748 -0.3843 -0.4311
12703TIP3    H159524   5.686   6.590   6.686 -1.3227  0.4790 -0.4720
12703TIP3    H259525   5.703   6.728   6.626  0.8020  0.3262 -0.3171
12704TIP3   OH259526   3.555   3.184  15.400 -0.0674 -0.1935 -0.1415
12704TIP3    H159527   3.514   3.177  15.314  0.1653  0.0797 -0.2750
12704TIP3    H259528   3.523   3.266  15.436 -2.1546 -1.4454  1.0950
12705TIP3   OH259529   3.188   0.312   0.576 -0.1017 -0.5875 -0.1120
12705TIP3    H159530   3.168   0.334   0.667  0.0268  0.1608 -0.2523
12705TIP3    H259531   3.124   0.362   0.525 -1.4258 -2.4911 -0.3829
12706TIP3   OH259532   0.862   0.187  13.909  0.1215 -0.6047  0.1929
12706TIP3    H159533   0.811   0.255  13.866  2.0026 -0.4811 -2.0393
12706TIP3    H259534   0.798   0.118  13.929 -1.2177  0.3216 -0.7351
12707TIP3   OH259535   0.931   3.264  16.598  0.4880  0.0090 -0.1204
12707TIP3    H159536   0.888   3.308  16.525  1.0262  0.8504  0.0497
12707TIP3    H259537   0.938   3.332  16.666 -2.9146 -1.5255  2.0080
12708TIP3   OH259538   6.187   0.766  13.436 -0.0794  0.0223 -0.4383
12708TIP3    H159539   6.133   0.768  13.515  1.5777  0.7283  0.7220
12708TIP3    H259540   6.222   0.855  13.428  0.1621 -0.1623 -1.7200
12709TIP3   OH259541   1.886   3.861   6.179 -0.1165 -0.1506 -0.6400
12709TIP3    H159542   1.800   3.852   6.222 -0.1649 -0.2443 -0.7553
12709TIP3    H259543   1.868   3.911   6.100 -0.0583 -0.1413 -0.6470
12710TIP3   OH259544   5.977   1.039   5.139 -0.0731 -0.1744  0.3690
12710TIP3    H159545   5.903   1.040   5.199  0.4550 -3.3683  1.2840
12710TIP3    H259546   6.050   1.072   5.190 -0.3713  0.6982  0.2403
12711TIP3   OH259547   4.347   3.133   3.712  0.2560  0.1329 -0.1163
12711TIP3    H159548   4.363   3.089   3.796  0.8783 -0.4113 -0.5095
12711TIP3    H259549   4.430   3.177   3.693  0.3299 -0.2937 -0.7724
12712TIP3   OH259550   3.376   5.024  12.073 -0.0603 -0.1195 -0.0188
12712TIP3    H159551   3.422   5.096  12.116 -0.5867 -0.8520  1.8549
12712TIP3    H259552   3.444   4.957  12.059 -0.3058 -0.8132  1.8669
12713TIP3   OH259553   4.869   0.158   5.163 -0.0781 -0.1008 -0.3078
12713TIP3    H159554   4.837   0.078   5.120 -0.5460  0.5962 -1.2959
12713TIP3    H259555   4.952   0.131   5.203  0.2706 -0.8615 -1.4641
12714TIP3   OH259556   3.555   0.369  12.327  0.0835 -0.3996  0.0374
12714TIP3    H159557   3.487   0.436  12.331 -2.5953 -2.9331 -0.2487
12714TIP3    H259558   3.582   0.357  12.418  0.7524  1.1363  0.0728
12715TIP3   OH259559   1.138   6.439  13.596  0.0071  0.6937  0.2113
12715TIP3    H159560   1.057   6.464  13.551 -0.5542 -0.6409  0.4315
12715TIP3    H259561   1.117   6.450  13.689  0.7488  2.2280  0.2294
12716TIP3   OH259562   5.113   0.297   3.262 -0.3933 -0.4648 -0.2852
12716TIP3    H159563   5.071   0.382   3.273  2.6611  1.5332 -2.3635
12716TIP3    H259564   5.106   0.278   3.168 -0.5608 -2.2894  0.0568
12717TIP3   OH259565   6.680   4.917  14.109 -0.0989  0.6581  0.2096
12717TIP3    H159566   6.725   4.931  14.026  1.2073  0.1270  0.8059
12717TIP3    H259567   6.598   4.875  14.085  0.2400  0.5437 -0.8118
12718TIP3   OH259568   3.471   6.140  12.288 -0.6536 -0.0120  0.9383
12718TIP3    H159569   3.454   6.190  12.208 -3.2295 -0.3362  1.1965
12718TIP3    H259570   3.465   6.205  12.359  0.3228  0.0399  0.9898
12719TIP3   OH259571   2.292   1.657  16.702 -0.3398 -0.3495 -0.3217
12719TIP3    H159572   2.237   1.637  16.777 -0.1221  0.8463  0.1812
12719TIP3    H259573   2.292   1.752  16.696  3.0813 -0.1158  0.8546
12720TIP3   OH259574   1.882   1.477  15.008  0.1633 -0.2424  0.5360
12720TIP3    H159575   1.958   1.440  15.054  0.2418  1.5837  2.0140
12720TIP3    H259576   1.856   1.409  14.947  3.4944 -0.6517 -0.6648
12721TIP3   OH259577   3.931   1.957   4.565  0.1471  0.5066  0.1114
12721TIP3    H159578   3.937   1.875   4.515 -2.0448  0.1974  0.2500
12721TIP3    H259579   3.960   1.933   4.653  2.1880  0.5978 -0.4723
12722TIP3   OH259580   3.378   1.908  13.090  0.8534 -0.2718  0.0237
12722TIP3    H159581   3.288   1.890  13.118 -0.2199  2.6308 -1.1198
12722TIP3    H259582   3.375   1.898  12.995  0.7436  2.9639 -0.4275
12723TIP3   OH259583   0.892   2.673  13.703 -0.3248 -0.5311 -0.0465
12723TIP3    H159584   0.853   2.718  13.778  0.0067  0.3298 -0.3781
12723TIP3    H259585   0.983   2.703  13.701  0.0770 -1.6918  0.0733
12724TIP3   OH259586   4.547   0.344  17.319 -0.2003  0.3120 -0.0442
12724TIP3    H159587   4.578   0.256  17.298 -0.3470  0.2297  0.0839
12724TIP3    H259588   4.617   0.402  17.289 -0.7986  0.2622 -1.6318
12725TIP3   OH259589   5.594   3.372   1.434 -0.3886  0.3369 -0.1758
12725TIP3    H159590   5.518   3.363   1.491  0.1531 -0.2189  0.4806
12725TIP3    H259591   5.558   3.377   1.346 -1.1633 -0.4562  0.0839
12726TIP3   OH259592   3.107   4.329  14.241 -0.2736 -0.2509  0.5346
12726TIP3    H159593   3.187   4.315  14.190 -1.3858 -3.2046 -0.5576
12726TIP3    H259594   3.137   4.376  14.319  2.5286 -1.1790  0.1328
12727TIP3   OH259595   0.952   3.571  14.672 -0.1460 -0.0919  0.6568
12727TIP3    H159596   0.921   3.563  14.762  2.0374  0.4034  1.5127
12727TIP3    H259597   0.961   3.665  14.658 -1.4721 -0.0865 -0.5092
12728TIP3   OH259598   3.448   3.078  11.638 -0.2947  0.3836  0.6314
12728TIP3    H159599   3.462   3.105  11.547  1.9670 -0.1484  0.7481
12728TIP3    H259600   3.383   3.007  11.632  0.7321 -0.4977 -0.7507
12729TIP3   OH259601   2.257   4.372  14.060 -0.4203  0.0742 -0.1705
12729TIP3    H159602   2.315   4.379  14.136  0.4943  0.4762 -0.8895
12729TIP3    H259603   2.312   4.337  13.991 -1.2172 -0.1814 -0.6905
12730TIP3   OH259604   5.376   5.487  10.862  0.1976  0.4882  0.1350
12730TIP3    H159605   5.319   5.411  10.848 -0.2210  0.4852  1.6129
12730TIP3    H259606   5.395   5.520  10.775  0.7653 -1.5901 -0.5788
12731TIP3   OH259607   6.117   2.864  13.740 -0.0922 -0.6646  0.1533
12731TIP3    H159608   6.036   2.815  13.726  0.3870 -2.4191  2.8282
12731TIP3    H259609   6.160   2.820  13.813  1.5371  2.4139  1.2362
12732TIP3   OH259610   3.505   5.580   0.865  0.3404  0.5795 -1.1149
12732TIP3    H159611   3.512   5.488   0.890  1.6757  0.6986 -0.9983
12732TIP3    H259612   3.428   5.584   0.808 -1.3943 -0.1091  1.0336
12733TIP3   OH259613   5.866   5.800  15.199 -0.5540 -0.2099  0.1649
12733TIP3    H159614   5.889   5.716  15.239  0.4766 -0.2732 -0.5290
12733TIP3    H259615   5.927   5.862  15.238 -0.7096  0.0517 -0.0080
12734TIP3   OH259616   0.620   6.182  12.633  0.3085 -0.5214  0.3470
12734TIP3    H159617   0.597   6.157  12.543  1.8209 -2.7446  0.5035
12734TIP3    H259618   0.540   6.166  12.683  0.1124 -1.5263 -0.2453
12735TIP3   OH259619   6.323   1.478  11.506  0.3499  0.0395 -0.5090
12735TIP3    H159620   6.265   1.548  11.476 -0.9648 -0.5856  0.4815
12735TIP3    H259621   6.397   1.523  11.546  0.2661  0.8578 -1.2521
12736TIP3   OH259622   0.821   6.201   6.109  0.0080 -0.4973 -0.3076
12736TIP3    H159623   0.908   6.173   6.083  0.6050 -0.0735  1.1407
12736TIP3    H259624   0.833   6.245   6.194 -1.3429  1.2067 -0.9297
12737TIP3   OH259625   1.718   5.360   4.147  0.1931 -0.1153 -0.1381
12737TIP3    H159626   1.718   5.386   4.239 -2.0562  1.0312 -0.3981
12737TIP3    H259627   1.673   5.275   4.146  1.3754 -0.7551 -0.0567
12738TIP3   OH259628   0.599   1.990   4.790 -0.3829 -0.0273 -0.5476
12738TIP3    H159629   0.503   1.996   4.795 -0.4312 -1.5411  1.9805
12738TIP3    H259630   0.615   1.916   4.731 -0.9918 -2.2615  1.8916
12739TIP3   OH259631   5.278   5.438  17.420  0.3074 -0.7890  0.6231
12739TIP3    H159632   5.230   5.398  17.493 -0.7237  0.7100  0.8063
12739TIP3    H259633   5.354   5.479  17.462 -0.7644  0.8719  1.0591
12740TIP3   OH259634   5.197   5.338  16.836  0.0241  0.1828  0.0939
12740TIP3    H159635   5.235   5.393  16.904  2.2334  1.0698 -1.7646
12740TIP3    H259636   5.154   5.399  16.776  0.9423 -0.2502 -1.0362
12741TIP3   OH259637   6.728   3.019  17.100  0.2693 -0.0347  0.0356
12741TIP3    H159638   6.782   3.098  17.096 -0.1642  0.2839  0.3752
12741TIP3    H259639   6.681   3.019  17.016  1.6782 -0.9682 -0.7956
12742TIP3   OH259640   4.438   6.125   1.737 -0.3012  0.0371  0.0019
12742TIP3    H159641   4.476   6.060   1.796  0.5889  1.0385  0.5942
12742TIP3    H259642   4.368   6.165   1.788 -0.9987 -0.5978 -0.4441
12743TIP3   OH259643   6.677   0.781  11.189  0.4369 -0.4349 -0.0307
12743TIP3    H159644   6.749   0.844  11.191  0.4454 -0.4537  0.6552
12743TIP3    H259645   6.623   0.809  11.115  0.5124  0.3009  0.1798
12744TIP3   OH259646   1.525   2.033   0.879  0.1887 -0.4306  0.1743
12744TIP3    H159647   1.579   2.068   0.809  0.7554 -0.1661  0.7340
12744TIP3    H259648   1.584   2.027   0.954 -0.8956  1.2833  1.2418
12745TIP3   OH259649   1.409   5.621   0.350  0.4645 -0.2046 -0.3972
12745TIP3    H159650   1.393   5.531   0.378 -2.3685  0.3184 -0.0935
12745TIP3    H259651   1.340   5.639   0.286  1.8756  1.2974 -1.5750
12746TIP3   OH259652   6.571   1.534  13.416  0.3201  0.4526  0.6391
12746TIP3    H159653   6.573   1.614  13.468  1.3317 -0.6679  2.4081
12746TIP3    H259654   6.659   1.526  13.379  0.3904 -0.1047  0.9132
12747TIP3   OH259655   4.596   0.140  15.149 -0.4438  0.3866 -0.0091
12747TIP3    H159656   4.549   0.221  15.167  1.3202  1.3686  0.4689
12747TIP3    H259657   4.626   0.110  15.235  0.1335  0.0060 -0.3373
12748TIP3   OH259658   1.217   6.210   2.476  0.6176 -0.6438  0.3807
12748TIP3    H159659   1.216   6.208   2.572  1.1695  1.6736  0.5025
12748TIP3    H259660   1.125   6.215   2.451  0.5217  0.7227  0.9216
12749TIP3   OH259661   5.230   4.703  14.568 -0.2980  0.3000  0.6363
12749TIP3    H159662   5.189   4.789  14.565 -0.5238  0.1844 -1.1746
12749TIP3    H259663   5.293   4.704  14.496  0.4150 -0.7157  1.2161
12750TIP3   OH259664   4.721   6.219  16.686 -0.3445 -0.0578  0.0489
12750TIP3    H159665   4.714   6.126  16.705 -0.2843 -0.0539  0.0887
12750TIP3    H259666   4.648   6.237  16.625  0.8524 -0.5642 -1.6127
12751TIP3   OH259667   4.227   5.724   1.439 -0.4509  0.2087 -0.0039
12751TIP3    H159668   4.160   5.779   1.479 -3.0019 -2.9344  0.4382
12751TIP3    H259669   4.250   5.660   1.506  0.9511 -0.5197 -1.1031
12752TIP3   OH259670   4.797   5.992  12.977  0.4041  0.5583  0.3621
12752TIP3    H159671   4.800   6.016  13.069  0.5158 -0.0680  0.5248
12752TIP3    H259672   4.881   6.019  12.941  1.4757 -1.6161  1.0626
12753TIP3   OH259673   5.413   0.829   6.383 -0.1271  0.0010  0.3175
12753TIP3    H159674   5.493   0.841   6.333 -1.4749  1.0496 -1.7512
12753TIP3    H259675   5.429   0.873   6.466  1.1397  0.9452 -0.3992
12754TIP3   OH259676   5.082   0.638  11.820  0.1515 -0.0258 -0.4454
12754TIP3    H159677   5.084   0.666  11.912  0.0047  0.1691 -0.4997
12754TIP3    H259678   4.995   0.665  11.789 -0.4194 -1.4946 -0.2053
12755TIP3   OH259679   0.300   0.373  15.193 -0.1012 -0.4877  0.1086
12755TIP3    H159680   0.212   0.343  15.215  0.0493 -1.4231 -0.5154
12755TIP3    H259681   0.351   0.360  15.273 -0.6909  0.8377  0.7459
12756TIP3   OH259682   4.884   3.076  12.194 -0.1194 -0.0269 -0.1598
12756TIP3    H159683   4.942   3.073  12.118  0.2157 -1.0030  0.1180
12756TIP3    H259684   4.797   3.091  12.158  0.2237  0.9100 -0.6195
12757TIP3   OH259685   5.084   6.379   6.906 -0.1108  0.5398 -0.0898
12757TIP3    H159686   5.021   6.390   6.835  0.8487  1.0681 -0.8888
12757TIP3    H259687   5.168   6.373   6.862  0.5897  1.5999  1.0282
12758TIP3   OH259688   0.043   4.165   1.730  0.3097 -0.4860  0.3494
12758TIP3    H159689   0.020   4.087   1.780  1.3359 -1.0774 -0.0776
12758TIP3    H259690   0.112   4.136   1.670  3.3207  1.4357  2.5434
12759TIP3   OH259691   3.412   5.047   0.266 -0.3406  0.1351  0.0377
12759TIP3    H159692   3.349   5.016   0.332  1.2249  1.1764  2.1349
12759TIP3    H259693   3.487   5.077   0.317  2.0115 -1.2698 -2.3426
12760TIP3   OH259694   0.604   1.179   2.338 -0.4269  0.0570  0.6567
12760TIP3    H159695   0.647   1.094   2.337  0.0932  0.2803  1.9297
12760TIP3    H259696   0.511   1.160   2.349 -0.6983 -0.4208 -1.8675
12761TIP3   OH259697   4.400   1.596   3.528 -0.2844  0.0897  0.4309
12761TIP3    H159698   4.329   1.552   3.482  0.1901 -0.3690  0.1344
12761TIP3    H259699   4.463   1.619   3.460 -0.8665  1.9299  0.4514
12762TIP3   OH259700   4.134   5.760   3.701  0.8170 -0.3255 -0.0556
12762TIP3    H159701   4.072   5.827   3.672  0.7899 -0.2945  0.0728
12762TIP3    H259702   4.156   5.712   3.622  1.4363  0.3335 -0.2999
12763TIP3   OH259703   2.250   5.814   5.305 -0.5472  0.7529  0.6223
12763TIP3    H159704   2.238   5.740   5.365 -1.5540  0.6001  0.2486
12763TIP3    H259705   2.290   5.776   5.227  0.9835  0.9914  1.2633
12764TIP3   OH259706   0.700   0.383   4.231 -0.0221  0.0576  0.0074
12764TIP3    H159707   0.709   0.294   4.197 -0.7254 -0.6118  1.4541
12764TIP3    H259708   0.780   0.397   4.282 -1.0648 -0.8508  2.0326
12765TIP3   OH259709   4.090   4.350  13.330  0.0418  0.5439  0.5513
12765TIP3    H159710   4.098   4.390  13.244  0.4102  1.0433  0.8126
12765TIP3    H259711   4.065   4.259  13.312  1.7626  0.1793 -0.1444
12766TIP3   OH259712   2.631   0.522   5.918  0.3388  0.5595 -0.6994
12766TIP3    H159713   2.547   0.555   5.948 -0.7888 -3.3173  1.1234
12766TIP3    H259714   2.695   0.587   5.947 -1.6526  1.5485  1.8110
12767TIP3   OH259715   1.093   2.853   1.667  0.2956 -0.5597 -0.4385
12767TIP3    H159716   1.135   2.788   1.611  1.2712  0.7324 -1.2621
12767TIP3    H259717   1.151   2.863   1.742 -0.9143 -2.1444  0.8024
12768TIP3   OH259718   3.480   0.151  17.045 -0.0237  0.1711  0.1693
12768TIP3    H159719   3.476   0.224  16.982 -0.2774  1.0703  1.1991
12768TIP3    H259720   3.493   0.193  17.130 -0.7001 -0.9559  0.8536
12769TIP3   OH259721   5.092   0.494  16.738  0.3318  0.1839  0.2227
12769TIP3    H159722   5.150   0.566  16.762 -0.8193  0.9197  0.9431
12769TIP3    H259723   5.030   0.489  16.811  0.5275 -1.7149  0.2947
12770TIP3   OH259724   2.021   5.100  17.503 -0.0380 -0.1329 -0.2893
12770TIP3    H159725   2.084   5.131  17.439 -1.7978  0.4416 -1.8138
12770TIP3    H259726   1.961   5.044  17.453 -1.6842  0.6256  0.7379
12771TIP3   OH259727   5.461   3.635   2.615 -0.8358  0.0826 -0.2475
12771TIP3    H159728   5.415   3.605   2.537  0.4180 -0.2293 -0.9061
12771TIP3    H259729   5.522   3.701   2.583  0.9993 -1.3258  0.1121
12772TIP3   OH259730   0.295   0.239   5.746 -0.4113  0.4200 -0.2534
12772TIP3    H159731   0.383   0.210   5.721 -0.8339 -0.4587 -0.8145
12772TIP3    H259732   0.276   0.192   5.827 -1.0080 -0.7679 -1.0426
12773TIP3   OH259733   1.259   6.063  16.518  0.1189 -0.1988  0.0735
12773TIP3    H159734   1.237   5.970  16.514 -2.4020  0.3621 -1.5611
12773TIP3    H259735   1.238   6.089  16.607 -1.8942 -0.6831 -0.1986
12774TIP3   OH259736   5.140   2.699   2.672  0.1306  0.1358  0.1616
12774TIP3    H159737   5.170   2.656   2.752  1.3068  1.1849  0.3174
12774TIP3    H259738   5.117   2.788   2.700 -2.1672 -0.2864 -0.1702
12775TIP3   OH259739   2.783   1.541  17.253 -0.7534 -0.2724  0.2411
12775TIP3    H159740   2.820   1.482  17.318  1.7808  1.2235  0.2747
12775TIP3    H259741   2.814   1.507  17.169 -3.4067 -1.7672 -0.2524
12776TIP3   OH259742   0.246   4.568  11.077 -0.8990 -0.0564  0.2735
12776TIP3    H159743   0.238   4.529  10.990  0.0983  2.4195 -1.0362
12776TIP3    H259744   0.336   4.547  11.105 -1.5667 -1.8106  1.2951
12777TIP3   OH259745   4.473   5.960  16.607  0.3787 -0.1014  0.1811
12777TIP3    H159746   4.396   5.921  16.565 -0.4973 -0.9307  2.4003
12777TIP3    H259747   4.484   6.044  16.563 -0.2474 -1.0499 -1.8918
12778TIP3   OH259748   4.202   5.751   6.075  0.6217 -0.2060 -0.3903
12778TIP3    H159749   4.173   5.791   6.158 -0.0452 -0.7468 -0.3536
12778TIP3    H259750   4.195   5.822   6.011 -2.3513 -0.6680 -0.7091
12779TIP3   OH259751   6.186   3.418  13.351  0.0821 -1.2643  0.2403
12779TIP3    H159752   6.131   3.397  13.426  0.4225 -0.3355  0.7677
12779TIP3    H259753   6.270   3.445  13.390 -0.1060  0.3370 -0.4133
12780TIP3   OH259754   3.617   4.530   5.157  0.3211  0.3055  0.3720
12780TIP3    H159755   3.669   4.462   5.199  1.2172  1.0455  0.5028
12780TIP3    H259756   3.623   4.605   5.217 -0.1453  0.6925 -0.0594
12781TIP3   OH259757   2.844   6.715  17.373 -0.5174 -0.1646  0.4890
12781TIP3    H159758   2.800   6.703  17.457  1.4841  0.1610  1.6547
12781TIP3    H259759   2.937   6.716  17.395  0.0951 -0.6618 -1.8234
12782TIP3   OH259760   1.913   1.891   2.030 -0.3210  0.3373 -0.1486
12782TIP3    H159761   1.909   1.799   2.053  0.5393  0.3285 -0.0063
12782TIP3    H259762   1.927   1.892   1.935 -0.4300  0.3304 -0.1656
12783TIP3   OH259763   3.832   4.431  14.857  0.0914 -0.3214  0.2877
12783TIP3    H159764   3.769   4.496  14.887 -0.0806 -0.3939  0.0801
12783TIP3    H259765   3.917   4.467  14.883 -0.1196 -1.1049  2.2866
12784TIP3   OH259766   4.148   1.829  14.067 -0.3384  0.1588  0.3981
12784TIP3    H159767   4.207   1.845  14.140  2.7674 -0.7105 -1.7401
12784TIP3    H259768   4.172   1.893  14.001  2.1015 -3.3903 -2.5627
12785TIP3   OH259769   3.740   4.574   3.645 -0.4807 -0.2670 -0.0966
12785TIP3    H159770   3.816   4.598   3.698  0.9292 -1.4108 -1.5051
12785TIP3    H259771   3.746   4.632   3.568 -1.5051  0.1798  0.1430
12786TIP3   OH259772   2.101   1.243   2.143 -0.9780 -0.2270  0.5511
12786TIP3    H159773   2.126   1.335   2.130  1.4979 -0.7795  1.0356
12786TIP3    H259774   2.145   1.217   2.223 -0.9078 -2.1094 -0.0598
12787TIP3   OH259775   2.027   5.061  13.670 -0.8107  1.1925  0.3038
12787TIP3    H159776   2.048   5.153  13.659 -0.8608  1.3328  1.2683
12787TIP3    H259777   2.052   5.042  13.761 -2.1310  0.6215  0.5666
12788TIP3   OH259778   2.767   0.295  12.771 -0.5733  0.2930 -0.2664
12788TIP3    H159779   2.764   0.346  12.690 -3.7353 -0.0001 -0.4709
12788TIP3    H259780   2.860   0.287  12.791  0.2961  1.0840 -3.4027
12789TIP3   OH259781   4.303   3.486   5.434 -0.5094 -0.1765  0.0770
12789TIP3    H159782   4.263   3.426   5.371  0.1857  0.6732 -1.2285
12789TIP3    H259783   4.321   3.566   5.383  0.6792  0.3035  1.1832
12790TIP3   OH259784   4.655   4.647   2.097  0.4120 -0.2975  0.4176
12790TIP3    H159785   4.602   4.617   2.023 -0.7397 -0.0560  1.1165
12790TIP3    H259786   4.695   4.568   2.132  1.4298 -0.3466 -0.7904
12791TIP3   OH259787   3.436   3.492  13.410  0.1569  0.2401 -0.4942
12791TIP3    H159788   3.521   3.452  13.432 -0.6079 -0.4956  1.3074
12791TIP3    H259789   3.386   3.420  13.371 -0.1381  0.2911 -0.2076
12792TIP3   OH259790   3.858   1.708   0.458  0.6252  0.5531 -0.5514
12792TIP3    H159791   3.861   1.659   0.375 -0.4632 -0.8051  0.1564
12792TIP3    H259792   3.775   1.681   0.498  2.1435 -0.7019  2.0530
12793TIP3   OH259793   5.520   6.100  13.382 -0.3583  0.2225 -0.0102
12793TIP3    H159794   5.511   6.121  13.289  0.0572  1.2331  0.1664
12793TIP3    H259795   5.555   6.179  13.422 -1.6059  0.2062  1.2110
12794TIP3   OH259796   3.223   4.936  13.031 -0.0683 -0.5888 -0.4210
12794TIP3    H159797   3.215   4.948  13.126 -1.2881 -1.2309 -0.4215
12794TIP3    H259798   3.232   5.025  12.997  0.5698 -0.3613  0.3011
12795TIP3   OH259799   2.528   1.968  11.922  0.6034  0.6917  0.6053
12795TIP3    H159800   2.497   1.971  11.832  3.2118  1.4417 -0.3756
12795TIP3    H259801   2.465   2.019  11.972 -1.1869 -0.1954 -0.6596
12796TIP3   OH259802   5.051   5.029   1.056  0.0236 -0.2264  0.1961
12796TIP3    H159803   5.121   5.089   1.082 -0.7062  0.7201  0.0245
12796TIP3    H259804   4.971   5.082   1.061 -0.3925 -0.5832 -2.0018
12797TIP3   OH259805   3.904   4.499   1.133  0.3672  0.1734 -0.3512
12797TIP3    H159806   3.942   4.544   1.209 -0.6074 -1.1826  0.9926
12797TIP3    H259807   3.962   4.522   1.061  0.8593  2.1782  0.6164
12798TIP3   OH259808   3.509   1.397   0.070  0.1246  0.1237  0.4739
12798TIP3    H159809   3.414   1.400   0.071  0.0278 -1.7046  1.7103
12798TIP3    H259810   3.534   1.405   0.163  0.9849 -2.1585  0.5102
12799TIP3   OH259811   0.723   3.849   3.111  0.3076 -0.1837 -0.6587
12799TIP3    H159812   0.789   3.797   3.157  1.0712  0.5186 -0.9371
12799TIP3    H259813   0.639   3.816   3.144  0.8104  0.3916  1.3849
12800TIP3   OH259814   4.485   5.959   3.831 -0.5424 -0.0076 -0.4562
12800TIP3    H159815   4.492   5.864   3.820 -0.9699 -0.0242 -0.6187
12800TIP3    H259816   4.391   5.975   3.837 -0.4233  0.2876  0.7032
12801TIP3   OH259817   3.785   0.733  14.898 -0.6365 -0.0651  0.9775
12801TIP3    H159818   3.752   0.692  14.818  0.6548  0.1434  0.3174
12801TIP3    H259819   3.780   0.664  14.964 -0.6071 -0.6055  0.4258
12802TIP3   OH259820   3.121   0.569  15.208 -0.4491 -0.5702  0.0459
12802TIP3    H159821   3.079   0.582  15.124 -1.0864 -0.3085  0.3984
12802TIP3    H259822   3.110   0.476  15.226 -1.1471 -0.4479  0.2730
12803TIP3   OH259823   4.631   5.789   1.156 -0.4184  0.6358 -0.0503
12803TIP3    H159824   4.690   5.864   1.165 -1.3120  1.6292 -1.9878
12803TIP3    H259825   4.560   5.807   1.218 -0.9054  1.6960 -0.8930
12804TIP3   OH259826   3.960   4.908   3.684 -0.2125  0.0418  0.1045
12804TIP3    H159827   4.041   4.860   3.699  0.2141  0.8319  0.4051
12804TIP3    H259828   3.975   4.994   3.724 -0.9866  0.3977 -0.3363
12805TIP3   OH259829   2.553   5.844   5.189  0.3493  0.0172  0.0158
12805TIP3    H159830   2.608   5.791   5.247  0.8600  0.3073 -0.1976
12805TIP3    H259831   2.525   5.784   5.120  0.3570 -0.1416  0.1488
12806TIP3   OH259832   5.227   5.754  17.395 -0.0797  0.7905  0.1529
12806TIP3    H159833   5.137   5.750  17.428 -0.2214  1.2083 -0.1785
12806TIP3    H259834   5.244   5.666  17.362 -0.9084  1.1115 -1.1894
12807TIP3   OH259835   0.103   0.444   5.212  0.0924 -0.8734  0.4960
12807TIP3    H159836   0.165   0.397   5.157 -0.7367  0.1388 -1.3895
12807TIP3    H259837   0.157   0.481   5.282  1.3466 -1.3922 -0.1548
12808TIP3   OH259838   3.176   2.905  16.145  0.2385 -0.0899 -0.0818
12808TIP3    H159839   3.171   2.856  16.227  1.0858  0.6420  0.4307
12808TIP3    H259840   3.244   2.862  16.095  1.7491  1.1407  0.8144
12809TIP3   OH259841   1.496   0.551  13.419  0.0994  0.2150 -1.0550
12809TIP3    H159842   1.550   0.626  13.395 -1.8599  1.1155 -3.0836
12809TIP3    H259843   1.456   0.576  13.502  0.5033  0.8369 -1.0438
12810TIP3   OH259844   4.596   5.970   2.764  0.1251 -0.2124 -0.1594
12810TIP3    H159845   4.501   5.970   2.771  0.1945 -1.6557  1.5021
12810TIP3    H259846   4.620   5.877   2.770  1.7233  0.2494  1.1133
12811TIP3   OH259847   5.275   5.650   3.576  0.0224 -0.0101  0.3467
12811TIP3    H159848   5.345   5.715   3.584  0.7886 -0.5685 -1.3517
12811TIP3    H259849   5.320   5.569   3.552 -1.0996 -0.7184  0.5572
12812TIP3   OH259850   1.162   0.696   3.469 -0.6388  0.6926 -0.7528
12812TIP3    H159851   1.178   0.786   3.439 -1.0192  0.5554 -1.4042
12812TIP3    H259852   1.067   0.692   3.481 -0.5584  0.5385 -0.1900
12813TIP3   OH259853   6.282   3.009  17.317 -0.1735 -0.3992  0.2366
12813TIP3    H159854   6.304   2.972  17.403 -1.6921  1.6445  1.6084
12813TIP3    H259855   6.251   3.098  17.337  1.0578  0.7822 -2.6360
12814TIP3   OH259856   2.634   4.722  14.520 -0.6457 -0.0178 -0.3534
12814TIP3    H159857   2.598   4.676  14.445 -1.5740  0.9354 -0.5168
12814TIP3    H259858   2.659   4.808  14.487  0.7141 -0.2468  0.0248
12815TIP3   OH259859   3.844   3.069  14.322  0.1033 -0.2959  0.7182
12815TIP3    H159860   3.858   3.085  14.229 -2.8095 -1.1527  0.0062
12815TIP3    H259861   3.829   3.156  14.360 -0.2880 -0.0563  0.0286
12816TIP3   OH259862   6.141   1.284  15.726  0.2763  0.2120  0.1078
12816TIP3    H159863   6.092   1.255  15.650  0.2547 -1.5642  0.7564
12816TIP3    H259864   6.149   1.206  15.781  1.3135  1.1604  1.3730
12817TIP3   OH259865   4.207   5.147   4.800  0.3529  0.3658  0.1785
12817TIP3    H159866   4.246   5.234   4.804 -2.4450  1.7196  3.8166
12817TIP3    H259867   4.236   5.104   4.880 -2.2259 -0.0173  1.0092
12818TIP3   OH259868   5.403   6.670   5.718 -0.3396 -0.2083  0.0604
12818TIP3    H159869   5.413   6.577   5.737 -0.8250 -0.0357  1.2795
12818TIP3    H259870   5.488   6.709   5.739  0.0187 -0.4376 -0.9297
12819TIP3   OH259871   2.623   5.178  12.918  0.1884 -0.1431  0.0696
12819TIP3    H159872   2.570   5.121  12.973 -1.8826 -0.1151 -1.7559
12819TIP3    H259873   2.613   5.265  12.957 -0.5321 -0.2593  0.1601
12820TIP3   OH259874   4.409   3.712   3.419  0.3032  0.0262  0.5418
12820TIP3    H159875   4.341   3.777   3.435  0.3972 -0.0576  1.3217
12820TIP3    H259876   4.362   3.636   3.382  0.1625  0.4326 -0.1408
12821TIP3   OH259877   6.082   2.682  12.084  0.6726 -0.2124  0.3620
12821TIP3    H159878   6.068   2.667  11.991 -0.7101 -0.2876  0.5542
12821TIP3    H259879   6.085   2.594  12.123  0.6976 -0.1689  0.4607
12822TIP3   OH259880   1.231   6.626   0.321 -0.3552 -0.0244  0.2962
12822TIP3    H159881   1.227   6.639   0.415 -2.1245  1.6274  0.0723
12822TIP3    H259882   1.245   6.532   0.309 -2.9991 -0.7696  2.2313
12823TIP3   OH259883   4.918   5.120  15.042  0.3165 -0.2910 -0.6430
12823TIP3    H159884   4.851   5.175  15.001  2.0987  2.4778 -0.1064
12823TIP3    H259885   4.962   5.077  14.969 -0.1940  0.1530 -1.2262
12824TIP3   OH259886   4.553   5.055   0.854  0.1183  0.5060  0.2081
12824TIP3    H159887   4.628   5.092   0.809  1.3503 -1.0219  0.9221
12824TIP3    H259888   4.519   5.128   0.907  0.9067  1.2976 -0.3507
12825TIP3   OH259889   4.855   0.781   4.502 -0.1061 -0.0600 -0.4007
12825TIP3    H159890   4.861   0.787   4.597  1.4984 -0.5603 -0.4487
12825TIP3    H259891   4.789   0.713   4.486 -0.1822 -0.1686  0.3467
12826TIP3   OH259892   3.327   6.266  17.131  0.1716  0.2476  0.4897
12826TIP3    H159893   3.374   6.308  17.204  0.0823  1.3893 -0.0933
12826TIP3    H259894   3.396   6.234  17.073  0.2394 -0.4029  0.9167
12827TIP3   OH259895   5.384   3.956   5.516  0.2255 -0.5185 -0.5665
12827TIP3    H159896   5.404   3.870   5.478 -1.9494 -1.8754  1.1211
12827TIP3    H259897   5.414   3.949   5.607 -2.1270 -0.4272  0.2715
12828TIP3   OH259898   0.145   5.564   4.813 -0.4583 -0.8907  0.0769
12828TIP3    H159899   0.125   5.548   4.720  0.8420 -1.0569 -0.1865
12828TIP3    H259900   0.223   5.512   4.830 -0.0734 -0.0362  1.0000
12829TIP3   OH259901   0.616   3.971   6.305 -0.1747  0.1221 -0.6520
12829TIP3    H159902   0.532   3.928   6.322 -0.1979  0.3712 -0.1283
12829TIP3    H259903   0.632   3.956   6.212 -0.9143  0.2805 -0.8100
12830TIP3   OH259904   6.061   5.135   6.150  0.1165  0.0331 -0.4115
12830TIP3    H159905   6.066   5.123   6.245  0.4060 -1.4155 -0.5921
12830TIP3    H259906   6.104   5.219   6.134  2.0615 -0.7170  0.5516
12831TIP3   OH259907   5.975   2.381   5.778 -0.1142 -0.2596 -0.7311
12831TIP3    H159908   5.930   2.307   5.818 -1.0236  0.4978 -0.2957
12831TIP3    H259909   5.908   2.423   5.724 -0.7161  2.2269  1.6987
12832TIP3   OH259910   2.978   0.225   4.992  0.2976 -0.0308 -0.4005
12832TIP3    H159911   2.984   0.260   5.081 -0.3702 -1.3710  0.1969
12832TIP3    H259912   2.919   0.150   4.999 -1.1604  0.8490 -2.3100
12833TIP3   OH259913   2.229   6.074   4.514  0.0368 -0.0338 -0.2673
12833TIP3    H159914   2.309   6.111   4.477 -1.1369  1.1006 -1.8109
12833TIP3    H259915   2.230   6.100   4.606  2.1648 -1.3837  0.1751
12834TIP3   OH259916   0.853   5.385   0.011  0.1472  0.3393  0.2329
12834TIP3    H159917   0.843   5.362   0.103 -0.4698 -0.0381  0.0683
12834TIP3    H259918   0.891   5.307  -0.029 -1.1503 -0.1013 -0.1563
12835TIP3   OH259919   2.421   3.860  12.714  0.1524 -0.3123  0.3213
12835TIP3    H159920   2.445   3.820  12.797  1.4853 -0.5061 -0.1281
12835TIP3    H259921   2.504   3.868  12.666 -0.3840  1.0820 -0.4344
12836TIP3   OH259922   3.154   5.511  11.850 -0.1339  0.0016  0.0987
12836TIP3    H159923   3.153   5.553  11.763 -1.1238  0.5022  0.3415
12836TIP3    H259924   3.068   5.529  11.887  0.8244  1.2848  1.8916
12837TIP3   OH259925   1.698   3.986  13.933 -0.3109 -0.3097 -0.2383
12837TIP3    H159926   1.740   4.005  14.017 -0.0423  1.2997 -0.7019
12837TIP3    H259927   1.641   3.911  13.951 -1.6486  1.1145  1.8660
12838TIP3   OH259928   2.102   4.628   6.027  0.2900  0.0951  0.4526
12838TIP3    H159929   2.098   4.689   6.101 -0.5405  0.6937 -0.0754
12838TIP3    H259930   2.059   4.549   6.060 -0.3138  0.4495  0.5338
12839TIP3   OH259931   5.906   4.773  14.191 -0.0857 -0.0743 -0.4691
12839TIP3    H159932   5.825   4.763  14.240  0.5091  0.2131  0.5946
12839TIP3    H259933   5.922   4.686  14.153 -0.5798 -0.2831 -0.2040
12840TIP3   OH259934   4.466   5.469  15.845 -0.1759  0.0936 -0.4353
12840TIP3    H159935   4.504   5.439  15.763  1.1832  0.7295 -0.0651
12840TIP3    H259936   4.395   5.406  15.863  1.2489 -1.6726 -0.7168
12841TIP3   OH259937   6.143   4.525   4.304 -0.0237  0.1257 -0.7623
12841TIP3    H159938   6.091   4.601   4.278 -0.9724 -0.2500 -0.0061
12841TIP3    H259939   6.080   4.453   4.311  0.8044 -0.6480 -1.0937
12842TIP3   OH259940   3.422   1.391   1.713 -0.0986 -0.0456  0.1951
12842TIP3    H159941   3.400   1.472   1.759  0.9230  0.1812  0.3232
12842TIP3    H259942   3.425   1.324   1.782 -0.1784 -0.0361  0.2078
12843TIP3   OH259943   5.743   5.564   5.450  0.5401  0.0359  0.4143
12843TIP3    H159944   5.775   5.619   5.522 -0.3727 -0.5532  1.3019
12843TIP3    H259945   5.820   5.517   5.420  0.7938 -0.3311  1.5794
12844TIP3   OH259946   1.317   3.363   4.105 -0.2484  0.3050 -0.3171
12844TIP3    H159947   1.241   3.309   4.128  1.2693 -1.4740  0.8281
12844TIP3    H259948   1.343   3.332   4.018 -1.6852  1.9882 -1.4000
12845TIP3   OH259949   4.047   3.394  14.110  0.2952 -0.1907  0.0846
12845TIP3    H159950   4.002   3.310  14.112  1.7001 -1.0023 -0.9162
12845TIP3    H259951   4.081   3.405  14.199  2.2280 -1.9468 -0.3358
12846TIP3   OH259952   3.599   1.601  16.236  0.1074  0.4685 -0.4569
12846TIP3    H159953   3.546   1.561  16.167 -0.5616 -0.6094  0.6352
12846TIP3    H259954   3.629   1.527  16.290  1.8998  1.1515 -0.4628
12847TIP3   OH259955   1.991   6.721   5.471 -0.0398 -0.1942  0.1124
12847TIP3    H159956   2.044   6.680   5.539  1.3634  0.8311 -0.3111
12847TIP3    H259957   1.990   6.657   5.400  0.8900 -0.1057  0.0129
12848TIP3   OH259958   2.238   4.449  11.038 -0.5189  0.2804  0.4509
12848TIP3    H159959   2.225   4.543  11.028 -1.3633  0.0632 -0.6536
12848TIP3    H259960   2.151   4.411  11.024  0.1144 -0.7764 -0.8602
12849TIP3   OH259961   4.153   2.016  16.364  0.0236  0.0954  0.5175
12849TIP3    H159962   4.209   1.983  16.294  0.2196  2.3580 -0.4726
12849TIP3    H259963   4.213   2.059  16.425 -0.5365  3.7175 -1.2125
12850TIP3   OH259964   4.585   2.768  13.040 -0.0422  0.4434  0.1630
12850TIP3    H159965   4.643   2.728  13.105 -1.9884 -0.4184  1.4542
12850TIP3    H259966   4.545   2.693  12.995 -0.2483  1.0297 -0.6480
12851TIP3   OH259967   4.134   5.563   5.054  0.0333 -0.1437  0.0095
12851TIP3    H159968   4.109   5.535   4.966  2.0163 -1.0142 -0.3149
12851TIP3    H259969   4.161   5.482   5.099 -0.0289  0.4191  1.1082
12852TIP3   OH259970   0.971   4.635  13.965 -0.5058  0.1897 -0.3876
12852TIP3    H159971   1.039   4.638  14.032  1.4634  1.4213 -2.2765
12852TIP3    H259972   0.932   4.722  13.967  1.1847  1.0823 -2.2595
12853TIP3   OH259973   2.996   0.247   0.182  0.7835  0.0536  0.0703
12853TIP3    H159974   3.044   0.171   0.215  0.3557 -0.0560  0.4622
12853TIP3    H259975   2.955   0.285   0.260  1.4422  1.0207 -0.0315
12854TIP3   OH259976   1.022   3.897  16.711 -0.0293  0.8336 -0.3868
12854TIP3    H159977   1.115   3.887  16.731 -0.4406  0.3769  1.5063
12854TIP3    H259978   1.015   3.877  16.618  1.8137  1.2908 -0.6589
12855TIP3   OH259979   1.525   5.589  15.157  0.4033  0.3550  0.1333
12855TIP3    H159980   1.493   5.678  15.143  1.8493  0.8760 -0.0468
12855TIP3    H259981   1.617   5.600  15.181  0.9016 -1.1383 -0.9152
12856TIP3   OH259982   3.772   3.550  15.844  0.1400 -0.3253  0.4193
12856TIP3    H159983   3.769   3.529  15.751  1.4648 -0.0267  0.2906
12856TIP3    H259984   3.689   3.594  15.862 -0.2135 -0.5834 -0.5731
12857TIP3   OH259985   3.344   4.666   0.277 -0.2557  0.3241 -0.4246
12857TIP3    H159986   3.320   4.591   0.333 -0.9996 -1.6332 -3.1484
12857TIP3    H259987   3.261   4.709   0.258 -0.4752 -0.8795 -2.4043
12858TIP3   OH259988   2.894   0.385  13.121 -0.5724  0.1750 -0.1945
12858TIP3    H159989   2.839   0.345  13.189 -0.7303  0.4733 -0.1450
12858TIP3    H259990   2.932   0.310  13.075 -1.2861 -0.0463 -0.4408
12859TIP3   OH259991   0.334   4.209   3.206  0.0211  0.0376 -0.6081
12859TIP3    H159992   0.276   4.192   3.132  0.4246 -0.2245 -0.8659
12859TIP3    H259993   0.385   4.129   3.215  0.1700  0.1746 -0.2213
12860TIP3   OH259994   2.248   0.217   3.077 -0.7098 -0.2055  0.5997
12860TIP3    H159995   2.260   0.311   3.067  0.1257 -0.4076 -0.5163
12860TIP3    H259996   2.165   0.199   3.033 -0.3302 -0.1370 -0.1567
12861TIP3   OH259997   3.973   6.354   3.867  0.1844  0.5604 -0.1260
12861TIP3    H159998   3.950   6.432   3.817 -0.2786  0.4979 -0.0117
12861TIP3    H259999   4.021   6.387   3.943 -2.0852  0.9547  1.2115
12862TIP3   OH260000   1.575   0.722   0.297  0.1532 -0.2536  0.1261
12862TIP3    H160001   1.513   0.688   0.233 -0.5237  0.5563  0.3243
12862TIP3    H260002   1.563   0.817   0.294  3.1260  0.1959 -1.5961
12863TIP3   OH260003   6.277   1.641   6.155 -0.3438 -1.0536 -0.1435
12863TIP3    H160004   6.204   1.580   6.146 -1.3371  0.1696 -0.6474
12863TIP3    H260005   6.235   1.727   6.166  1.0130 -0.4665  0.6508
12864TIP3   OH260006   4.665   0.848  13.317  0.0440 -0.8483  0.3259
12864TIP3    H160007   4.683   0.818  13.407  1.7179 -1.4543 -0.1674
12864TIP3    H260008   4.666   0.767  13.265 -0.6061 -0.4646 -0.2904
12865TIP3   OH260009   6.248   6.031   5.641 -0.0795  0.0828  0.2056
12865TIP3    H160010   6.185   6.098   5.614 -1.3801 -0.7561  1.0334
12865TIP3    H260011   6.333   6.076   5.639 -0.8908  1.7355  0.6621
12866TIP3   OH260012   5.212   0.027  14.260 -0.6238 -0.2160  0.0831
12866TIP3    H160013   5.142   0.037  14.196 -0.9237  0.8606  0.5474
12866TIP3    H260014   5.170   0.041  14.344 -0.2643 -1.7947  0.5550
12867TIP3   OH260015   1.569   0.069  12.587 -0.1722  0.1067 -0.3799
12867TIP3    H160016   1.662   0.090  12.578 -0.6441  2.3256 -0.7715
12867TIP3    H260017   1.537   0.065  12.497 -0.2309 -1.9931 -0.3018
12868TIP3   OH260018   3.890   6.378   1.301 -0.0128  0.2124 -0.0380
12868TIP3    H160019   3.937   6.367   1.384 -0.4068 -2.3432 -0.0751
12868TIP3    H260020   3.819   6.313   1.305  1.5481 -1.9639 -3.4243
12869TIP3   OH260021   6.452   2.291   1.661  0.4641  0.3801  0.3806
12869TIP3    H160022   6.486   2.375   1.630  0.4983  0.2230 -0.0103
12869TIP3    H260023   6.471   2.229   1.590 -1.2561  0.4264 -0.1560
12870TIP3   OH260024   5.397   2.612   5.945  0.0649 -0.0728  0.1639
12870TIP3    H160025   5.369   2.525   5.973 -0.6393  0.5429  1.4273
12870TIP3    H260026   5.341   2.673   5.993  0.4605  1.0885 -0.7867
12871TIP3   OH260027   1.836   6.501   5.256 -0.3191 -0.1203  0.0907
12871TIP3    H160028   1.874   6.434   5.313  0.0933 -0.1770 -0.2493
12871TIP3    H260029   1.751   6.521   5.295  0.1788  0.2182  1.0203
12872TIP3   OH260030   1.625   5.667  13.366  0.2363 -0.4539 -0.2500
12872TIP3    H160031   1.682   5.592  13.345  0.0358 -1.2627  1.8812
12872TIP3    H260032   1.547   5.653  13.312  0.2846 -1.6876 -0.0390
12873TIP3   OH260033   2.514   1.328  14.433  0.4374 -0.1224 -0.3911
12873TIP3    H160034   2.591   1.273  14.449  1.2797  1.2813  0.5633
12873TIP3    H260035   2.531   1.369  14.349 -0.1393 -1.1848 -1.0510
12874TIP3   OH260036   1.952   6.140   1.769  0.1979 -0.0580 -0.1196
12874TIP3    H160037   1.885   6.113   1.832  1.1744 -1.1396  0.5002
12874TIP3    H260038   1.907   6.201   1.711 -0.6537  1.3271  1.8718
12875TIP3   OH260039   6.705   1.199   4.385 -0.4876 -0.5701  0.1057
12875TIP3    H160040   6.756   1.125   4.351  0.4029  0.4829 -0.9455
12875TIP3    H260041   6.742   1.216   4.471  0.2639 -0.4659 -0.2314
12876TIP3   OH260042   4.560   3.527   3.558 -0.0303 -0.0589 -0.2547
12876TIP3    H160043   4.518   3.609   3.534  1.6995  1.1924  0.7691
12876TIP3    H260044   4.582   3.487   3.473  0.3438  1.2192 -0.7922
12877TIP3   OH260045   2.885   5.021   5.465  0.3467  0.4329  0.3871
12877TIP3    H160046   2.830   5.059   5.396 -0.5094 -2.1501 -0.4659
12877TIP3    H260047   2.957   4.979   5.417  1.1554  0.7633  1.2763
12878TIP3   OH260048   5.269   0.361   1.680  0.1358 -0.3958 -0.0912
12878TIP3    H160049   5.222   0.428   1.730  0.3849  0.2717 -0.7272
12878TIP3    H260050   5.333   0.411   1.629  3.0133 -1.4180  2.2588
12879TIP3   OH260051   2.533   2.169   4.842  0.3748 -0.0036  0.4446
12879TIP3    H160052   2.558   2.257   4.814  0.3897 -0.4819 -1.1270
12879TIP3    H260053   2.616   2.123   4.854  0.3442 -0.1054  0.2624
12880TIP3   OH260054   1.150   3.673   0.915 -0.0667  0.1209  0.0464
12880TIP3    H160055   1.128   3.622   0.992 -0.1498  2.8949  1.9871
12880TIP3    H260056   1.136   3.612   0.842  1.8355 -3.2330  2.1952
12881TIP3   OH260057   6.016   4.470   0.492  0.1137 -0.0057  0.2443
12881TIP3    H160058   6.062   4.452   0.574 -0.5306 -1.2912  0.3480
12881TIP3    H260059   5.961   4.393   0.478 -0.2340  0.4588 -1.0917
12882TIP3   OH260060   2.706   3.570  14.145 -0.0384  0.0955 -0.2182
12882TIP3    H160061   2.723   3.590  14.237  2.1255 -1.8285 -0.1211
12882TIP3    H260062   2.790   3.580  14.101 -0.9784  0.7915 -2.0089
12883TIP3   OH260063   6.333   6.524   5.324  0.2968  0.4819 -0.3026
12883TIP3    H160064   6.329   6.581   5.247 -0.7443  2.3045  1.0286
12883TIP3    H260065   6.250   6.476   5.323  0.9143 -0.6389 -1.0811
12884TIP3   OH260066   0.449   2.706  10.831  0.1627 -0.2329  0.1393
12884TIP3    H160067   0.512   2.773  10.855 -0.4050  0.1961  0.4596
12884TIP3    H260068   0.412   2.736  10.748 -0.3129  0.0101  0.4369
12885TIP3   OH260069   2.381   4.367   5.827 -0.3613  0.0457  0.4384
12885TIP3    H160070   2.378   4.460   5.802  0.4928 -0.5256 -2.0716
12885TIP3    H260071   2.292   4.348   5.858 -0.6751  1.5857  0.5641
12886TIP3   OH260072   1.986   3.724   4.636 -0.0196  0.2912 -0.7592
12886TIP3    H160073   1.921   3.745   4.703  0.2516 -0.4040 -0.2503
12886TIP3    H260074   1.939   3.728   4.553 -1.1299 -1.6463 -0.2992
12887TIP3   OH260075   5.883   4.577   6.739 -0.4135 -0.0649 -0.3211
12887TIP3    H160076   5.848   4.666   6.748  1.3070  0.5324  1.0089
12887TIP3    H260077   5.911   4.573   6.647 -0.2938  0.8712 -0.3443
12888TIP3   OH260078   2.623   2.512  16.289  0.1463 -0.5578 -0.0534
12888TIP3    H160079   2.637   2.425  16.326  0.3625 -0.7724 -0.6317
12888TIP3    H260080   2.711   2.552  16.288  0.0825 -0.4141  0.0079
12889TIP3   OH260081   0.941   1.528  17.302 -0.0382  0.1492  0.1892
12889TIP3    H160082   0.872   1.504  17.240  0.2643 -1.4630  0.4414
12889TIP3    H260083   0.942   1.624  17.300 -1.3510  0.1752 -0.8331
12890TIP3   OH260084   1.653   1.615   6.472  0.2634  0.1602 -0.1261
12890TIP3    H160085   1.738   1.606   6.430  0.3802  3.3305 -0.8099
12890TIP3    H260086   1.636   1.710   6.472 -2.6248 -0.2496  1.2655
12891TIP3   OH260087   6.452   5.793  16.797 -0.3256  0.4979 -0.0950
12891TIP3    H160088   6.486   5.876  16.830  1.5687  1.8757 -4.7639
12891TIP3    H260089   6.358   5.799  16.810 -0.0109  1.9513  2.3435
12892TIP3   OH260090   3.445   1.556  10.835  0.7207 -0.0436 -0.1765
12892TIP3    H160091   3.516   1.548  10.900  0.9248  1.4008 -0.1921
12892TIP3    H260092   3.490   1.565  10.751  0.6030  2.3824 -0.0288
12893TIP3   OH260093   5.769   1.344  17.499 -0.2656 -0.2238  0.0437
12893TIP3    H160094   5.718   1.364  17.578 -1.4767 -0.5713 -0.6321
12893TIP3    H260095   5.781   1.428  17.456  0.7535  0.0322  0.7798
12894TIP3   OH260096   6.619   2.826  12.105  0.0591  0.4100 -0.2036
12894TIP3    H160097   6.671   2.802  12.029 -0.3287  1.2093 -0.7293
12894TIP3    H260098   6.534   2.785  12.090 -0.5990  2.0103 -1.0932
12895TIP3   OH260099   1.713   3.858   3.259  0.4307  0.8103  0.8380
12895TIP3    H160100   1.789   3.883   3.312  0.5309  0.7198  0.7367
12895TIP3    H260101   1.639   3.869   3.318  0.4557  1.4981  0.7440
12896TIP3   OH260102   6.233   1.738  14.039  0.1280 -0.4905 -0.2742
12896TIP3    H160103   6.302   1.758  14.102 -0.2223 -0.2243  0.0311
12896TIP3    H260104   6.230   1.815  13.981 -2.5168  1.3782  2.0511
12897TIP3   OH260105   6.503   1.625  12.623  0.7213  0.4078 -0.4388
12897TIP3    H160106   6.589   1.611  12.663 -0.0307  0.0933  1.1877
12897TIP3    H260107   6.444   1.639  12.698 -1.1798 -2.2825 -1.2863
12898TIP3   OH260108   0.802   2.805  15.533  0.2591 -0.0658 -0.1606
12898TIP3    H160109   0.737   2.761  15.587 -0.8118  1.8018  0.1283
12898TIP3    H260110   0.886   2.772  15.566 -0.3978  0.1131  1.8459
12899TIP3   OH260111   1.357   2.236   2.788 -0.3238 -0.4538  0.0659
12899TIP3    H160112   1.451   2.249   2.775 -0.6403  0.7371 -1.3872
12899TIP3    H260113   1.323   2.217   2.701 -1.5997  0.4702  0.3267
12900TIP3   OH260114   1.901   2.600   0.357 -0.0515 -0.3808  0.1988
12900TIP3    H160115   1.880   2.510   0.382 -1.3404 -0.0480  0.3588
12900TIP3    H260116   1.830   2.653   0.392  0.8995  0.7774  0.4681
12901TIP3   OH260117   2.211   3.948  13.243 -0.5119 -0.6382  0.0935
12901TIP3    H160118   2.247   3.878  13.188  0.1559  0.2468 -0.6230
12901TIP3    H260119   2.244   3.928  13.331 -0.1224 -1.0939 -0.1483
12902TIP3   OH260120   1.905   1.551  16.260  0.1989 -0.4209 -0.3397
12902TIP3    H160121   1.886   1.487  16.328  0.0179 -1.7184 -1.5543
12902TIP3    H260122   1.952   1.501  16.193  1.7661  1.1617 -0.4900
12903TIP3   OH260123   6.174   2.299   1.726  0.0039 -0.0645  0.2389
12903TIP3    H160124   6.154   2.296   1.819 -1.1524 -0.5806 -0.0106
12903TIP3    H260125   6.270   2.293   1.722 -0.0177 -3.6012  1.3021
12904TIP3   OH260126   1.311   2.667  12.934 -0.5411  0.1320  0.8126
12904TIP3    H160127   1.343   2.755  12.952 -0.5820  0.4510 -0.6023
12904TIP3    H260128   1.280   2.670  12.844 -2.4417 -0.7866  1.3840
12905TIP3   OH260129   2.642   0.038   4.396 -0.2587 -0.0259  0.4289
12905TIP3    H160130   2.710  -0.023   4.424  1.2424  0.9216 -0.9438
12905TIP3    H260131   2.623   0.091   4.473  2.3665  1.2616  0.3195
12906TIP3   OH260132   2.731   0.730   4.150 -0.2937  0.0672 -0.8650
12906TIP3    H160133   2.709   0.698   4.238  3.6773 -0.0463  0.2706
12906TIP3    H260134   2.726   0.652   4.094  0.7840 -0.7436  0.1049
12907TIP3   OH260135   2.054   0.608   2.417  0.2502 -0.2776 -0.0410
12907TIP3    H160136   2.118   0.664   2.373  2.9823 -2.5706  0.6522
12907TIP3    H260137   2.038   0.651   2.501 -1.8216  2.0028 -1.4638
12908TIP3   OH260138   3.767   3.746  13.786 -0.4590 -0.5433  0.4198
12908TIP3    H160139   3.859   3.730  13.807  0.9648  2.1598 -2.8580
12908TIP3    H260140   3.738   3.666  13.741  0.2471 -1.3901  1.4189
12909TIP3   OH260141   4.277   5.581  16.369  0.4272  0.5151 -0.2965
12909TIP3    H160142   4.291   5.593  16.275 -0.5541  0.3885 -0.4696
12909TIP3    H260143   4.191   5.620  16.385  0.8391  1.0454  0.6589
12910TIP3   OH260144   4.219   2.614  16.513 -0.7109  0.4513  0.6150
12910TIP3    H160145   4.292   2.675  16.519  0.5045 -1.0047  1.3222
12910TIP3    H260146   4.229   2.572  16.427  0.7452 -1.4096  1.6052
12911TIP3   OH260147   5.264   6.448  17.345 -0.5497  0.6020  0.2787
12911TIP3    H160148   5.272   6.538  17.315  1.8797  1.2251  2.3801
12911TIP3    H260149   5.296   6.395  17.272 -2.0742  1.3734 -0.9990
12912TIP3   OH260150   2.281   6.378  12.644  0.4606 -0.0637  0.0753
12912TIP3    H160151   2.362   6.336  12.673  1.1480  0.7782 -0.5859
12912TIP3    H260152   2.236   6.400  12.726  1.4093  0.4285  0.4862
12913TIP3   OH260153   1.972   2.938  11.773  0.0060 -0.4483  0.0599
12913TIP3    H160154   1.934   2.851  11.782 -0.3028 -0.1395  2.4713
12913TIP3    H260155   1.899   2.998  11.792  0.6768  0.2560  0.4890
12914TIP3   OH260156   1.360   4.064   5.063 -0.1905 -0.5196  0.6785
12914TIP3    H160157   1.356   4.037   4.972 -2.3657 -1.4282  0.9801
12914TIP3    H260158   1.452   4.086   5.078  0.2176 -0.4443 -1.6783
12915TIP3   OH260159   5.362   4.893   4.594 -0.2151  0.4086  0.0902
12915TIP3    H160160   5.421   4.822   4.622 -0.3661  0.2037 -0.1036
12915TIP3    H260161   5.299   4.901   4.666  0.2530  0.8663  0.4582
12916TIP3   OH260162   5.333   2.925   2.089 -0.5892  0.2213  0.2333
12916TIP3    H160163   5.319   2.972   2.006  0.3059 -0.4759 -0.3366
12916TIP3    H260164   5.257   2.948   2.142 -0.6201  1.6032 -0.3495
12917TIP3   OH260165   2.829   2.552   2.978 -0.2473  0.0716  0.0585
12917TIP3    H160166   2.808   2.634   2.933 -0.0962  0.1252  0.0881
12917TIP3    H260167   2.896   2.575   3.041  0.3401 -0.2207 -0.4500
12918TIP3   OH260168   4.934   3.978  12.680 -0.1062  0.2636 -0.6115
12918TIP3    H160169   4.843   3.996  12.706 -0.2838  1.1376 -1.7514
12918TIP3    H260170   4.949   3.887  12.706 -1.8030 -0.3709 -1.6812
12919TIP3   OH260171   3.420   4.563  12.323 -0.0697 -0.8636  0.0591
12919TIP3    H160172   3.343   4.607  12.286  0.1321 -0.0318  0.6098
12919TIP3    H260173   3.487   4.631  12.327  0.8249 -1.6647 -0.7511
12920TIP3   OH260174   0.591   0.105  12.274  0.0860 -0.1768  0.3210
12920TIP3    H160175   0.681   0.074  12.269 -0.2610 -1.2418  0.2758
12920TIP3    H260176   0.556   0.061  12.352 -0.8219 -1.0028 -0.5199
12921TIP3   OH260177   2.663   2.843  16.201 -0.4120  0.4969 -0.0473
12921TIP3    H160178   2.665   2.803  16.288 -0.1637  1.5020  0.4167
12921TIP3    H260179   2.743   2.896  16.197 -0.6256  0.7780 -0.7424
12922TIP3   OH260180   4.923   6.080   4.579  0.3922 -0.2752  1.2018
12922TIP3    H160181   4.981   6.056   4.507  0.5647 -1.4231  1.6934
12922TIP3    H260182   4.981   6.084   4.656 -0.1598 -1.5802  1.7267
12923TIP3   OH260183   3.165   0.984  14.193  0.3477  0.2595  0.7547
12923TIP3    H160184   3.168   0.911  14.131  1.9935  0.6617  0.3120
12923TIP3    H260185   3.183   0.943  14.278  2.0271  0.2093  0.4081
12924TIP3   OH260186   2.967   3.445   1.403  0.3604 -0.1803  0.5911
12924TIP3    H160187   2.935   3.490   1.325 -2.2189  0.7258  2.0319
12924TIP3    H260188   3.023   3.509   1.447 -1.1239  0.7278  1.2585
12925TIP3   OH260189   5.861   5.754  11.453 -0.1867  0.2216 -0.3010
12925TIP3    H160190   5.820   5.710  11.527 -1.8728  0.0448 -1.2807
12925TIP3    H260191   5.834   5.846  11.462  0.9897  0.5410  0.1907
12926TIP3   OH260192   3.611   3.077  11.856 -0.1112 -0.4027  0.1378
12926TIP3    H160193   3.558   3.008  11.895  0.8486 -0.8927  0.6300
12926TIP3    H260194   3.598   3.068  11.762 -0.8899 -0.5093  0.2541
12927TIP3   OH260195   3.615   4.637   1.161  0.2841  0.3671 -0.3860
12927TIP3    H160196   3.710   4.625   1.158  0.4184  1.2398 -0.0920
12927TIP3    H260197   3.588   4.636   1.070  0.8633  2.0056 -0.6189
12928TIP3   OH260198   3.950   1.471   1.385 -0.1705  0.3390 -0.0413
12928TIP3    H160199   4.023   1.410   1.390  0.2134  0.7410 -0.6163
12928TIP3    H260200   3.873   1.418   1.408  0.0329 -0.5963 -1.4045
12929TIP3   OH260201   5.297   2.092   4.047  0.2914  0.1615  0.4870
12929TIP3    H160202   5.307   2.165   4.108  0.1797  1.2729 -0.7890
12929TIP3    H260203   5.215   2.050   4.073 -0.4022  1.3782  0.3363
12930TIP3   OH260204   5.607   2.441  11.960  0.1015 -0.4755 -0.0133
12930TIP3    H160205   5.522   2.439  11.917  0.1168  0.2212 -0.0781
12930TIP3    H260206   5.592   2.489  12.041  0.7577  1.0681 -0.7612
12931TIP3   OH260207   3.157   3.346   2.239 -0.2443 -0.2883  0.0859
12931TIP3    H160208   3.230   3.347   2.301 -0.4817 -0.0807  0.3702
12931TIP3    H260209   3.145   3.254   2.216  0.5973 -0.2428 -0.5493
12932TIP3   OH260210   6.425   6.697  11.823 -0.1171  0.6625 -0.1273
12932TIP3    H160211   6.464   6.676  11.738 -1.4186  0.6560 -0.7338
12932TIP3    H260212   6.333   6.672  11.814  0.2540 -2.0559  2.2120
12933TIP3   OH260213   3.923   5.524  14.541 -0.2517  0.1259 -0.0734
12933TIP3    H160214   3.956   5.590  14.603  2.4496 -1.3874  0.2465
12933TIP3    H260215   3.976   5.536  14.463 -3.1347  1.5177 -1.9747
12934TIP3   OH260216   2.052   6.285   2.621 -0.4920 -0.4458 -0.4882
12934TIP3    H160217   2.002   6.356   2.581 -0.0331  0.2256  0.0930
12934TIP3    H260218   2.103   6.248   2.549 -1.0151 -0.4444 -0.8700
12935TIP3   OH260219   4.741   5.164   2.319  0.4634 -0.2277 -0.0854
12935TIP3    H160220   4.658   5.116   2.320  1.0569 -1.2938  1.8242
12935TIP3    H260221   4.779   5.144   2.233 -0.4823 -1.0596 -0.3282
12936TIP3   OH260222   5.604   3.949   4.871  0.0625  0.1110 -0.3626
12936TIP3    H160223   5.525   3.938   4.817 -0.4202  3.1984 -0.4633
12936TIP3    H260224   5.571   3.964   4.959  0.7457 -1.6581  0.2551
12937TIP3   OH260225   5.447   2.058   5.741  0.1103 -0.4381  0.5684
12937TIP3    H160226   5.521   2.118   5.731 -0.4556  0.0328 -1.3425
12937TIP3    H260227   5.370   2.113   5.722 -0.5086 -1.5065 -0.0920
12938TIP3   OH260228   1.823   2.666  15.448  0.2068  0.2612 -0.0688
12938TIP3    H160229   1.895   2.606  15.471  0.1402  0.4695  0.7060
12938TIP3    H260230   1.744   2.620  15.476  0.1771  0.8362  0.8112
12939TIP3   OH260231   1.440   1.907  14.988 -0.3328 -0.5890 -0.7752
12939TIP3    H160232   1.414   1.886  15.078  0.3216 -1.1745 -0.7138
12939TIP3    H260233   1.454   2.002  14.989  0.8595 -0.7450  0.0712
12940TIP3   OH260234   0.091   4.927  12.547  0.5138 -0.0113  0.4199
12940TIP3    H160235   0.164   4.985  12.528  0.9958 -0.8254 -0.2728
12940TIP3    H260236   0.081   4.931  12.642  0.0426  1.7676  0.3287
12941TIP3   OH260237   0.322   3.211  14.388  0.1133  0.4796 -0.0602
12941TIP3    H160238   0.370   3.229  14.468 -0.1941 -0.6084  0.3920
12941TIP3    H260239   0.381   3.238  14.317  1.1953 -0.3870  0.4870
12942TIP3   OH260240   2.739   1.741  11.704  0.0085  0.5168 -0.0107
12942TIP3    H160241   2.781   1.721  11.620  0.2770  2.1870 -0.3046
12942TIP3    H260242   2.664   1.796  11.682 -0.2806  0.4623  0.7931
12943TIP3   OH260243   0.012   1.045  15.130  0.1844 -0.1888  0.9412
12943TIP3    H160244   0.021   1.106  15.057 -0.1904 -0.0865  0.9781
12943TIP3    H260245   0.099   1.039  15.168  0.3885 -0.2705  0.4593
12944TIP3   OH260246   5.732   6.151   1.090 -0.4152  0.4775  0.1167
12944TIP3    H160247   5.755   6.078   1.033 -1.3852 -0.2709  0.6610
12944TIP3    H260248   5.815   6.196   1.105  0.6653 -1.7536  1.4964
12945TIP3   OH260249   0.229   1.567   1.546  0.5772  0.4353  0.0458
12945TIP3    H160250   0.173   1.517   1.606 -0.9756  0.5651 -1.2079
12945TIP3    H260251   0.171   1.635   1.511  1.5063  0.5271 -1.3877
12946TIP3   OH260252   4.415   5.775  14.205  0.1516 -0.2139  0.4740
12946TIP3    H160253   4.497   5.740  14.169 -0.3137 -0.4106 -0.4246
12946TIP3    H260254   4.374   5.821  14.132 -0.5817 -0.1853  0.8890
12947TIP3   OH260255   2.136   0.747  12.620  0.1068  0.0740  0.4817
12947TIP3    H160256   2.103   0.664  12.586  1.4739 -1.2008  2.1073
12947TIP3    H260257   2.121   0.742  12.715 -0.4537  2.0268  0.5431
12948TIP3   OH260258   1.827   3.142  15.644  0.1120 -0.2607 -0.5993
12948TIP3    H160259   1.764   3.076  15.671  0.7483 -0.0818  1.4993
12948TIP3    H260260   1.868   3.171  15.726  1.3631  1.1871 -1.6810
12949TIP3   OH260261   4.741   1.634  12.163 -0.1319 -0.5603  0.3392
12949TIP3    H160262   4.771   1.557  12.113  1.0438  0.7946 -1.1647
12949TIP3    H260263   4.775   1.620  12.251  0.9567 -1.2916 -0.1727
12950TIP3   OH260264   4.046   1.641  12.111  0.2609 -0.3006  0.7505
12950TIP3    H160265   3.978   1.707  12.103  0.4503 -0.2032 -0.1597
12950TIP3    H260266   4.104   1.674  12.180  2.1522  2.1537 -1.8138
12951TIP3   OH260267   6.257   2.917  15.318 -0.4361 -0.2628  0.5946
12951TIP3    H160268   6.299   2.867  15.389  1.0408  0.6559  0.4162
12951TIP3    H260269   6.244   2.853  15.248  1.6863 -0.4028  0.2540
12952TIP3   OH260270   6.294   0.245   2.427 -0.0545 -0.1880 -0.0171
12952TIP3    H160271   6.202   0.238   2.402 -0.2856  0.6577  0.5261
12952TIP3    H260272   6.331   0.158   2.411 -0.6647 -0.2238 -1.3188
12953TIP3   OH260273   4.527   0.503  15.208 -0.0943  0.3508 -0.4848
12953TIP3    H160274   4.455   0.472  15.263 -1.4799 -0.6098 -2.6978
12953TIP3    H260275   4.498   0.486  15.119  2.1306  1.6586 -1.5453
12954TIP3   OH260276   5.295   1.327   2.007 -0.8011  0.4219  0.2246
12954TIP3    H160277   5.384   1.318   2.040 -0.5343 -1.2308 -0.8416
12954TIP3    H260278   5.254   1.391   2.065  0.9361  0.8801  0.9988
12955TIP3   OH260279   2.100   1.631  12.600  0.0962  0.1173 -0.7197
12955TIP3    H160280   2.028   1.594  12.651  1.0035 -0.2389  0.3491
12955TIP3    H260281   2.164   1.658  12.666  0.9561  0.3846 -1.6482
12956TIP3   OH260282   2.680   1.414   1.639 -0.1051 -0.4649 -0.0515
12956TIP3    H160283   2.719   1.435   1.723  1.9814 -2.0849 -0.5261
12956TIP3    H260284   2.722   1.474   1.577  0.5041 -1.1591 -0.3297
12957TIP3   OH260285   5.312   1.987   3.791  0.1394  0.1233 -0.1019
12957TIP3    H160286   5.305   2.032   3.876  0.1567  1.5284 -0.8073
12957TIP3    H260287   5.302   2.057   3.727 -3.1476 -1.2889 -1.3522
12958TIP3   OH260288   5.295   1.550  12.618  0.2712  0.4167  0.1088
12958TIP3    H160289   5.304   1.459  12.591  0.7949  0.2258  0.9049
12958TIP3    H260290   5.207   1.575  12.590  0.1869 -0.2727 -0.2592
12959TIP3   OH260291   1.985   2.914  12.673  0.0558 -0.0311 -0.5371
12959TIP3    H160292   1.947   2.941  12.589  1.2104  0.8573 -0.8037
12959TIP3    H260293   2.041   2.839  12.651  0.8889  0.6195 -0.7058
12960TIP3   OH260294   6.193   0.323   5.269  0.0503 -0.3475  0.4083
12960TIP3    H160295   6.138   0.246   5.283 -0.8038 -0.2508 -2.0729
12960TIP3    H260296   6.247   0.301   5.193  3.5953 -0.4331  2.7029
12961TIP3   OH260297   5.041   2.468  14.555 -0.0060 -0.5906 -0.1178
12961TIP3    H160298   4.982   2.445  14.627 -0.6143 -0.0373 -0.4315
12961TIP3    H260299   4.983   2.501  14.486  0.7450  0.7742 -0.1148
12962TIP3   OH260300   0.959   0.809  17.135 -0.0627  0.2447 -0.4594
12962TIP3    H160301   1.033   0.866  17.116  0.0422  0.1579 -0.3145
12962TIP3    H260302   0.998   0.722  17.142  0.0192  0.3743  0.9253
12963TIP3   OH260303   1.988   6.553   1.147 -0.2419 -0.7053 -0.2337
12963TIP3    H160304   1.910   6.606   1.161 -0.7472 -2.0379  2.5716
12963TIP3    H260305   2.061   6.613   1.163 -0.7848 -0.4399  1.4106
12964TIP3   OH260306   5.911   5.857   3.888 -0.1368  0.4401  0.7179
12964TIP3    H160307   5.891   5.892   3.802  1.6588  1.5674  0.6888
12964TIP3    H260308   5.992   5.808   3.876  0.5699  1.2636  1.8670
12965TIP3   OH260309   2.782   3.658   0.383  0.8257 -0.0179 -0.2176
12965TIP3    H160310   2.729   3.625   0.310  0.5853 -0.2850  0.0777
12965TIP3    H260311   2.792   3.584   0.442 -0.2652  0.5718  0.7679
12966TIP3   OH260312   1.559   2.170  14.937 -0.2640 -0.9414 -0.5944
12966TIP3    H160313   1.645   2.162  14.894  0.9930  0.1782  1.5410
12966TIP3    H260314   1.510   2.230  14.882  1.0601 -0.0544 -0.8529
12967TIP3   OH260315   2.242   6.230   1.830 -0.2593 -0.6538  0.4413
12967TIP3    H160316   2.309   6.287   1.793 -1.2878 -0.4266 -1.1764
12967TIP3    H260317   2.172   6.289   1.858 -1.6312 -1.0682 -1.8719
12968TIP3   OH260318   4.190   2.180  17.059 -0.3643 -0.3566 -0.1252
12968TIP3    H160319   4.103   2.148  17.082 -0.8033 -0.4419 -1.7697
12968TIP3    H260320   4.223   2.219  17.139 -2.3037  0.5204  0.2992
12969TIP3   OH260321   1.052   4.752   2.370 -0.0291  0.1264 -0.0544
12969TIP3    H160322   1.080   4.794   2.451 -0.4387 -1.7507  1.0914
12969TIP3    H260323   1.034   4.826   2.311 -1.0350  1.6000  1.9674
12970TIP3   OH260324   4.036   2.447  14.745  0.4732 -0.6531  0.2318
12970TIP3    H160325   4.014   2.514  14.810  0.3802  0.0995 -0.5505
12970TIP3    H260326   4.080   2.378  14.795  2.5585  0.9679  0.7641
12971TIP3   OH260327   5.691   3.487   2.082  0.3381 -0.7120  0.6205
12971TIP3    H160328   5.749   3.437   2.139 -0.1674 -2.2037 -0.1153
12971TIP3    H260329   5.645   3.547   2.141  2.9240  0.8856  1.1538
12972TIP3   OH260330   5.551   1.815  12.311 -0.4272  0.4593  0.2105
12972TIP3    H160331   5.467   1.851  12.336 -0.8956 -0.6409  0.2913
12972TIP3    H260332   5.530   1.732  12.267  0.6014  0.1609  0.2335
12973TIP3   OH260333   3.706   4.677  15.467  0.5861 -0.5812 -0.4292
12973TIP3    H160334   3.733   4.641  15.382  2.6694 -1.5992  0.5868
12973TIP3    H260335   3.626   4.630  15.490  1.0524 -1.6620 -0.9756
12974TIP3   OH260336   5.311   4.259   6.259 -0.4262 -0.0809  0.1278
12974TIP3    H160337   5.278   4.314   6.188 -1.1766 -1.0326 -0.2790
12974TIP3    H260338   5.247   4.269   6.330 -0.5471 -0.4007  0.0645
12975TIP3   OH260339   4.037   1.069  11.717  0.1177 -0.3404 -0.0078
12975TIP3    H160340   4.072   0.981  11.701  1.3582  0.2785 -0.8468
12975TIP3    H260341   4.037   1.078  11.812 -1.4948 -1.7955  0.1935
12976TIP3   OH260342   6.386   5.834  14.459 -0.1193 -0.0625  0.4068
12976TIP3    H160343   6.378   5.926  14.483 -1.6117 -0.1102  0.1533
12976TIP3    H260344   6.348   5.828  14.372  1.2609 -0.6847 -0.1893
12977TIP3   OH260345   4.717   6.445   4.645  0.2263 -0.1824  0.2939
12977TIP3    H160346   4.688   6.524   4.690  1.4491  0.8575 -0.6607
12977TIP3    H260347   4.716   6.377   4.713  0.1030  0.8762  1.3861
12978TIP3   OH260348   4.086   2.882  11.702 -0.6726 -0.2902 -0.5331
12978TIP3    H160349   4.048   2.905  11.617 -0.0498  3.0875 -0.0110
12978TIP3    H260350   4.030   2.926  11.765  1.5818  1.2958  0.4840
12979TIP3   OH260351   5.643   5.226   0.392 -0.4046 -0.3454  0.4230
12979TIP3    H160352   5.644   5.141   0.348 -1.0272 -0.7531  1.1576
12979TIP3    H260353   5.557   5.262   0.371  0.8319  1.3305 -2.0939
12980TIP3   OH260354   4.905   6.370  13.359 -0.7872 -0.1778 -0.3925
12980TIP3    H160355   4.934   6.322  13.437  0.1602  0.5412 -0.2822
12980TIP3    H260356   4.961   6.336  13.289 -0.7841  0.0725 -0.5097
12981TIP3   OH260357   4.624   3.038  14.751  0.2241  0.1923 -0.2928
12981TIP3    H160358   4.659   3.020  14.838 -0.1025 -0.7793 -0.3532
12981TIP3    H260359   4.539   3.078  14.766 -0.1233 -0.5913 -0.1691
12982TIP3   OH260360   2.728   0.084   0.713 -0.0410 -0.4535  0.0830
12982TIP3    H160361   2.651   0.030   0.695 -1.6964  1.6058  0.6064
12982TIP3    H260362   2.748   0.067   0.805 -0.0587 -0.7501  0.0333
12983TIP3   OH260363   1.863   3.840  11.003 -0.0688 -0.2863 -0.0861
12983TIP3    H160364   1.876   3.909  10.938  2.0538  1.8039  2.3192
12983TIP3    H260365   1.907   3.763  10.966 -0.3660  0.3240 -1.8026
12984TIP3   OH260366   0.148   4.795   2.409 -0.1401  0.0732 -0.8842
12984TIP3    H160367   0.120   4.818   2.497 -0.1880  0.7009 -1.0554
12984TIP3    H260368   0.071   4.755   2.369 -0.6493  1.3071 -1.1772
12985TIP3   OH260369   4.463   5.940   1.975 -0.1026 -0.3483  0.5365
12985TIP3    H160370   4.410   5.970   2.049  1.2655 -0.4018  1.5584
12985TIP3    H260371   4.462   5.844   1.983 -0.4008 -0.3789  0.1552
12986TIP3   OH260372   0.439   4.010  13.618 -0.8651  0.3948  0.1744
12986TIP3    H160373   0.429   3.921  13.653  3.1404  0.1090  1.0852
12986TIP3    H260374   0.429   4.067  13.694  2.9249  0.1082  1.0892
12987TIP3   OH260375   5.876   3.130  17.302  0.3256  0.1012 -0.2419
12987TIP3    H160376   5.954   3.145  17.355  1.7621 -1.8565 -1.5952
12987TIP3    H260377   5.882   3.194  17.231  0.7910 -0.0749 -0.3710
12988TIP3   OH260378   2.538   5.790   2.631 -0.2352 -0.0421  0.1726
12988TIP3    H160379   2.487   5.800   2.712  0.4940 -0.4788  0.6933
12988TIP3    H260380   2.620   5.749   2.659  0.1441  0.0698 -0.7508
12989TIP3   OH260381   0.938   2.347   3.109  0.6341  0.5505  0.2274
12989TIP3    H160382   0.923   2.413   3.041 -1.0405 -0.7905 -0.8115
12989TIP3    H260383   0.993   2.281   3.067  1.1575  0.6229  0.7982
12990TIP3   OH260384   1.535   5.120   4.134 -0.4986 -0.3124 -0.2155
12990TIP3    H160385   1.540   5.036   4.180 -1.1834  0.1476  0.7324
12990TIP3    H260386   1.485   5.101   4.055 -1.2966 -0.6645  0.3579
12991TIP3   OH260387   6.189   3.806  16.870 -0.1315  0.3077  0.4350
12991TIP3    H160388   6.240   3.887  16.863 -0.5853  0.6883  1.4747
12991TIP3    H260389   6.255   3.737  16.871  0.4237  0.8185  2.1522
12992TIP3   OH260390   0.642   5.483   4.628 -0.5770  0.4570 -0.2815
12992TIP3    H160391   0.699   5.501   4.703 -1.5130  0.7046  0.3886
12992TIP3    H260392   0.668   5.396   4.598  0.2639  0.6378 -0.0902
12993TIP3   OH260393   0.013   1.968  11.637  0.1021 -0.1805  0.2231
12993TIP3    H160394  -0.047   1.979  11.711  0.4021  0.8111  0.3331
12993TIP3    H260395  -0.043   1.940  11.565 -0.1131 -1.7047  0.9488
12994TIP3   OH260396   0.484   0.059   5.624 -1.0356  0.2318  0.2121
12994TIP3    H160397   0.453   0.068   5.534 -2.0869 -0.3667  0.4988
12994TIP3    H260398   0.475  -0.035   5.643  1.4698 -0.1054  0.1458
12995TIP3   OH260399   0.267   1.673  15.155 -0.1679  0.0878 -0.0587
12995TIP3    H160400   0.318   1.751  15.136 -0.2238  0.2095  0.2894
12995TIP3    H260401   0.185   1.706  15.191  0.3401 -0.1571  1.3732
12996TIP3   OH260402   0.597   2.131  14.191  0.4573 -0.3777  0.0051
12996TIP3    H160403   0.579   2.213  14.147 -0.6598  0.4946  1.9438
12996TIP3    H260404   0.672   2.094  14.144 -0.0945  0.8697 -1.9871
12997TIP3   OH260405   3.884   0.123  13.584 -0.1149 -0.4342 -0.0043
12997TIP3    H160406   3.883   0.046  13.527 -0.0852  0.7650 -1.7243
12997TIP3    H260407   3.888   0.197  13.523  0.9047  0.9048  1.5969
12998TIP3   OH260408   3.503   5.282  12.879 -0.0106 -0.2162 -0.4406
12998TIP3    H160409   3.410   5.273  12.858  0.4177 -1.0339 -2.1515
12998TIP3    H260410   3.523   5.374  12.859 -0.2558 -0.2622 -0.9122
12999TIP3   OH260411   4.898   2.773  15.715 -0.1413  0.3871  0.1583
12999TIP3    H160412   4.989   2.757  15.738 -0.3660  0.7773  1.3809
12999TIP3    H260413   4.877   2.858  15.753 -0.8968  0.5116 -0.4895
13000TIP3   OH260414   3.045   2.591   3.196  0.5906  0.1521  0.3015
13000TIP3    H160415   3.087   2.644   3.264  0.9519  0.9280 -0.4887
13000TIP3    H260416   2.992   2.528   3.243  2.0268 -0.3388  1.3411
13001TIP3   OH260417   4.101   2.878   2.004 -0.1913 -0.2779  0.4933
13001TIP3    H160418   4.006   2.866   2.003 -0.2461  0.1493  0.2626
13001TIP3    H260419   4.134   2.808   1.947 -0.2731 -1.1097  1.4224
13002TIP3   OH260420   0.578   0.354   1.917 -0.7811  0.4033  0.4556
13002TIP3    H160421   0.580   0.268   1.960 -2.3173  0.2036  0.1991
13002TIP3    H260422   0.550   0.334   1.828  1.5065  0.9056 -0.4334
13003TIP3   OH260423   0.747   3.276   6.005 -0.2642  0.6414 -0.1542
13003TIP3    H160424   0.673   3.335   6.016 -0.0749  0.8774 -0.1169
13003TIP3    H260425   0.823   3.328   6.033 -0.0416  0.5260 -0.5258
13004TIP3   OH260426   6.067   3.954   3.308 -0.1614 -0.4331 -0.2791
13004TIP3    H160427   6.131   3.976   3.240  0.8492 -0.1443  0.7374
13004TIP3    H260428   5.993   4.012   3.291  0.8688  1.0121  0.0126
13005TIP3   OH260429   1.550   2.291   5.141 -0.2042 -0.0766  0.5309
13005TIP3    H160430   1.550   2.208   5.094  1.6868 -0.0135  0.3454
13005TIP3    H260431   1.521   2.268   5.230 -1.5311 -0.5810 -0.0039
13006TIP3   OH260432   2.329   2.420  14.667 -0.3832  0.0452  0.5392
13006TIP3    H160433   2.235   2.435  14.662 -0.2776  0.6734  0.4010
13006TIP3    H260434   2.340   2.328  14.643 -0.9247  0.0726  0.1915
13007TIP3   OH260435   3.521   6.501   0.504 -0.0709 -0.0257  0.0307
13007TIP3    H160436   3.584   6.431   0.520  0.1068  0.3066  0.8073
13007TIP3    H260437   3.568   6.563   0.449 -0.6482 -1.1133 -1.7777
13008TIP3   OH260438   3.464   4.141   1.300 -0.1407  0.5129 -0.2236
13008TIP3    H160439   3.407   4.101   1.365  0.6631 -0.2495  0.0323
13008TIP3    H260440   3.541   4.083   1.296 -0.1719  0.5379 -1.8414
13009TIP3   OH260441   6.127   1.044  13.321 -0.4802  0.1444 -0.2130
13009TIP3    H160442   6.112   1.010  13.232  1.3192  0.6831 -0.7767
13009TIP3    H260443   6.214   1.083  13.317 -0.6190  0.7520  1.6458
13010TIP3   OH260444   4.256   2.288   6.029  0.2073 -0.1048  0.0019
13010TIP3    H160445   4.228   2.205   5.990 -2.0911  1.1059 -1.1026
13010TIP3    H260446   4.339   2.307   5.985 -0.2350 -0.8447 -1.2074
13011TIP3   OH260447   5.323   0.900  13.183 -0.3984  0.4030  0.4490
13011TIP3    H160448   5.412   0.881  13.215 -1.1648 -1.7463  1.5540
13011TIP3    H260449   5.321   0.995  13.173  1.4843  0.7031  2.1127
13012TIP3   OH260450   1.248   2.613  13.207  0.7235 -0.1691  0.4301
13012TIP3    H160451   1.253   2.606  13.112  0.8206  0.0658  0.4200
13012TIP3    H260452   1.330   2.575  13.239  1.1577  0.7034  0.3811
13013TIP3   OH260453   3.277   4.591   5.512 -0.2892  0.0232 -0.4475
13013TIP3    H160454   3.237   4.548   5.587 -0.9062  0.4981 -0.4937
13013TIP3    H260455   3.354   4.635   5.548 -0.4399  0.0359 -0.1350
13014TIP3   OH260456   1.807   2.686   1.185  0.3073 -0.6870  0.6085
13014TIP3    H160457   1.735   2.730   1.141  0.7145  1.2419  1.7777
13014TIP3    H260458   1.766   2.614   1.233 -0.5172 -0.9387 -0.4406
13015TIP3   OH260459   5.113   5.634   0.658 -0.4371 -0.8976 -0.0635
13015TIP3    H160460   5.175   5.704   0.636 -0.5950 -0.6210  0.3623
13015TIP3    H260461   5.101   5.586   0.576  0.7012 -1.2432 -0.0451
13016TIP3   OH260462   1.869   3.772   4.378 -0.7759  0.6948 -0.2741
13016TIP3    H160463   1.815   3.707   4.333 -0.3602  0.1130  0.0514
13016TIP3    H260464   1.951   3.774   4.328 -1.0456  1.4823 -0.6941
13017TIP3   OH260465   5.546   3.504   5.894  0.6191  0.2725 -0.4338
13017TIP3    H160466   5.537   3.582   5.948  0.9128  0.0996 -0.1298
13017TIP3    H260467   5.570   3.434   5.955 -0.3744 -0.2237 -0.5878
13018TIP3   OH260468   1.696   4.648   2.730 -0.1628  0.7141  0.0735
13018TIP3    H160469   1.652   4.612   2.807  2.0542 -0.8510  0.7117
13018TIP3    H260470   1.630   4.706   2.690 -2.0446  0.0872  2.0305
13019TIP3   OH260471   2.085   0.562   0.046  0.0453 -0.4699  0.6608
13019TIP3    H160472   2.017   0.505   0.011  0.6304 -2.2625  2.2607
13019TIP3    H260473   2.096   0.631  -0.020 -2.7879 -0.5073  0.0527
13020TIP3   OH260474   1.332   1.005  15.937  0.0000 -0.4241 -0.5926
13020TIP3    H160475   1.264   1.008  16.004 -0.0732  0.8426 -0.7025
13020TIP3    H260476   1.412   0.982  15.985  0.1516  1.4498  0.1334
13021TIP3   OH260477   3.577   1.514  12.420  0.6199 -0.2887  0.4966
13021TIP3    H160478   3.660   1.528  12.375 -0.1075 -0.8925 -1.1192
13021TIP3    H260479   3.552   1.601  12.451  1.1467  0.1671 -0.3190
13022TIP3   OH260480   2.017   1.637   2.890 -0.0985  0.2341  0.0703
13022TIP3    H160481   2.044   1.552   2.853 -0.9815  0.4430 -1.1200
13022TIP3    H260482   1.952   1.614   2.956 -0.5119 -0.0203 -0.4134
13023TIP3   OH260483   4.936   3.718  15.471  0.3469  0.0703  0.4011
13023TIP3    H160484   4.986   3.751  15.397  1.3916  1.3272  1.5990
13023TIP3    H260485   4.888   3.643  15.437  1.3200  0.2001 -1.3535
13024TIP3   OH260486   1.666   3.706   0.205  0.2880 -0.3027 -0.4471
13024TIP3    H160487   1.659   3.611   0.206 -0.3771 -0.2594 -0.3537
13024TIP3    H260488   1.719   3.725   0.127  0.7568 -0.7605 -0.2459
13025TIP3   OH260489   0.607   5.637   6.116 -0.4184  0.1355 -0.4409
13025TIP3    H160490   0.557   5.644   6.035  1.3871 -1.9655 -1.8592
13025TIP3    H260491   0.693   5.675   6.094  0.9182 -2.6282 -0.3913
13026TIP3   OH260492   2.562   4.404   4.641 -0.1909 -0.5728  0.2570
13026TIP3    H160493   2.576   4.315   4.673 -2.7943 -0.9654  0.5558
13026TIP3    H260494   2.467   4.417   4.647 -0.0170  1.8210 -0.8734
13027TIP3   OH260495   6.681   2.411   3.451 -0.1661 -0.5693  0.2893
13027TIP3    H160496   6.651   2.406   3.360 -0.6210  1.4105  0.2893
13027TIP3    H260497   6.773   2.384   3.447  0.9151  2.8120 -1.4370
13028TIP3   OH260498   3.842   5.420   1.299 -0.5285 -0.3154  0.0608
13028TIP3    H160499   3.800   5.489   1.246 -0.6709 -0.2808  0.2153
13028TIP3    H260500   3.771   5.388   1.356  0.0643  1.0022  1.6141
13029TIP3   OH260501   3.298   2.499  14.019  0.0002  0.0767  0.3843
13029TIP3    H160502   3.272   2.526  14.107 -0.3052 -0.3920  0.4414
13029TIP3    H260503   3.298   2.580  13.968 -1.0195  0.1703  0.5207
13030TIP3   OH260504   5.912   5.412  15.299 -0.4458 -0.1707  0.2214
13030TIP3    H160505   5.900   5.436  15.207 -2.0781 -1.4191  0.0783
13030TIP3    H260506   5.913   5.496  15.345 -0.4497  0.4320 -0.8392
13031TIP3   OH260507   5.848   0.565  15.041 -0.2192  0.4527  0.4424
13031TIP3    H160508   5.864   0.648  15.086 -0.7133  0.5699  0.4052
13031TIP3    H260509   5.925   0.552  14.985 -0.2549  1.0073  0.2631
13032TIP3   OH260510   5.472   5.581  11.804  0.2444 -0.1422 -0.1350
13032TIP3    H160511   5.467   5.661  11.857 -1.4815 -0.5916  0.4301
13032TIP3    H260512   5.469   5.510  11.868  1.6848 -0.7023 -0.6403
13033TIP3   OH260513   6.222   6.158  13.652  0.2271 -0.2177  0.2090
13033TIP3    H160514   6.137   6.202  13.649 -0.2662 -0.9414  2.1694
13033TIP3    H260515   6.253   6.159  13.561 -1.1919  1.3538 -0.3006
13034TIP3   OH260516   5.329   5.026   0.368 -0.1230  0.2413 -0.6401
13034TIP3    H160517   5.346   5.118   0.391  2.6447  0.1514 -1.8462
13034TIP3    H260518   5.326   5.026   0.272  1.2339 -1.0595 -0.7245
13035TIP3   OH260519   3.833   3.238   3.774  0.0596  0.0768 -0.0573
13035TIP3    H160520   3.777   3.167   3.744  1.5461 -0.4010 -1.8900
13035TIP3    H260521   3.875   3.204   3.853  0.0197 -0.6948 -0.3665
13036TIP3   OH260522   4.103   1.774   0.546 -0.0244  0.2181 -0.2604
13036TIP3    H160523   4.024   1.747   0.500  0.2476  0.7731 -1.0739
13036TIP3    H260524   4.104   1.870   0.536  1.1377  0.1478 -0.8940
13037TIP3   OH260525   3.249   4.837  11.897 -0.3591  0.0052  1.1762
13037TIP3    H160526   3.250   4.924  11.937  1.0423  0.8309 -0.5372
13037TIP3    H260527   3.328   4.795  11.930  1.5332  1.1729 -1.5489
13038TIP3   OH260528   4.840   5.720  14.866  0.2069 -0.5894 -0.2772
13038TIP3    H160529   4.930   5.750  14.853  0.0909  0.0327  0.3427
13038TIP3    H260530   4.818   5.675  14.784  0.8482 -0.1728 -0.6851
13039TIP3   OH260531   1.590   4.179   2.012 -0.1126  0.8714 -0.3560
13039TIP3    H160532   1.540   4.235   2.071  0.7573 -0.2860  1.5734
13039TIP3    H260533   1.545   4.094   2.015 -1.3508  1.3109 -3.1441
13040TIP3   OH260534   5.698   2.490  16.926  0.3456  0.6314 -0.2217
13040TIP3    H160535   5.733   2.412  16.882 -3.8617 -1.6974  0.0357
13040TIP3    H260536   5.640   2.530  16.862 -0.7939  1.0177  0.9985
13041TIP3   OH260537   4.744   0.250  13.494  0.7441  0.0188  0.6486
13041TIP3    H160538   4.790   0.321  13.539  1.7399 -1.2858  1.7569
13041TIP3    H260539   4.786   0.245  13.408  2.1900 -0.6424  1.3641
13042TIP3   OH260540   6.691   4.815   0.474 -0.1234 -0.9336 -0.0218
13042TIP3    H160541   6.660   4.730   0.443  0.9139 -1.6062  0.7386
13042TIP3    H260542   6.636   4.878   0.427 -1.3218 -2.0185 -0.1515
13043TIP3   OH260543   1.457   1.549   5.328 -0.2146 -0.0098  0.5290
13043TIP3    H160544   1.518   1.551   5.402 -0.2030 -1.4500  0.5845
13043TIP3    H260545   1.378   1.508   5.364  0.0071 -1.2937 -0.3735
13044TIP3   OH260546   4.695   0.319  14.535  0.2964 -0.3921  0.1311
13044TIP3    H160547   4.746   0.390  14.575 -1.8214  0.6263  1.2294
13044TIP3    H260548   4.751   0.242  14.543  2.0260  0.8140  0.3685
13045TIP3   OH260549   3.409   4.940  14.305 -0.2383 -0.0120 -0.3444
13045TIP3    H160550   3.451   5.018  14.267 -1.6258  0.8817 -0.1285
13045TIP3    H260551   3.380   4.890  14.229 -0.3536  0.2601 -0.4811
13046TIP3   OH260552   4.304   4.862   4.248  0.0953 -0.2004  0.2260
13046TIP3    H160553   4.365   4.901   4.185 -0.0007 -1.1746 -0.4869
13046TIP3    H260554   4.299   4.926   4.319 -1.0568  1.7350 -1.4718
13047TIP3   OH260555   5.139   5.499  14.738 -0.1608  0.6401 -0.2402
13047TIP3    H160556   5.152   5.547  14.656  2.6057 -0.2101 -0.4287
13047TIP3    H260557   5.077   5.551  14.788 -0.4998  2.1470 -2.1280
13048TIP3   OH260558   2.737   1.919  14.028  0.5615 -0.3560  0.1602
13048TIP3    H160559   2.779   1.888  13.948 -0.5988 -1.4898 -0.0408
13048TIP3    H260560   2.649   1.947  14.000 -0.1657 -1.5624  1.1474
13049TIP3   OH260561   6.443   2.440   2.616  0.1367  0.2170 -0.4154
13049TIP3    H160562   6.519   2.448   2.557  0.8686 -2.1430  0.1029
13049TIP3    H260563   6.479   2.398   2.695 -1.1607  1.7617  1.0601
13050TIP3   OH260564   3.254   0.372   2.916 -1.1061  0.5309  0.6397
13050TIP3    H160565   3.186   0.320   2.873 -0.0336 -1.7141  1.4691
13050TIP3    H260566   3.237   0.362   3.010 -1.9999  3.3688  0.8620
13051TIP3   OH260567   4.939   0.474   3.389 -0.3569  0.0277 -0.6939
13051TIP3    H160568   4.990   0.550   3.419  1.0332 -1.0276 -0.2659
13051TIP3    H260569   4.905   0.435   3.470 -0.5366 -0.1628 -0.8626
13052TIP3   OH260570   5.433   6.030  11.501  0.3583  0.0681 -0.0599
13052TIP3    H160571   5.357   5.989  11.457  0.7683  0.5189 -1.2193
13052TIP3    H260572   5.407   6.121  11.513  0.0820 -0.1394  1.0686
13053TIP3   OH260573   0.045   5.906   5.762 -0.1034 -0.5922  0.4716
13053TIP3    H160574   0.115   5.849   5.794  2.3235  1.0582 -1.5516
13053TIP3    H260575  -0.026   5.893   5.825  1.8342 -2.6526  2.4413
13054TIP3   OH260576   4.036   5.679  16.500 -0.8504  1.2819  0.3054
13054TIP3    H160577   3.971   5.620  16.539 -0.4354  1.4416  1.2769
13054TIP3    H260578   4.018   5.676  16.406  0.4303 -1.9588  0.0357
13055TIP3   OH260579   4.043   6.134  15.181 -0.1754  1.1004  0.0383
13055TIP3    H160580   4.116   6.192  15.160  0.9097 -0.2689 -0.1583
13055TIP3    H260581   3.975   6.192  15.215  1.4002  2.3217  1.2900
13056TIP3   OH260582   2.574   4.556  16.287  0.6979  0.8540 -0.2064
13056TIP3    H160583   2.534   4.470  16.298  0.8456  0.7100 -0.7796
13056TIP3    H260584   2.664   4.538  16.260  1.0747  1.1804  0.7831
13057TIP3   OH260585   0.653   6.489   1.109  0.0710  0.2474  0.2144
13057TIP3    H160586   0.667   6.580   1.084 -2.3240  0.0310 -2.4392
13057TIP3    H260587   0.575   6.490   1.165 -0.4486 -0.1846 -0.4715
13058TIP3   OH260588   3.407   2.931   6.349  0.5297  0.1740  0.1473
13058TIP3    H160589   3.314   2.952   6.338  0.5311  0.8178  1.2221
13058TIP3    H260590   3.408   2.860   6.413  0.7417 -0.5214 -0.6094
13059TIP3   OH260591   6.647   6.414  12.576  0.0226 -0.3747  0.4636
13059TIP3    H160592   6.678   6.455  12.496  0.3408  0.0683  0.8113
13059TIP3    H260593   6.686   6.466  12.647 -0.0614 -0.9041  0.9053
13060TIP3   OH260594   0.200   3.451   2.600  0.1732  0.3441 -0.5872
13060TIP3    H160595   0.275   3.418   2.550 -0.2852  0.0289 -1.0820
13060TIP3    H260596   0.147   3.498   2.536  0.2630  1.1171 -0.1070
13061TIP3   OH260597   5.254   1.343  16.783  0.0364 -0.2479  1.0555
13061TIP3    H160598   5.318   1.398  16.827 -0.1816  1.4975 -0.6608
13061TIP3    H260599   5.172   1.392  16.791 -0.0763 -0.0584 -0.9085
13062TIP3   OH260600   3.060   4.199  16.560  0.1191 -0.1611  0.4653
13062TIP3    H160601   2.976   4.232  16.594 -0.0969 -0.1224 -0.0947
13062TIP3    H260602   3.035   4.145  16.485  0.5907 -0.2600  0.3821
13063TIP3   OH260603   4.408   0.089  11.520 -0.8168  0.0438  0.7181
13063TIP3    H160604   4.451   0.174  11.524  1.5086 -0.9162 -1.2974
13063TIP3    H260605   4.424   0.058  11.431 -2.2770 -2.1746  1.1449
13064TIP3   OH260606   5.028   5.843  12.023  0.0741 -0.5119  0.0448
13064TIP3    H160607   5.102   5.783  12.020 -0.0387 -0.6367 -0.4886
13064TIP3    H260608   5.053   5.914  11.965  0.3557  0.1449  0.9543
13065TIP3   OH260609   3.096   3.534  11.785 -0.2581 -0.9771 -0.3432
13065TIP3    H160610   3.054   3.619  11.794  1.8844 -0.0287  2.0194
13065TIP3    H260611   3.113   3.525  11.691 -1.5603  0.6437 -0.7751
13066TIP3   OH260612   0.612   6.216   3.951  0.0642 -0.0209  0.1251
13066TIP3    H160613   0.618   6.286   4.017 -2.4042 -0.1195  0.5534
13066TIP3    H260614   0.552   6.251   3.885  1.7540 -0.3164 -1.6129
13067TIP3   OH260615   0.343   3.247  13.914 -0.0397 -0.1104 -0.0883
13067TIP3    H160616   0.332   3.161  13.955  0.0410  0.7025  1.7346
13067TIP3    H260617   0.310   3.235  13.825 -0.8809 -1.7827  0.3945
13068TIP3   OH260618   3.817   1.041   5.258  0.5324 -0.1891  0.2439
13068TIP3    H160619   3.849   1.074   5.342  0.4561 -0.7597  0.4962
13068TIP3    H260620   3.823   0.946   5.265  1.7109 -0.2311 -0.8486
13069TIP3   OH260621   3.410   6.592   5.287 -0.2257 -0.1896 -0.3006
13069TIP3    H160622   3.399   6.498   5.302  2.1298 -0.4429  0.1880
13069TIP3    H260623   3.493   6.599   5.239  1.0758  1.7649  2.0330
13070TIP3   OH260624   0.285   2.824  15.473  0.4521  0.2167  0.8090
13070TIP3    H160625   0.252   2.785  15.392  2.3485  3.0786 -1.5890
13070TIP3    H260626   0.372   2.785  15.485 -0.1071 -0.7247  1.9253
13071TIP3   OH260627   1.262   3.017  12.550  0.0275 -0.2094  0.4530
13071TIP3    H160628   1.295   3.066  12.474  0.2271  1.1981  1.4148
13071TIP3    H260629   1.331   2.954  12.571 -0.2622 -1.0073 -0.8426
13072TIP3   OH260630   4.912   2.017  12.107  0.2851 -0.4318 -0.2173
13072TIP3    H160631   4.897   1.968  12.188  1.4229  2.1907  1.7586
13072TIP3    H260632   5.005   2.039  12.109  0.0471  0.8704 -1.5158
13073TIP3   OH260633   5.200   1.968   5.613  0.4602 -0.1049  0.5895
13073TIP3    H160634   5.253   1.999   5.539 -0.2443  2.6671  1.1334
13073TIP3    H260635   5.110   1.975   5.582  0.2364 -1.8689  0.7269
13074TIP3   OH260636   0.045   5.817   1.837 -0.2206 -0.1205  0.1403
13074TIP3    H160637   0.112   5.880   1.860 -0.6195  0.0533  0.8487
13074TIP3    H260638   0.092   5.749   1.788  0.2187  0.6796 -0.5805
13075TIP3   OH260639   0.064   4.556   2.144 -0.5236  0.6398 -0.6203
13075TIP3    H160640   0.019   4.603   2.214  0.5036 -0.1226  0.6020
13075TIP3    H260641   0.153   4.592   2.145 -0.4602  0.5189 -1.4465
13076TIP3   OH260642   3.100   1.521   5.756  0.1439  0.4738 -0.1537
13076TIP3    H160643   3.177   1.487   5.709  0.9322  1.9679  0.0035
13076TIP3    H260644   3.127   1.522   5.848 -0.2854  0.4816 -0.0268
13077TIP3   OH260645   1.756   1.037   2.855 -0.4864 -0.4063  0.1207
13077TIP3    H160646   1.768   1.129   2.832 -0.5132 -0.6938 -1.0939
13077TIP3    H260647   1.785   0.988   2.778 -0.7676 -1.4128  0.6274
13078TIP3   OH260648   5.626   6.705  16.304 -0.3839  0.3492 -0.1622
13078TIP3    H160649   5.633   6.715  16.399  0.0900  0.2921 -0.1912
13078TIP3    H260650   5.622   6.611  16.290 -0.0832  0.3452 -0.2245
13079TIP3   OH260651   0.412   2.704  13.206 -1.0107  0.3555  0.0716
13079TIP3    H160652   0.498   2.707  13.249 -0.9487 -2.2688  0.2998
13079TIP3    H260653   0.409   2.784  13.154  2.0566  0.0421 -0.8100
13080TIP3   OH260654   6.274   2.950   2.554 -0.7087  0.0580  0.2085
13080TIP3    H160655   6.193   3.000   2.540 -0.5496 -0.0517 -1.2647
13080TIP3    H260656   6.343   3.017   2.550 -0.4789 -0.2403 -1.9618
13081TIP3   OH260657   1.245   0.967   4.712 -0.2788  0.2815 -0.3938
13081TIP3    H160658   1.209   1.042   4.760 -3.5291 -1.1964 -0.2079
13081TIP3    H260659   1.245   0.896   4.777  0.0649 -0.5495 -1.2883
13082TIP3   OH260660   5.309   4.921  14.982 -0.0646 -0.3281 -0.5281
13082TIP3    H160661   5.370   4.851  14.958  1.4497  1.2478 -1.4627
13082TIP3    H260662   5.285   4.901  15.072  2.5137 -0.5808  0.1814
13083TIP3   OH260663   4.921   5.639   5.759 -0.1508  0.0858  0.4367
13083TIP3    H160664   4.988   5.675   5.817  0.1465  0.1948  0.0274
13083TIP3    H260665   4.949   5.549   5.742  0.2124  0.3174 -0.2144
13084TIP3   OH260666   4.035   2.440  12.710 -0.4652 -0.0402 -0.5980
13084TIP3    H160667   3.993   2.511  12.662  2.2128  0.9100 -1.6873
13084TIP3    H260668   4.072   2.384  12.643 -0.4906 -1.1954  0.3131
13085TIP3   OH260669   2.136   0.859  15.670 -0.2218  0.4844 -0.3700
13085TIP3    H160670   2.070   0.905  15.721  0.0493 -1.6273  2.0601
13085TIP3    H260671   2.213   0.916  15.675  0.5058 -0.5757  3.6344
13086TIP3   OH260672   5.287   1.944  12.573  0.0622  0.0290  0.9834
13086TIP3    H160673   5.206   1.899  12.597  0.6859 -0.4350  2.3796
13086TIP3    H260674   5.356   1.893  12.616  0.9262  1.4739  1.3856
13087TIP3   OH260675   3.465   1.321  11.405 -0.0995 -0.0687  0.2151
13087TIP3    H160676   3.462   1.316  11.310  1.9470 -0.2843  0.1061
13087TIP3    H260677   3.398   1.260  11.435  1.0431 -2.0799 -1.0984
13088TIP3   OH260678   3.623   3.720   4.342 -0.1906 -0.0188  0.6451
13088TIP3    H160679   3.567   3.763   4.279  0.9634 -0.2543 -0.5987
13088TIP3    H260680   3.708   3.713   4.298  0.1623 -1.8547  1.5022
13089TIP3   OH260681   3.184   3.064  12.630 -0.0478 -0.2956 -0.0785
13089TIP3    H160682   3.171   3.150  12.590  2.5150  0.0812 -0.2856
13089TIP3    H260683   3.257   3.026  12.581  0.5985 -1.4836  1.7117
13090TIP3   OH260684   0.571   5.859   5.397  0.3018 -0.0997 -0.4321
13090TIP3    H160685   0.641   5.919   5.422  0.0499 -0.9647  2.6582
13090TIP3    H260686   0.611   5.802   5.330  1.3502  1.6989 -1.4226
13091TIP3   OH260687   3.662   5.647  14.526 -0.1503 -0.0896 -0.8809
13091TIP3    H160688   3.734   5.585  14.542 -0.8239 -0.9429 -1.0517
13091TIP3    H260689   3.644   5.638  14.433  0.1306  0.8195 -1.0349
13092TIP3   OH260690   5.984   5.783   2.468  0.1823 -0.1695 -0.3388
13092TIP3    H160691   6.045   5.710   2.463 -0.3397 -0.5396 -2.5080
13092TIP3    H260692   6.040   5.861   2.469  0.7228 -0.5570  0.8194
13093TIP3   OH260693   3.586   6.119   4.061 -0.6955 -0.5172  0.0226
13093TIP3    H160694   3.551   6.197   4.017  2.1830  1.2620  0.6556
13093TIP3    H260695   3.537   6.114   4.144  0.3142  1.8539  0.8542
13094TIP3   OH260696   1.923   2.851   3.115  0.4877 -0.1515 -0.0467
13094TIP3    H160697   1.921   2.854   3.211 -0.2156 -0.1495 -0.0582
13094TIP3    H260698   2.015   2.834   3.094  0.3398 -2.0125  0.6791
13095TIP3   OH260699   3.007   0.413   6.001  0.6504 -0.0596  0.0748
13095TIP3    H160700   3.082   0.391   5.946  1.7279  2.7009  0.2496
13095TIP3    H260701   3.040   0.483   6.059 -2.0291  1.2491  0.1562
13096TIP3   OH260702   5.262   4.403   0.702  0.4387  0.0751  0.3194
13096TIP3    H160703   5.192   4.457   0.666  0.7195 -0.3682 -0.9545
13096TIP3    H260704   5.268   4.329   0.642 -0.6811 -2.0033  2.5684
13097TIP3   OH260705   2.506   0.171   0.090  0.0457 -0.3553  0.3846
13097TIP3    H160706   2.533   0.164   0.181 -0.1463  0.6894  0.5310
13097TIP3    H260707   2.410   0.163   0.093 -0.2113  2.0405  0.5802
13098TIP3   OH260708   2.173   1.080   1.031 -0.1601  0.3127  0.1909
13098TIP3    H160709   2.215   1.003   0.993 -0.1555  0.5164 -0.2192
13098TIP3    H260710   2.113   1.111   0.964  0.1168  0.8885  0.2062
13099TIP3   OH260711   2.093   5.388   0.412 -0.2677 -0.0806  0.1217
13099TIP3    H160712   2.149   5.313   0.432 -0.9009 -0.8212 -0.8371
13099TIP3    H260713   2.119   5.415   0.324 -2.2574 -1.2510 -0.8931
13100TIP3   OH260714   1.428   1.917  12.093  0.5069 -0.0259 -0.2270
13100TIP3    H160715   1.417   1.852  12.024 -1.2754  0.5658 -0.5652
13100TIP3    H260716   1.511   1.894  12.135  0.9327 -1.2495 -1.6435
13101TIP3   OH260717   5.660   3.164   2.613 -0.2270  0.1099 -0.3991
13101TIP3    H160718   5.599   3.169   2.540 -0.9607 -0.6717  0.1557
13101TIP3    H260719   5.732   3.110   2.580 -0.7025 -0.5038 -0.4479
13102TIP3   OH260720   3.429   3.044   1.119 -0.2745 -0.1825 -0.2679
13102TIP3    H160721   3.465   3.128   1.149  0.2250 -0.0138 -1.2926
13102TIP3    H260722   3.498   3.007   1.064 -0.8435 -0.8472 -0.5450
13103TIP3   OH260723   6.551   0.231   1.166  0.0746 -0.3134 -0.8168
13103TIP3    H160724   6.522   0.142   1.143  0.4549 -1.0852  1.4319
13103TIP3    H260725   6.471   0.276   1.192 -0.2657  0.3653 -2.9041
13104TIP3   OH260726   5.698   4.981   4.844 -0.9483  0.1901  0.7422
13104TIP3    H160727   5.710   5.049   4.910  0.7206  0.2165  0.4421
13104TIP3    H260728   5.603   4.966   4.843 -1.1372  1.0370  2.2685
13105TIP3   OH260729   5.149   1.634  13.868  0.3316 -0.0666  0.2349
13105TIP3    H160730   5.074   1.692  13.854  0.1483 -0.8139 -2.4258
13105TIP3    H260731   5.164   1.593  13.782  2.8203 -1.1063  1.0801
13106TIP3   OH260732   2.178   1.275  12.743  0.1943  0.4697 -0.0107
13106TIP3    H160733   2.100   1.225  12.720  0.6127  0.1201 -0.7061
13106TIP3    H260734   2.213   1.305  12.659  1.6616 -0.6830  0.1572
13107TIP3   OH260735   4.871   3.256  13.719  0.6098 -0.0422  0.1906
13107TIP3    H160736   4.833   3.281  13.635 -1.2160 -0.2930  0.8888
13107TIP3    H260737   4.939   3.322  13.736 -0.9231  1.7143 -0.1706
13108TIP3   OH260738   0.599   6.694  14.465  0.2930 -0.3203 -0.4456
13108TIP3    H160739   0.507   6.715  14.482  0.6311  1.6571 -0.7967
13108TIP3    H260740   0.646   6.774  14.486  1.7350 -0.7022 -1.9965
13109TIP3   OH260741   1.947   6.594  17.136 -0.0327  0.5390  0.0150
13109TIP3    H160742   1.973   6.630  17.051  1.5596 -1.2021 -0.3011
13109TIP3    H260743   1.954   6.499  17.125 -0.2026  0.2581  1.9709
13110TIP3   OH260744   5.695   0.331   5.575  0.8178  0.4199 -0.5363
13110TIP3    H160745   5.779   0.376   5.590  1.4725 -0.8659 -0.2104
13110TIP3    H260746   5.651   0.384   5.509  1.4708  1.6457 -0.0174
13111TIP3   OH260747   3.153   4.452  16.147 -0.8691 -0.4190  0.2243
13111TIP3    H160748   3.091   4.452  16.220 -0.9257 -0.4202  0.1759
13111TIP3    H260749   3.103   4.485  16.073 -1.6401 -3.0799 -0.5334
13112TIP3   OH260750   3.740   3.177   5.318  0.2502 -0.4465 -0.4985
13112TIP3    H160751   3.815   3.178   5.378  1.3031 -1.3653 -1.7611
13112TIP3    H260752   3.728   3.269   5.293  1.5118 -0.3859 -0.9434
13113TIP3   OH260753   6.403   4.099  14.287 -0.0524 -0.6145 -0.0978
13113TIP3    H160754   6.498   4.089  14.295  0.2273 -0.3040 -2.4159
13113TIP3    H260755   6.372   4.012  14.262 -0.2047 -0.4170 -0.6047
13114TIP3   OH260756   0.756   1.006  16.523 -0.0186 -0.9101  0.4559
13114TIP3    H160757   0.744   1.100  16.534 -1.4343 -0.8152 -1.3348
13114TIP3    H260758   0.839   0.987  16.567  0.4936  1.2244  0.5407
13115TIP3   OH260759   1.739   5.025   4.981  0.0787 -0.5213  0.2702
13115TIP3    H160760   1.697   5.022   4.895 -0.7518  1.7799  0.5222
13115TIP3    H260761   1.666   5.026   5.043  0.6386 -0.7999  0.9496
13116TIP3   OH260762   2.953   1.177  14.289  0.0836 -0.0514  0.4665
13116TIP3    H160763   2.889   1.107  14.301  0.4510 -0.4681  0.0109
13116TIP3    H260764   3.032   1.133  14.258  0.2038  0.5965 -0.1835
13117TIP3   OH260765   2.070   5.952  13.231 -0.3659 -0.5847  0.0500
13117TIP3    H160766   2.114   5.907  13.159  0.0586  0.2165 -0.2044
13117TIP3    H260767   1.978   5.929  13.222 -0.6054  0.8318 -1.7778
13118TIP3   OH260768   5.514   6.657   2.351  0.2676 -0.5016  0.5619
13118TIP3    H160769   5.547   6.601   2.421 -1.2110  0.1582  1.8375
13118TIP3    H260770   5.577   6.730   2.348 -0.9686  0.7913  3.0269
13119TIP3   OH260771   2.510   2.150   3.677  0.5551 -0.1048  0.2260
13119TIP3    H160772   2.560   2.121   3.754 -0.0660  2.0206  1.5264
13119TIP3    H260773   2.561   2.222   3.641 -0.2230  0.3173 -0.0591
13120TIP3   OH260774   2.253   4.475   2.932  0.2298  0.3837 -0.5301
13120TIP3    H160775   2.213   4.560   2.952  0.4280 -0.0920  2.2619
13120TIP3    H260776   2.309   4.456   3.007  0.9949 -1.7784 -1.5466
13121TIP3   OH260777   0.724   2.793   3.840 -0.0009 -0.4025  0.1362
13121TIP3    H160778   0.629   2.806   3.833  0.1118 -0.5565 -2.4664
13121TIP3    H260779   0.761   2.848   3.771  1.7560 -1.0142  0.5512
13122TIP3   OH260780   3.905   0.901  12.349  0.5071 -0.1319  0.6278
13122TIP3    H160781   3.834   0.945  12.302  0.8756 -1.3599 -1.1789
13122TIP3    H260782   3.985   0.932  12.306  0.8720 -1.1248  0.5717
13123TIP3   OH260783   3.829   6.054  11.742  0.0411 -0.5544  0.1715
13123TIP3    H160784   3.744   6.053  11.784  0.6128 -0.3286  1.3772
13123TIP3    H260785   3.817   6.105  11.662 -1.3398 -1.9491 -0.5677
13124TIP3   OH260786   5.042   1.199   3.439  0.2907  0.6644 -0.1192
13124TIP3    H160787   4.964   1.233   3.483 -1.5769 -2.5961 -0.5618
13124TIP3    H260788   5.083   1.141   3.504  1.6083  1.2844 -0.3596
13125TIP3   OH260789   3.134   4.470   5.712  0.0147  0.5418  0.3780
13125TIP3    H160790   3.067   4.406   5.687 -1.5138  2.1983  0.0316
13125TIP3    H260791   3.188   4.424   5.776 -0.2526 -1.4862 -0.7404
13126TIP3   OH260792   4.759   5.505  13.446 -0.1502  0.3212  0.0733
13126TIP3    H160793   4.787   5.508  13.354  0.1357  1.2948  0.1832
13126TIP3    H260794   4.781   5.416  13.474 -1.1392 -0.3076 -1.0663
13127TIP3   OH260795   3.489   5.997   1.157 -0.0509  0.0232  0.0758
13127TIP3    H160796   3.459   5.940   1.087  0.2921  0.7795 -0.6977
13127TIP3    H260797   3.442   5.966   1.235  1.1666 -2.2318  0.0107
13128TIP3   OH260798   3.980   5.855   2.042  0.1083  0.2540  0.1291
13128TIP3    H160799   3.935   5.906   1.975 -0.2835 -1.8498 -1.3333
13128TIP3    H260800   3.913   5.842   2.110 -0.2173  0.5198 -0.1341
13129TIP3   OH260801   1.125   2.565  14.541 -0.3800  0.5881  0.5762
13129TIP3    H160802   1.180   2.551  14.618 -1.0067 -0.1822  0.8982
13129TIP3    H260803   1.179   2.537  14.467  0.2574  1.4138  0.7076
13130TIP3   OH260804   5.687   0.149   5.325  0.2205 -0.1879  0.0730
13130TIP3    H160805   5.688   0.072   5.381 -1.0994  0.9590  1.8061
13130TIP3    H260806   5.686   0.115   5.236 -1.6673 -2.2238  0.7929
13131TIP3   OH260807   0.648   0.755   3.564 -0.5716  0.0688  0.1348
13131TIP3    H160808   0.639   0.793   3.651 -1.7795  0.0951  0.0093
13131TIP3    H260809   0.656   0.661   3.580  1.4297  0.2346  0.3828
13132TIP3   OH260810   1.992   2.051  14.384 -0.1095  0.0856  0.0915
13132TIP3    H160811   1.995   1.983  14.452  1.8766 -1.3701 -1.3227
13132TIP3    H260812   1.909   2.038  14.340  0.3669 -1.6888 -0.3465
13133TIP3   OH260813   2.604   0.744  15.293  0.2240 -0.1692  0.1507
13133TIP3    H160814   2.546   0.754  15.217 -0.7123 -0.6889  0.7788
13133TIP3    H260815   2.659   0.668  15.271  0.7113  0.3483 -0.4639
13134TIP3   OH260816   4.153   4.234  14.021  0.4801  0.1534 -0.2023
13134TIP3    H160817   4.081   4.293  14.000 -0.2174 -1.2344 -2.0137
13134TIP3    H260818   4.129   4.196  14.106 -1.7093 -1.2859 -1.3614
13135TIP3   OH260819   1.395   4.061   4.789  0.0582  0.6862  0.4298
13135TIP3    H160820   1.456   4.127   4.756  1.1702 -0.5786 -0.1124
13135TIP3    H260821   1.402   3.989   4.728 -1.2572  0.1045  0.9264
13136TIP3   OH260822   3.978   1.887   2.519  0.2059 -0.5404 -0.3420
13136TIP3    H160823   4.058   1.937   2.504 -0.2778  0.6885  0.8749
13136TIP3    H260824   3.927   1.899   2.438 -0.4913  2.2225  0.3736
13137TIP3   OH260825   5.086   6.026  11.133  0.3260  0.2577 -0.3053
13137TIP3    H160826   5.112   5.949  11.082  0.2744  1.3630 -2.0728
13137TIP3    H260827   5.002   6.002  11.172 -0.4594 -0.0733 -2.0949
13138TIP3   OH260828   5.562   0.498  13.630  0.1772  0.3665 -0.2401
13138TIP3    H160829   5.520   0.574  13.591 -0.6303 -0.9244 -2.0222
13138TIP3    H260830   5.558   0.514  13.724 -2.9048  1.0405 -0.3887
13139TIP3   OH260831   5.976   1.256  11.238  0.2193  0.1865 -0.2518
13139TIP3    H160832   5.965   1.339  11.191  0.7240  0.3528 -0.0910
13139TIP3    H260833   5.940   1.190  11.179 -1.9741  0.7005  0.4112
13140TIP3   OH260834   0.007   2.571   1.148  0.6586 -0.1730  0.6730
13140TIP3    H160835   0.025   2.539   1.236 -0.2485 -1.0152  0.5787
13140TIP3    H260836  -0.071   2.625   1.157  0.7897  0.0569  0.4452
13141TIP3   OH260837   0.061   3.271  14.412  0.3513 -0.6675 -0.4578
13141TIP3    H160838   0.068   3.311  14.498  2.4241 -0.4009 -0.7050
13141TIP3    H260839   0.148   3.233  14.395 -0.4542 -2.0454 -1.7917
13142TIP3   OH260840   6.601   1.540   0.205 -0.3694  0.4289 -0.7050
13142TIP3    H160841   6.632   1.453   0.230  1.4106  0.9337 -0.9826
13142TIP3    H260842   6.558   1.527   0.120  0.0111 -0.1622 -0.8103
13143TIP3   OH260843   2.394   4.633   4.443  0.2215 -0.3381 -0.5975
13143TIP3    H160844   2.397   4.605   4.351 -0.2703 -0.9122 -0.4432
13143TIP3    H260845   2.341   4.712   4.442 -1.7592 -1.5849 -0.5310
13144TIP3   OH260846   3.725   5.722   3.714  0.7417  0.1649  0.0293
13144TIP3    H160847   3.779   5.754   3.643 -1.3070  0.9295 -1.2806
13144TIP3    H260848   3.743   5.628   3.718  2.7723  0.5306  0.2549
13145TIP3   OH260849   2.615   1.711  14.403 -0.5230  0.1328  0.0150
13145TIP3    H160850   2.665   1.791  14.417  0.0028  0.0975 -1.4998
13145TIP3    H260851   2.675   1.640  14.427 -0.4435  0.1461 -0.1440
13146TIP3   OH260852   5.011   0.170  13.560 -0.9212 -0.3352 -0.2471
13146TIP3    H160853   5.102   0.199  13.559 -1.3336  1.0178 -1.0207
13146TIP3    H260854   4.994   0.141  13.470 -1.6531  0.8065 -0.5001
13147TIP3   OH260855   2.811   2.459   1.609  0.0611 -0.2065 -0.0208
13147TIP3    H160856   2.899   2.425   1.592  0.2132  0.4772 -0.5948
13147TIP3    H260857   2.808   2.543   1.565 -0.3276  0.5352  1.3708
13148TIP3   OH260858   2.957   0.028   4.239 -0.6947 -0.0469  0.2166
13148TIP3    H160859   3.021  -0.024   4.191 -0.1481 -1.2085  2.0768
13148TIP3    H260860   3.009   0.084   4.297 -1.3346  0.3903  0.3847
13149TIP3   OH260861   1.098   4.780  14.430  0.5555  0.3066  1.1790
13149TIP3    H160862   1.134   4.869  14.428  1.0246  0.1638  2.5129
13149TIP3    H260863   1.012   4.790  14.471  0.2750  0.2514  0.6062
13150TIP3   OH260864   1.273   6.045  12.016 -0.1531  0.5051 -0.0403
13150TIP3    H160865   1.293   6.116  12.077  0.6315 -0.2733  0.6354
13150TIP3    H260866   1.348   6.043  11.956  0.7023 -0.8699  1.0262
13151TIP3   OH260867   0.658   6.298  13.850 -0.5923  0.2186 -0.3581
13151TIP3    H160868   0.626   6.229  13.792 -4.8709 -0.8345  2.6847
13151TIP3    H260869   0.631   6.379  13.808  0.6036 -0.1478 -1.9271
13152TIP3   OH260870   6.027   3.449   3.785 -0.0420  0.0352  0.0947
13152TIP3    H160871   5.977   3.410   3.857 -0.8370  0.3897 -0.2573
13152TIP3    H260872   6.079   3.518   3.826  0.1047 -0.2798  0.4479
13153TIP3   OH260873   5.629   6.631  13.301  0.4025  0.0658 -0.3382
13153TIP3    H160874   5.684   6.641  13.223 -2.5866  0.2461 -2.5880
13153TIP3    H260875   5.593   6.718  13.316  0.3060 -0.1515  0.8197
13154TIP3   OH260876   1.176   0.286   6.355 -0.3139 -0.0273  0.3957
13154TIP3    H160877   1.237   0.351   6.391  0.4258 -1.3501  1.6712
13154TIP3    H260878   1.097   0.297   6.407 -0.6844  0.7539 -0.3173
13155TIP3   OH260879   3.154   3.695   0.141 -0.0335 -0.1290 -0.3193
13155TIP3    H160880   3.138   3.699   0.235 -1.8328  0.9801 -0.6230
13155TIP3    H260881   3.162   3.602   0.121  1.8906 -0.3315  1.1172
13156TIP3   OH260882   1.112   1.877  14.600  0.4062 -0.4873 -0.5837
13156TIP3    H160883   1.113   1.783  14.584 -0.0937 -0.5985 -0.0212
13156TIP3    H260884   1.081   1.885  14.691 -0.7376  0.2656 -1.0234
13157TIP3   OH260885   4.412   3.309  12.412 -0.2512 -1.1958  0.0378
13157TIP3    H160886   4.423   3.215  12.423 -0.2243 -1.1653  0.2687
13157TIP3    H260887   4.370   3.338  12.493  0.5610 -0.8641  0.3431
13158TIP3   OH260888   4.864   6.216  15.086  0.1898 -0.6385  0.2013
13158TIP3    H160889   4.855   6.149  15.018  1.5454  0.2072 -0.8772
13158TIP3    H260890   4.896   6.168  15.163  0.6276 -1.3107 -0.3903
13159TIP3   OH260891   5.274   6.714  12.337  0.0710 -0.1042 -0.2752
13159TIP3    H160892   5.229   6.629  12.333 -0.2939  0.1284 -2.4450
13159TIP3    H260893   5.347   6.705  12.276  0.6402  0.8314  0.2414
13160TIP3   OH260894   1.729   0.277  15.867  0.6167  0.2790 -0.1147
13160TIP3    H160895   1.673   0.283  15.944  1.4213  1.0632  0.4327
13160TIP3    H260896   1.669   0.261  15.794 -0.4099  1.8186  0.3425
13161TIP3   OH260897   3.994   3.623   0.118  0.0612  0.8161  0.0245
13161TIP3    H160898   4.044   3.675   0.180  0.4870  0.8908 -0.3779
13161TIP3    H260899   4.012   3.663   0.033  1.5229 -0.8153 -0.4973
13162TIP3   OH260900   0.738   6.236  17.145  0.2362  0.2208  0.5193
13162TIP3    H160901   0.722   6.329  17.129 -1.0255 -0.0191  0.2994
13162TIP3    H260902   0.675   6.191  17.090 -0.3321 -0.7311  1.8903
13163TIP3   OH260903   1.938   1.388   4.363 -0.1049 -0.0891 -0.1504
13163TIP3    H160904   1.902   1.368   4.450 -1.2795  0.5450 -0.4714
13163TIP3    H260905   2.005   1.454   4.380 -0.5344  0.2516  0.2486
13164TIP3   OH260906   5.269   0.771  14.704  0.5402  0.2738 -0.6694
13164TIP3    H160907   5.185   0.802  14.735  0.9450  1.0045 -0.2751
13164TIP3    H260908   5.295   0.704  14.767  0.4187  0.3073 -0.5842
13165TIP3   OH260909   1.876   1.304   3.405 -0.8159  0.7128  0.3124
13165TIP3    H160910   1.809   1.290   3.338 -0.6548  0.3892  0.2188
13165TIP3    H260911   1.856   1.391   3.441  0.5465  2.0243 -1.8581
13166TIP3   OH260912   3.759   4.218   6.366 -0.3327 -0.6664  0.5571
13166TIP3    H160913   3.679   4.188   6.410  0.6534 -0.2415  2.7992
13166TIP3    H260914   3.827   4.160   6.400  0.3959 -0.7923 -1.0414
13167TIP3   OH260915   4.872   6.307   1.579 -0.2528  0.4780  0.0454
13167TIP3    H160916   4.958   6.268   1.588 -1.5423 -2.6349  0.0441
13167TIP3    H260917   4.843   6.323   1.669 -0.9805 -1.7213  0.2422
13168TIP3   OH260918   1.075   5.443  15.344  0.1254  0.4010  0.1466
13168TIP3    H160919   1.029   5.459  15.426 -1.3004 -1.5200 -0.2141
13168TIP3    H260920   1.007   5.443  15.277  1.0434  0.3400 -0.8116
13169TIP3   OH260921   6.158   6.587  11.176 -0.1051  0.0662  0.4193
13169TIP3    H160922   6.243   6.593  11.134 -0.5715  0.0167 -0.5527
13169TIP3    H260923   6.123   6.502  11.149  0.2072 -0.6616  2.1442
13170TIP3   OH260924   6.251   6.565  14.214 -0.0010  0.0886  0.4967
13170TIP3    H160925   6.179   6.587  14.154  0.6953  0.9955 -0.0323
13170TIP3    H260926   6.328   6.608  14.176  0.9614 -1.3807  0.7102
13171TIP3   OH260927   2.879   5.871  12.779 -0.0689 -0.4661 -0.3103
13171TIP3    H160928   2.851   5.805  12.842  0.7494  0.5221  1.1389
13171TIP3    H260929   2.798   5.901  12.738 -0.9105  0.4349  1.8721
13172TIP3   OH260930   5.728   1.042   5.372  0.1272 -0.3420  0.5487
13172TIP3    H160931   5.661   0.983   5.337 -0.6079 -0.3852  1.9438
13172TIP3    H260932   5.682   1.124   5.389  0.1908 -0.6406  2.3298
13173TIP3   OH260933   3.686   6.592   0.029  0.4649  0.3585  0.2525
13173TIP3    H160934   3.695   6.563  -0.062  1.3889  0.1851  0.3932
13173TIP3    H260935   3.633   6.524   0.071  0.5883  0.1104  0.0029
13174TIP3   OH260936   1.241   3.426  10.986 -0.3180  0.7373 -0.0884
13174TIP3    H160937   1.244   3.349  10.930  0.3895  0.2735  0.5558
13174TIP3    H260938   1.163   3.473  10.959  0.0067  0.5335 -1.4617
13175TIP3   OH260939   1.862   6.094  15.067  0.2849  0.3876 -0.0711
13175TIP3    H160940   1.774   6.073  15.036  1.0187  0.0809 -2.0742
13175TIP3    H260941   1.856   6.185  15.095 -0.5620  0.5140 -0.6085
13176TIP3   OH260942   6.592   0.199   2.191 -0.4011 -1.0689  0.5147
13176TIP3    H160943   6.550   0.280   2.161 -0.7445 -1.8481 -1.2465
13176TIP3    H260944   6.652   0.228   2.260 -0.4131  0.7188 -0.1565
13177TIP3   OH260945   3.487   6.519   1.370  0.0194  0.0877  0.1441
13177TIP3    H160946   3.527   6.463   1.303  1.8210  0.6925  0.6573
13177TIP3    H260947   3.555   6.582   1.392 -1.4413  1.5349  0.6872
13178TIP3   OH260948   4.713   1.545  16.863  0.0727 -0.8932  0.3155
13178TIP3    H160949   4.721   1.580  16.774  0.2062 -0.6123  0.4364
13178TIP3    H260950   4.622   1.562  16.888 -0.2189 -1.8060 -0.1137
13179TIP3   OH260951   1.738   1.198  15.752 -0.0073 -0.3166 -0.1244
13179TIP3    H160952   1.660   1.244  15.721  0.6027 -0.5744 -2.2084
13179TIP3    H260953   1.718   1.174  15.842 -2.4801 -0.7151 -0.7136
13180TIP3   OH260954   4.148   3.518  15.777  0.1711  0.1105 -0.4005
13180TIP3    H160955   4.154   3.573  15.855  0.7966  0.6460 -0.8173
13180TIP3    H260956   4.057   3.530  15.747  0.3254  1.0021 -0.5389
13181TIP3   OH260957   0.902   5.446   3.724  0.1752 -0.5150 -0.6579
13181TIP3    H160958   0.940   5.481   3.805 -0.9093 -1.8671  0.4836
13181TIP3    H260959   0.966   5.469   3.656  0.9181  1.0126  0.4912
13182TIP3   OH260960   2.150   3.633   3.934 -0.6716 -0.1955  0.4636
13182TIP3    H160961   2.104   3.715   3.952 -1.8839 -0.8112  0.2521
13182TIP3    H260962   2.157   3.629   3.838  0.3236  0.1441  0.5057
13183TIP3   OH260963   5.930   6.571   1.361 -0.3645  0.4153 -0.3917
13183TIP3    H160964   5.910   6.530   1.277  1.7179  1.6016 -1.5582
13183TIP3    H260965   5.957   6.499   1.417  0.3940 -0.1519 -1.4584
13184TIP3   OH260966   1.426   3.629  10.998  0.1453  0.1994 -0.0557
13184TIP3    H160967   1.384   3.549  10.968  0.6838  0.4413 -1.5307
13184TIP3    H260968   1.511   3.601  11.033  0.9904  0.2398 -1.9600
13185TIP3   OH260969   1.155   4.033   2.919 -0.4255 -0.0015  0.0526
13185TIP3    H160970   1.110   3.969   2.975 -1.1023  0.6331  0.2545
13185TIP3    H260971   1.112   4.116   2.939  2.3891  1.1363  2.0310
13186TIP3   OH260972   4.833   0.979   3.064 -0.1153 -0.1186  0.2261
13186TIP3    H160973   4.812   0.911   3.127 -2.5533  0.4414  0.1069
13186TIP3    H260974   4.823   0.936   2.979 -1.4492  0.2752  0.1566
13187TIP3   OH260975   5.946   5.762   0.626 -0.3041 -0.0667  0.6349
13187TIP3    H160976   5.901   5.682   0.596  0.3991  0.1419 -1.1156
13187TIP3    H260977   5.977   5.740   0.714 -0.1822 -1.7170  0.2210
13188TIP3   OH260978   1.299   0.987   2.226 -0.1957 -0.4002  0.2385
13188TIP3    H160979   1.381   1.025   2.195 -0.8536  1.6051  0.8088
13188TIP3    H260980   1.236   1.007   2.156 -0.6551 -0.0031  0.7581
13189TIP3   OH260981   3.356   0.562  12.384  0.4883 -0.5658 -0.0829
13189TIP3    H160982   3.391   0.629  12.443  0.3767  1.4564 -2.1947
13189TIP3    H260983   3.263   0.556  12.407  0.1707  1.0867 -0.7649
13190TIP3   OH260984   6.384   2.751  16.554  0.1016  0.0393  0.1853
13190TIP3    H160985   6.444   2.800  16.610  0.6989  1.2166 -1.4297
13190TIP3    H260986   6.304   2.742  16.607  0.9313  0.3352  1.5385
13191TIP3   OH260987   2.521   0.390   1.673 -0.8438 -0.6056 -0.4444
13191TIP3    H160988   2.566   0.411   1.591  2.8943 -2.6862  0.8516
13191TIP3    H260989   2.529   0.295   1.681 -1.9609 -0.5732  1.9319
13192TIP3   OH260990   1.921   3.123  16.780 -0.1282  0.3701  0.0743
13192TIP3    H160991   1.909   3.140  16.873 -1.8117  0.8301 -0.1790
13192TIP3    H260992   1.832   3.109  16.747  0.3642  0.8650 -1.5746
13193TIP3   OH260993   4.992   2.276   3.489  0.0977  0.0598 -0.1997
13193TIP3    H160994   5.027   2.365   3.493 -0.3864  0.2019  2.6133
13193TIP3    H260995   5.057   2.228   3.437  1.4277  1.6039 -0.0625
13194TIP3   OH260996   5.285   0.428   4.179 -0.0568 -0.1904  0.0394
13194TIP3    H160997   5.264   0.350   4.230  0.7104 -0.0302  0.6161
13194TIP3    H260998   5.305   0.396   4.091  3.0020 -0.9896  0.9304
13195TIP3   OH260999   1.785   5.337  12.046 -0.4037 -0.2872  0.1774
13195TIP3    H161000   1.806   5.418  11.999  2.0774 -1.5090 -1.0143
13195TIP3    H261001   1.754   5.277  11.978 -0.2483 -0.9531  0.6834
13196TIP3   OH261002   2.981   4.492  16.746  0.2048 -0.0155 -0.2719
13196TIP3    H161003   2.951   4.582  16.735 -0.2986 -0.0702  0.6092
13196TIP3    H261004   2.938   4.444  16.675 -0.5771  0.1981  0.0524
13197TIP3   OH261005   4.979   2.326   5.712 -0.7663 -0.2674 -0.2707
13197TIP3    H161006   4.991   2.419   5.731  2.6801 -0.6595  0.1288
13197TIP3    H261007   4.921   2.294   5.782  0.4231  1.0413  1.3945
13198TIP3   OH261008   0.443   5.379  14.010  0.0639 -0.1157 -0.0633
13198TIP3    H161009   0.374   5.429  14.052 -1.3934 -1.9457 -0.1641
13198TIP3    H261010   0.412   5.365  13.920  0.7441 -0.6181 -0.2319
13199TIP3   OH261011   5.910   5.859  15.638  0.1742 -0.2071  0.6733
13199TIP3    H161012   5.917   5.932  15.699  0.5106  0.0845  0.2958
13199TIP3    H261013   5.876   5.898  15.557 -1.6987 -0.8488  1.1154
13200TIP3   OH261014   1.577   3.121   4.724  0.3038 -0.2205  1.1741
13200TIP3    H161015   1.494   3.074   4.730  0.6700 -0.8225  1.5786
13200TIP3    H261016   1.640   3.056   4.692  0.5133  0.3667  0.3772
13201TIP3   OH261017   0.847   3.437  13.545  0.6429 -0.0462 -0.3259
13201TIP3    H161018   0.926   3.389  13.570  0.3841  0.4133  1.5105
13201TIP3    H261019   0.829   3.495  13.619 -2.7869 -1.8287  0.4546
13202TIP3   OH261020   5.764   2.818   2.712  0.3219  0.1869 -0.1952
13202TIP3    H161021   5.672   2.818   2.686  0.1070 -0.8761  0.4857
13202TIP3    H261022   5.807   2.877   2.650 -0.7359  0.3317 -0.8099
13203TIP3   OH261023   2.339   1.683   3.137 -0.1206 -0.2500 -0.0408
13203TIP3    H161024   2.283   1.621   3.184  1.3410 -0.3256  1.7100
13203TIP3    H261025   2.318   1.768   3.175  1.1853 -0.3304  0.9429
13204TIP3   OH261026   0.899   3.867  11.250  0.1065 -0.4961  1.2729
13204TIP3    H161027   0.919   3.945  11.198  2.7053 -1.2047  1.0439
13204TIP3    H261028   0.907   3.794  11.188  0.0319 -1.1163  1.9744
13205TIP3   OH261029   3.170   4.130  15.664 -0.7968  0.0182  0.6129
13205TIP3    H161030   3.215   4.085  15.736  1.1114 -0.2731 -0.6699
13205TIP3    H261031   3.143   4.214  15.701  0.4691  0.0313  1.5899
13206TIP3   OH261032   4.575   4.581   5.848  0.0890  0.7033 -0.1579
13206TIP3    H161033   4.598   4.561   5.939 -2.3668 -0.9521  0.1806
13206TIP3    H261034   4.604   4.672   5.836  3.6416 -0.1019  1.0890
13207TIP3   OH261035   0.878   5.420  16.342 -0.2713  0.3445  0.1843
13207TIP3    H161036   0.818   5.369  16.287 -0.4737  2.0309 -1.2510
13207TIP3    H261037   0.830   5.500  16.361  0.7063  0.7795  0.8714
13208TIP3   OH261038   2.811   2.175   5.964  0.0735  0.1226 -0.1911
13208TIP3    H161039   2.824   2.263   5.998 -2.0545  0.4476 -0.0744
13208TIP3    H261040   2.820   2.118   6.040 -1.7473  0.5713  0.3981
13209TIP3   OH261041   2.890   3.817   1.378  0.0656 -0.8903  0.6527
13209TIP3    H161042   2.979   3.804   1.411 -0.0070 -2.2593  0.3603
13209TIP3    H261043   2.836   3.830   1.456  0.4345 -0.5914  0.8602
13210TIP3   OH261044   3.807   3.079   0.493  0.3040 -0.3342 -0.4375
13210TIP3    H161045   3.819   2.998   0.544  1.8258  0.0792 -0.1077
13210TIP3    H261046   3.766   3.049   0.411 -0.2691 -1.2700  0.1599
13211TIP3   OH261047   1.854   2.066  16.517 -0.0407  0.6277  0.0600
13211TIP3    H161048   1.779   2.099  16.565  1.8480  3.7001  1.2356
13211TIP3    H261049   1.914   2.034  16.584  0.5072  0.0611 -0.6735
13212TIP3   OH261050   5.329   6.044   1.165 -0.1712  0.2731 -0.0952
13212TIP3    H161051   5.375   6.059   1.083 -0.5333  2.4968  0.0477
13212TIP3    H261052   5.240   6.019   1.139 -0.3626  1.2353 -0.4038
13213TIP3   OH261053   4.575   0.319   1.903 -0.1231  0.2963 -0.2220
13213TIP3    H161054   4.511   0.344   1.969 -1.2983 -1.8611 -0.4386
13213TIP3    H261055   4.590   0.225   1.919  0.2312 -0.0802 -2.4449
13214TIP3   OH261056   5.665   1.512   3.172  0.3965 -0.4030  0.5306
13214TIP3    H161057   5.615   1.590   3.149  1.8098  0.0486 -1.3239
13214TIP3    H261058   5.600   1.441   3.176 -0.6527  0.5229  0.3496
13215TIP3   OH261059   1.394   1.164  12.174 -0.5019  0.1436 -0.4131
13215TIP3    H161060   1.468   1.138  12.229 -0.6863  0.3231 -0.0796
13215TIP3    H261061   1.431   1.172  12.086  0.1193  1.3354 -0.0583
13216TIP3   OH261062   0.539   0.401  14.845  0.4870  0.1963 -0.4125
13216TIP3    H161063   0.621   0.381  14.890  0.9851 -1.3388 -1.8861
13216TIP3    H261064   0.478   0.333  14.875 -0.4231  1.5664  0.9902
13217TIP3   OH261065   1.704   2.960   2.689  0.1527  0.5901 -0.1712
13217TIP3    H161066   1.647   3.028   2.725  0.7055  1.6112 -1.1836
13217TIP3    H261067   1.671   2.946   2.600 -1.3118 -2.0248  0.6821
13218TIP3   OH261068   3.770   1.988  14.412 -0.6675 -0.2324  0.4262
13218TIP3    H161069   3.703   1.960  14.474 -0.5380 -1.3982  0.0456
13218TIP3    H261070   3.852   1.986  14.462 -0.5496 -1.2603  0.2068
13219TIP3   OH261071   2.470   1.743  15.813 -0.4411 -0.0228  0.0459
13219TIP3    H161072   2.551   1.737  15.763 -0.0173 -0.7086  0.7997
13219TIP3    H261073   2.488   1.695  15.894 -1.1140  1.0349  0.8571
13220TIP3   OH261074   5.406   6.143   4.500 -0.0157 -0.2133  0.3036
13220TIP3    H161075   5.501   6.155   4.499 -0.0341 -0.0554 -0.2611
13220TIP3    H261076   5.375   6.194   4.425 -1.0290  3.8267  3.1225
13221TIP3   OH261077   3.278   2.381  15.702  0.1996  0.2670  0.0764
13221TIP3    H161078   3.342   2.312  15.719 -0.1939  0.0152  0.5738
13221TIP3    H261079   3.283   2.437  15.779 -2.1975 -1.3408  1.5320
13222TIP3   OH261080   1.952   4.409  11.146 -0.5433 -0.0644 -0.2350
13222TIP3    H161081   1.942   4.495  11.187 -2.1951 -0.5687  0.5247
13222TIP3    H261082   1.866   4.390  11.108 -0.8171 -2.1002  1.1779
13223TIP3   OH261083   1.784   0.615   0.740  0.5132 -0.0620 -0.6081
13223TIP3    H161084   1.714   0.608   0.675  1.0642 -1.2952 -1.1072
13223TIP3    H261085   1.864   0.594   0.692  0.9712 -0.6989  0.3778
13224TIP3   OH261086   6.461   5.086  11.734 -0.6674 -0.1549 -0.2435
13224TIP3    H161087   6.502   5.098  11.820 -1.5179  0.9628  0.0339
13224TIP3    H261088   6.456   4.991  11.723  0.8508 -0.3229  0.2395
13225TIP3   OH261089   2.310   2.842   1.269 -0.0179 -0.6501 -0.3187
13225TIP3    H161090   2.257   2.764   1.252  1.7546 -1.4635 -2.5371
13225TIP3    H261091   2.356   2.821   1.351 -0.9551 -1.1198  0.1081
13226TIP3   OH261092   2.519   6.229   6.152  0.5182 -0.2319  0.0471
13226TIP3    H161093   2.477   6.150   6.117 -0.3422  1.3671 -2.8818
13226TIP3    H261094   2.535   6.209   6.244 -1.6460 -2.9835 -0.0434
13227TIP3   OH261095   2.558   1.360  16.206 -0.1581  0.1978 -0.4179
13227TIP3    H161096   2.539   1.268  16.223 -0.7358  0.2632 -0.6789
13227TIP3    H261097   2.490   1.407  16.255 -0.1151  0.4710 -0.6221
13228TIP3   OH261098   3.033   2.960   4.519 -0.5342 -0.0575 -0.2434
13228TIP3    H161099   2.948   2.955   4.476 -0.8354  1.1251  0.1717
13228TIP3    H261100   3.029   2.892   4.587 -0.8089 -0.5774 -0.7682
13229TIP3   OH261101   6.030   3.157   2.576 -0.1686 -0.0051  0.1352
13229TIP3    H161102   6.041   3.177   2.482  1.6498 -1.2878  0.0072
13229TIP3    H261103   5.952   3.103   2.580 -0.8734  0.9276 -0.4810
13230TIP3   OH261104   3.994   6.389  13.464  0.6091 -0.2912 -0.3011
13230TIP3    H161105   3.999   6.353  13.552  1.3097  1.0252  0.2216
13230TIP3    H261106   4.074   6.359  13.420  0.5772 -0.4019 -0.2840
13231TIP3   OH261107   5.474   3.754  13.386 -0.5787 -0.2471  0.4894
13231TIP3    H161108   5.422   3.812  13.442 -0.0273  2.2240 -1.3777
13231TIP3    H261109   5.413   3.726  13.318 -0.4065 -0.4668  0.4239
13232TIP3   OH261110   0.763   2.920  17.027 -0.1126  0.3502  0.2523
13232TIP3    H161111   0.814   2.885  16.953  1.3630  1.9772  0.4202
13232TIP3    H261112   0.762   3.015  17.012 -1.2689  0.5540  1.4350
13233TIP3   OH261113   5.702   2.078  11.975 -0.1789 -0.0318 -0.3706
13233TIP3    H161114   5.678   1.987  11.995 -0.1014  0.0456  0.0925
13233TIP3    H261115   5.678   2.090  11.883  1.9843 -1.2334 -1.1407
13234TIP3   OH261116   0.664   1.717   2.158  0.5131  0.4008  0.7072
13234TIP3    H161117   0.743   1.689   2.111  0.5193  3.5364 -1.4986
13234TIP3    H261118   0.667   1.812   2.154 -2.7268  0.6607  1.7282
13235TIP3   OH261119   6.251   2.857  14.859  0.0898  0.5477  0.5302
13235TIP3    H161120   6.163   2.832  14.829  0.5977 -0.9894  0.2851
13235TIP3    H261121   6.310   2.815  14.797  1.0594  0.1726  1.6934
13236TIP3   OH261122   6.575   1.532  12.162  0.4809  0.5252  0.1165
13236TIP3    H161123   6.631   1.609  12.175  0.9181  0.1161  0.6942
13236TIP3    H261124   6.509   1.538  12.231  0.6851  0.2350  0.3400
13237TIP3   OH261125   6.027   2.503   6.071 -0.4603  0.1008 -0.4067
13237TIP3    H161126   6.025   2.483   5.978 -2.2017  1.2682 -0.6635
13237TIP3    H261127   5.960   2.445   6.109 -0.6494  0.5141 -0.0995
13238TIP3   OH261128   5.174   4.255   6.499  0.1250  0.1231  0.5015
13238TIP3    H161129   5.100   4.195   6.508  0.3211 -0.2851 -0.4890
13238TIP3    H261130   5.135   4.342   6.510 -0.5373 -0.0761 -0.1767
13239TIP3   OH261131   5.978   3.893  14.584 -0.2604 -0.2704  0.0100
13239TIP3    H161132   6.032   3.970  14.564 -0.4441 -0.0380  0.3890
13239TIP3    H261133   5.981   3.886  14.680 -2.0446  0.5964  0.1705
13240TIP3   OH261134   3.942   0.977   1.774 -0.2163 -0.3292 -0.3902
13240TIP3    H161135   3.955   0.882   1.773  1.8332 -0.1955  2.1644
13240TIP3    H261136   3.908   0.995   1.862  0.7877  1.4061 -0.3261
13241TIP3   OH261137   5.360   1.095   4.035  0.2830 -0.1558  0.2170
13241TIP3    H161138   5.449   1.097   4.070  0.8093  3.6761 -0.9325
13241TIP3    H261139   5.306   1.129   4.107  0.2160  0.4263 -0.1076
13242TIP3   OH261140   1.802   4.356   5.266 -0.8022  0.2130  0.0594
13242TIP3    H161141   1.707   4.352   5.279 -0.9277  1.6533 -0.2583
13242TIP3    H261142   1.835   4.396   5.347 -0.4315 -0.5548  0.2898
13243TIP3   OH261143   0.212   2.780  11.561  0.2505  0.3904 -0.6373
13243TIP3    H161144   0.172   2.702  11.522 -0.1929 -0.3878  1.2719
13243TIP3    H261145   0.280   2.746  11.619  2.9309  1.6478 -2.8494
13244TIP3   OH261146   2.647   2.801  14.011  0.1924 -0.0271  0.1605
13244TIP3    H161147   2.726   2.752  13.988 -0.4377 -0.2269 -1.7925
13244TIP3    H261148   2.575   2.744  13.983 -0.6620  0.2746  1.6313
13245TIP3   OH261149   1.751   3.035  13.648  0.8418 -0.0538  0.5377
13245TIP3    H161150   1.713   3.075  13.727  1.6476  1.1220  0.3542
13245TIP3    H261151   1.826   3.091  13.627  0.7503 -0.4646 -0.9525
13246TIP3   OH261152   3.348   1.057  17.003 -0.0506  0.0339 -0.3549
13246TIP3    H161153   3.282   1.123  17.024  1.1667  1.3922 -0.6948
13246TIP3    H261154   3.389   1.089  16.922 -0.9676 -2.3036 -1.8360
13247TIP3   OH261155   1.824   1.774  16.070 -0.4562 -0.2105 -0.4210
13247TIP3    H161156   1.772   1.697  16.095  1.6627 -1.2480  1.1183
13247TIP3    H261157   1.819   1.832  16.146 -1.4577  0.9138 -1.3014
13248TIP3   OH261158   1.391   0.984  15.675 -0.3694  0.2475 -0.5923
13248TIP3    H161159   1.381   0.979  15.770 -0.3521  1.1887 -0.5301
13248TIP3    H261160   1.481   0.953  15.659 -0.3038  0.2720 -0.2855
13249TIP3   OH261161   3.948   0.217  14.533  0.6249  0.3663 -0.4823
13249TIP3    H161162   3.870   0.253  14.491  0.3637 -1.3421 -1.5479
13249TIP3    H261163   3.916   0.138  14.578  1.5099  0.3879  0.2120
13250TIP3   OH261164   1.865   5.816  14.497 -0.2657  0.3667 -0.7690
13250TIP3    H161165   1.833   5.901  14.527  2.2517  1.3959 -0.7643
13250TIP3    H261166   1.877   5.827  14.402  0.7095  0.2709 -0.6668
13251TIP3   OH261167   0.405   2.649   5.048  0.4640 -0.7220 -0.1092
13251TIP3    H161168   0.328   2.597   5.025  0.4643 -0.4593 -0.7266
13251TIP3    H261169   0.382   2.691   5.131 -0.0229 -0.7204 -0.2450
13252TIP3   OH261170   1.825   5.903  14.245 -0.0080  0.2463  0.1592
13252TIP3    H161171   1.732   5.918  14.228  0.0763  0.6574  0.0478
13252TIP3    H261172   1.865   5.990  14.241  1.0346 -0.1995 -3.6867
13253TIP3   OH261173   3.525   3.181  14.716 -0.3013  0.2379 -0.5834
13253TIP3    H161174   3.533   3.273  14.691  1.5199  0.5598  0.9828
13253TIP3    H261175   3.510   3.135  14.633 -0.3660  1.8280 -1.4997
13254TIP3   OH261176   0.571   2.635   4.625 -0.4103 -0.0604 -0.6102
13254TIP3    H161177   0.606   2.717   4.591 -4.7444  2.4739  0.3004
13254TIP3    H261178   0.544   2.586   4.547 -1.8456  1.5011 -1.1386
13255TIP3   OH261179   4.916   4.281   4.571  0.3467  0.1350  0.1225
13255TIP3    H161180   4.936   4.366   4.532  0.1920  0.6662  1.1715
13255TIP3    H261181   4.972   4.277   4.649  0.3945 -0.7507  0.0543
13256TIP3   OH261182   2.904   5.073   2.606  0.4196 -0.5374 -0.0441
13256TIP3    H161183   2.916   5.164   2.577 -1.9739 -0.1142  0.0425
13256TIP3    H261184   2.860   5.081   2.691  0.3953 -1.7721  0.0716
13257TIP3   OH261185   6.387   5.141   6.436 -0.2043 -0.1524  0.0871
13257TIP3    H161186   6.384   5.080   6.510 -0.8775 -1.4605 -0.9708
13257TIP3    H261187   6.329   5.212   6.461  1.3201  0.5779  1.7465
13258TIP3   OH261188   1.905   5.657   4.248 -0.3620 -0.0129  0.0907
13258TIP3    H161189   1.859   5.673   4.166 -0.7168  0.6922  0.4139
13258TIP3    H261190   1.855   5.586   4.290 -0.7492  0.2680  0.1172
13259TIP3   OH261191   3.219   0.499  15.535 -0.0853  0.4430  0.3995
13259TIP3    H161192   3.308   0.494  15.499  0.2108 -1.7293  1.2593
13259TIP3    H261193   3.221   0.574  15.594  0.9228  0.9439 -0.2532
13260TIP3   OH261194   0.818   5.980   0.799 -0.8829  0.0724 -0.4893
13260TIP3    H161195   0.893   5.926   0.772  0.0131  1.9842 -2.0417
13260TIP3    H261196   0.748   5.956   0.739 -0.2854  1.0441 -1.6100
13261TIP3   OH261197   6.491   5.248   1.813  0.1902 -0.1164  0.1080
13261TIP3    H161198   6.532   5.334   1.803  0.7280 -0.6340 -3.2200
13261TIP3    H261199   6.483   5.236   1.907  1.6402  2.8517  0.7159
13262TIP3   OH261200   3.624   0.525  13.140 -0.0318 -0.3827  0.1889
13262TIP3    H161201   3.541   0.478  13.146 -0.3271  0.0448 -0.4600
13262TIP3    H261202   3.634   0.568  13.224 -0.5194 -0.3463  0.2270
13263TIP3   OH261203   1.777   6.260   1.604  0.3310  0.1990  0.7049
13263TIP3    H161204   1.785   6.200   1.529  1.1972  0.4453  0.5959
13263TIP3    H261205   1.809   6.344   1.571  1.3773  0.1452  1.5315
13264TIP3   OH261206   5.801   4.217   2.949  0.0109  0.6393 -0.1087
13264TIP3    H161207   5.888   4.245   2.920  0.0044  0.1774 -0.5894
13264TIP3    H261208   5.803   4.121   2.940 -0.2967  0.5625  0.5774
13265TIP3   OH261209   1.523   6.260  16.573 -0.0834 -0.2483 -0.6806
13265TIP3    H161210   1.611   6.243  16.608 -0.2090 -2.6881 -1.3717
13265TIP3    H261211   1.490   6.174  16.549 -2.1409  0.7734 -1.7492
13266TIP3   OH261212   1.323   1.436   4.845  0.1653  0.3849  0.6535
13266TIP3    H161213   1.266   1.369   4.806  2.7984 -0.7462 -1.6064
13266TIP3    H261214   1.310   1.427   4.939 -0.3643 -2.6259  0.3888
13267TIP3   OH261215   3.104   0.560   0.427 -0.3075  0.3004  0.6311
13267TIP3    H161216   3.171   0.607   0.477  0.1822  0.1697  0.1155
13267TIP3    H261217   3.101   0.606   0.343  0.6879 -0.9717 -0.1596
13268TIP3   OH261218   3.631   1.382   2.228 -0.1982  0.4356 -0.2015
13268TIP3    H161219   3.654   1.372   2.320 -3.9395 -2.0595  0.7366
13268TIP3    H261220   3.654   1.297   2.188 -0.1354  0.8894 -1.1703
13269TIP3   OH261221   2.557   0.094  11.167 -0.0001  0.3487  0.5236
13269TIP3    H161222   2.522   0.124  11.083  0.2960 -0.4173  0.1104
13269TIP3    H261223   2.490   0.036  11.202  0.1349  0.1893  0.5216
13270TIP3   OH261224   5.674   0.092  14.961 -0.2340 -0.2893  0.5013
13270TIP3    H161225   5.715   0.155  15.020 -0.1616  0.0761  0.0691
13270TIP3    H261226   5.734   0.017  14.961  0.7286  0.4389 -0.5160
13271TIP3   OH261227   3.578   0.853  14.243  0.1019  0.2176 -0.1824
13271TIP3    H161228   3.645   0.900  14.193 -1.4034  2.5029 -0.2307
13271TIP3    H261229   3.511   0.831  14.178 -0.7318  1.0156  0.3770
13272TIP3   OH261230   2.657   3.294  12.861 -0.2502 -0.1571  0.6430
13272TIP3    H161231   2.683   3.207  12.893 -1.3942 -0.8098 -0.1506
13272TIP3    H261232   2.687   3.354  12.929  1.0539 -1.1039  0.9571
13273TIP3   OH261233   1.205   4.162  17.173  0.0249 -0.0867  0.6053
13273TIP3    H161234   1.162   4.232  17.222  0.0022  0.5096 -0.2263
13273TIP3    H261235   1.135   4.125  17.119  0.0086 -0.8518  1.1460
13274TIP3   OH261236   0.669   5.298  11.116 -0.0242 -0.0279  0.3468
13274TIP3    H161237   0.613   5.222  11.107  0.6520 -0.4743 -0.1974
13274TIP3    H261238   0.687   5.327  11.027  0.3792  0.2737  0.5172
13275TIP3   OH261239   0.194   2.515   0.734 -0.0670 -0.1563 -0.5285
13275TIP3    H161240   0.170   2.474   0.651 -3.2533  0.8087 -0.2053
13275TIP3    H261241   0.192   2.609   0.716  0.2611  0.0388  0.3919
13276TIP3   OH261242   3.849   6.253  16.277  0.1797 -0.2497  0.2145
13276TIP3    H161243   3.805   6.260  16.192  1.2226  2.4952 -0.1923
13276TIP3    H261244   3.936   6.290  16.263 -0.4260  2.6746  2.9625
13277TIP3   OH261245   1.938   2.964  16.297 -0.3470 -0.2572 -0.4956
13277TIP3    H161246   1.944   2.929  16.386  0.3873 -1.2247 -0.9035
13277TIP3    H261247   1.925   3.058  16.309  0.2363 -0.3006  0.6360
13278TIP3   OH261248   2.951   1.193  13.321 -0.3275 -0.6090  0.0993
13278TIP3    H161249   2.880   1.215  13.381 -1.3989 -1.8114 -0.6728
13278TIP3    H261250   2.920   1.223  13.236  1.2641  1.2592  0.1173
13279TIP3   OH261251   1.827   3.998  15.653 -0.2792  0.4393  0.3644
13279TIP3    H161252   1.900   3.993  15.591  1.0205 -2.0462  1.9199
13279TIP3    H261253   1.822   4.090  15.677 -0.1731  1.3136 -2.5595
13280TIP3   OH261254   6.449   5.358  13.041 -0.2280 -0.5206  0.4390
13280TIP3    H161255   6.438   5.407  13.122 -1.4049 -0.5641  0.3236
13280TIP3    H261256   6.375   5.298  13.039 -1.7240  1.2227 -1.8575
13281TIP3   OH261257   3.212   4.535  14.404  0.7907 -0.6146  0.2483
13281TIP3    H161258   3.130   4.574  14.374 -0.7347 -2.1188  2.1401
13281TIP3    H261259   3.241   4.593  14.475  1.3772 -0.0808 -0.4226
13282TIP3   OH261260   3.205   1.566  11.815 -0.2948  0.4305 -0.6104
13282TIP3    H161261   3.228   1.522  11.733 -0.3410 -0.2760 -0.2558
13282TIP3    H261262   3.152   1.641  11.789 -0.3796  0.1621 -1.2201
13283TIP3   OH261263   0.202   1.794  16.294 -0.0288 -0.6215  0.0817
13283TIP3    H161264   0.178   1.717  16.344  0.5085 -1.3581 -0.7687
13283TIP3    H261265   0.199   1.766  16.202 -1.1975  0.7440 -0.3459
13284TIP3   OH261266   1.721   5.487   1.777  0.6348 -0.1462  0.6772
13284TIP3    H161267   1.756   5.490   1.866 -1.1470 -0.6023  1.4476
13284TIP3    H261268   1.635   5.445   1.786  1.3164 -2.2686 -1.5898
13285TIP3   OH261269   2.847   5.751  16.663  0.1794 -0.6375 -0.3721
13285TIP3    H161270   2.868   5.682  16.601 -0.5202 -1.0525 -0.1608
13285TIP3    H261271   2.838   5.830  16.610 -3.2121 -1.4638 -1.2858
13286TIP3   OH261272   2.790   4.994   0.251 -0.4402  0.2828 -0.1357
13286TIP3    H161273   2.774   4.900   0.242 -0.5710  0.1889  0.9429
13286TIP3    H261274   2.773   5.030   0.164  0.8296 -0.8522 -0.9026
13287TIP3   OH261275   1.211   6.607  13.979  0.4106  0.2394  0.9886
13287TIP3    H161276   1.179   6.522  14.009 -1.0204  1.8422  4.5158
13287TIP3    H261277   1.131   6.655  13.955  1.3320 -0.4029 -4.7975
13288TIP3   OH261278   6.512   3.559   5.944 -0.4360  0.6979  0.0034
13288TIP3    H161279   6.488   3.651   5.956 -0.7911  1.1206 -3.0098
13288TIP3    H261280   6.429   3.512   5.941 -0.3054  0.4282  0.4418
13289TIP3   OH261281   6.522   3.241   4.066  0.1998  0.1560  0.0173
13289TIP3    H161282   6.494   3.182   4.136 -2.0051  0.2854 -0.7023
13289TIP3    H261283   6.575   3.186   4.008 -2.6277 -1.4861 -1.1763
13290TIP3   OH261284   1.979   5.422   1.007 -0.1411 -0.3477  0.5689
13290TIP3    H161285   1.969   5.421   0.912  0.4569  0.7305  0.4811
13290TIP3    H261286   1.894   5.394   1.041  0.0944 -2.2549 -0.2832
13291TIP3   OH261287   4.298   0.834  14.828 -0.0134 -0.9645  0.0944
13291TIP3    H161288   4.299   0.924  14.797  0.9768 -1.3382 -1.0467
13291TIP3    H261289   4.212   0.800  14.802 -1.3657  0.2821  2.6035
13292TIP3   OH261290   0.756   2.360   6.000 -0.6678  0.2574  0.1510
13292TIP3    H161291   0.673   2.349   5.954 -0.5062 -0.6665  0.0555
13292TIP3    H261292   0.734   2.342   6.092 -0.4602 -0.6378  0.0363
13293TIP3   OH261293   6.197   6.507   5.694  0.1400  0.5637  0.3366
13293TIP3    H161294   6.165   6.543   5.611  0.6559 -0.0688 -0.1479
13293TIP3    H261295   6.140   6.433   5.712  1.7603 -1.0563 -0.9369
13294TIP3   OH261296   5.186   1.625  14.264  0.0937  0.4208  0.1047
13294TIP3    H161297   5.164   1.588  14.350  2.2168  0.5533  0.7611
13294TIP3    H261298   5.148   1.713  14.266 -1.0290 -0.0425  0.3421
13295TIP3   OH261299   3.868   2.545   3.212 -0.5780  0.0640 -0.0728
13295TIP3    H161300   3.955   2.572   3.183 -0.4986  1.3397  1.2680
13295TIP3    H261301   3.808   2.598   3.160 -0.5783 -0.8291 -1.0108
13296TIP3   OH261302   1.061   1.745  12.841 -0.5729 -0.3520  0.6340
13296TIP3    H161303   0.978   1.791  12.839 -0.0545  0.5701 -0.0338
13296TIP3    H261304   1.042   1.665  12.891 -1.6606  0.2022  1.1507
13297TIP3   OH261305   1.544   1.506   2.682  0.4053 -0.1202 -0.6174
13297TIP3    H161306   1.587   1.556   2.612 -0.6413  0.1387 -1.0881
13297TIP3    H261307   1.571   1.415   2.666  1.4792  0.1357 -0.3738
13298TIP3   OH261308   3.830   6.597  13.477  0.3424  0.1920 -0.2907
13298TIP3    H161309   3.881   6.524  13.442  0.8342  0.4752 -0.1774
13298TIP3    H261310   3.742   6.585  13.440  0.2731 -0.7585  0.1714
13299TIP3   OH261311   4.825   1.742  13.718  0.4763  0.2962 -0.2241
13299TIP3    H161312   4.858   1.771  13.803  0.8904 -0.6662 -0.0472
13299TIP3    H261313   4.732   1.724  13.732  0.2470  1.3692 -0.3005
13300TIP3   OH261314   5.733   4.727   5.599  0.0047  0.6756  0.2452
13300TIP3    H161315   5.695   4.705   5.514  3.0186 -0.7397 -0.8852
13300TIP3    H261316   5.679   4.680   5.662 -1.0711  0.0518 -1.0868
13301TIP3   OH261317   3.490   0.130   3.158 -0.0813 -0.1352 -0.4846
13301TIP3    H161318   3.551   0.156   3.089 -0.1260  2.0023  0.2169
13301TIP3    H261319   3.484   0.206   3.216 -0.9824 -1.4197  1.2265
13302TIP3   OH261320   4.289   3.185   4.249  0.3707 -0.2873  0.6833
13302TIP3    H161321   4.380   3.212   4.262  0.0876  0.9970  0.1874
13302TIP3    H261322   4.295   3.110   4.190  1.1330 -0.4895  1.0068
13303TIP3   OH261323   6.450   4.558   4.966  0.1619 -0.3381 -0.0819
13303TIP3    H161324   6.459   4.464   4.983  1.3237 -0.5170 -1.4974
13303TIP3    H261325   6.376   4.564   4.906  1.3999 -0.6078 -1.6981
13304TIP3   OH261326   1.937   4.663   3.821 -0.2906  0.2480 -0.1607
13304TIP3    H161327   1.944   4.697   3.910  0.8334 -1.7185  0.5811
13304TIP3    H261328   1.871   4.594   3.827  0.4488 -0.5312 -0.5948
13305TIP3   OH261329   3.441   6.405  12.808  0.2006  0.4868 -1.0561
13305TIP3    H161330   3.468   6.404  12.900  0.6323 -0.9950 -1.1747
13305TIP3    H261331   3.523   6.400  12.759 -0.0317  1.2225 -1.5406
13306TIP3   OH261332   4.206   1.839   1.818 -0.5539  0.4167  0.9090
13306TIP3    H161333   4.208   1.749   1.850  2.1972 -0.1238 -0.5219
13306TIP3    H261334   4.286   1.879   1.852 -1.0320  1.9011  0.3838
13307TIP3   OH261335   1.538   2.407  16.673 -0.2000  0.1913 -0.5923
13307TIP3    H161336   1.466   2.447  16.626 -0.8177  1.0040  0.9849
13307TIP3    H261337   1.615   2.458  16.649 -0.6443  1.0881 -0.1399
13308TIP3   OH261338   3.716   4.518   3.058  0.4743 -0.5119 -0.8139
13308TIP3    H161339   3.727   4.523   3.153 -0.6200  0.6596 -0.7216
13308TIP3    H261340   3.622   4.510   3.045  0.5272  0.3036 -1.8236
13309TIP3   OH261341   2.220   4.411  14.370 -0.7687 -0.8550 -0.0724
13309TIP3    H161342   2.232   4.445  14.459 -1.4435  0.5527 -0.4978
13309TIP3    H261343   2.177   4.326  14.384 -1.4033 -0.3948  0.9377
13310TIP3   OH261344   6.431   6.628   3.713 -0.4730 -0.6282  0.0040
13310TIP3    H161345   6.337   6.621   3.727 -0.0843 -1.1357  3.0857
13310TIP3    H261346   6.456   6.707   3.762  0.6703 -0.3208 -1.0425
13311TIP3   OH261347   0.113   2.639  17.261  0.0780  0.0339 -0.0400
13311TIP3    H161348   0.023   2.633  17.291  0.0514  0.3684 -0.0486
13311TIP3    H261349   0.166   2.615  17.337  0.0022  0.6097  0.1936
13312TIP3   OH261350   1.788   6.313  14.027 -0.6223  0.4545  0.2529
13312TIP3    H161351   1.801   6.376  13.957 -0.0201 -0.1193 -0.1589
13312TIP3    H261352   1.718   6.255  13.995 -0.0146 -0.1005 -0.0877
13313TIP3   OH261353   5.007   3.590  15.179  0.1521  0.0197  0.5607
13313TIP3    H161354   5.068   3.581  15.106  1.8365 -2.1381  2.0722
13313TIP3    H261355   4.957   3.669  15.160 -1.1022 -1.5611 -4.0326
13314TIP3   OH261356   2.675   0.506  14.790 -0.3988 -0.1118 -0.1348
13314TIP3    H161357   2.628   0.422  14.793 -0.7865  0.0835 -0.6811
13314TIP3    H261358   2.608   0.571  14.771  0.0499  0.2008 -0.7041
13315TIP3   OH261359   2.186   2.440   5.478 -0.3539 -0.6875  0.1815
13315TIP3    H161360   2.196   2.358   5.429 -0.6050 -0.5008 -0.1879
13315TIP3    H261361   2.276   2.467   5.497 -0.2326 -0.4550 -0.6955
13316TIP3   OH261362   2.700   4.106   2.325  0.3502  0.4616  0.5751
13316TIP3    H161363   2.722   4.027   2.276 -2.2963 -0.7333  1.1568
13316TIP3    H261364   2.655   4.075   2.403  0.5313  2.5217  1.5698
13317TIP3   OH261365   1.089   4.998   0.271  0.0504  0.1050 -0.2902
13317TIP3    H161366   0.998   5.026   0.269 -0.3478 -1.0660  0.5322
13317TIP3    H261367   1.115   4.997   0.178 -0.1052  2.3934 -0.4250
13318TIP3   OH261368   2.076   6.436  12.909 -0.0349 -0.7600  0.5004
13318TIP3    H161369   2.083   6.357  12.963  0.6183 -0.6973  0.5151
13318TIP3    H261370   1.988   6.431  12.870  0.0878 -1.6078  0.3168
13319TIP3   OH261371   5.285   2.046  16.368  0.3485 -0.2294 -0.4004
13319TIP3    H161372   5.284   2.041  16.273  1.1610  0.6321 -0.4710
13319TIP3    H261373   5.292   2.139  16.388  2.1287 -0.4943  0.4427
13320TIP3   OH261374   5.017   5.452   4.453  0.0129  0.3278 -0.3777
13320TIP3    H161375   5.094   5.507   4.440 -0.2306  1.5792  2.6523
13320TIP3    H261376   4.951   5.511   4.490 -0.8535 -1.6063  1.3454
13321TIP3   OH261377   1.905   6.571   2.214  0.8455  0.2630 -0.0952
13321TIP3    H161378   1.836   6.559   2.149  0.6648  0.1698  0.1115
13321TIP3    H261379   1.905   6.665   2.232  2.5859  0.7181 -2.0723
13322TIP3   OH261380   4.649   0.685  12.787  0.4809  0.4136 -0.1964
13322TIP3    H161381   4.597   0.604  12.784 -0.3487  0.9457 -1.7132
13322TIP3    H261382   4.707   0.674  12.862 -0.3693 -1.1207  0.2855
13323TIP3   OH261383   5.651   4.863   5.872 -0.4329 -0.4934 -0.4702
13323TIP3    H161384   5.739   4.829   5.889 -0.9327 -2.5717 -1.7460
13323TIP3    H261385   5.664   4.928   5.802  0.0931 -0.7773 -0.6417
13324TIP3   OH261386   3.222   2.927  15.534  0.0036 -0.5443 -0.1947
13324TIP3    H161387   3.150   2.989  15.524  1.5588  0.9793 -3.8489
13324TIP3    H261388   3.183   2.851  15.578 -2.9923  1.3663  0.7590
13325TIP3   OH261389   1.500   2.334   1.251  0.0276 -0.1523 -0.2000
13325TIP3    H161390   1.490   2.240   1.268  0.5280  0.0445  1.3321
13325TIP3    H261391   1.586   2.340   1.208  0.6592 -0.2788  0.9967
13326TIP3   OH261392   6.382   3.993   3.822  0.1534 -0.7673 -0.1484
13326TIP3    H161393   6.366   4.036   3.906  0.4217 -0.3947 -0.2863
13326TIP3    H261394   6.476   3.977   3.821  0.6160  1.5827 -1.4676
13327TIP3   OH261395   5.993   6.307  13.571 -0.3161  0.3219  0.2119
13327TIP3    H161396   5.949   6.347  13.497  1.7334  3.1517  0.3544
13327TIP3    H261397   5.976   6.366  13.645  0.4794 -0.5767  1.1573
13328TIP3   OH261398   0.750   3.830   3.489 -0.0064 -0.8338  0.2289
13328TIP3    H161399   0.823   3.792   3.441 -0.8843 -3.3394  0.7297
13328TIP3    H261400   0.695   3.756   3.512 -1.3170  0.6448  2.2512
13329TIP3   OH261401   4.209   2.297  14.311 -0.8009 -0.1191  0.8201
13329TIP3    H161402   4.174   2.217  14.351 -2.4240 -0.4912 -1.1558
13329TIP3    H261403   4.175   2.367  14.366  0.2048 -0.7207  2.2751
13330TIP3   OH261404   1.807   3.143  14.225  0.1675 -0.8354 -0.2093
13330TIP3    H161405   1.812   3.190  14.308 -1.2141 -1.6232  0.3406
13330TIP3    H261406   1.868   3.190  14.168  0.6839  0.0879  1.0569
13331TIP3   OH261407   5.519   6.409   1.521  0.4756 -0.4538 -0.1833
13331TIP3    H161408   5.504   6.451   1.606 -0.5584  0.2339 -0.6853
13331TIP3    H261409   5.535   6.482   1.461  1.8392 -0.9642 -0.4844
13332TIP3   OH261410   0.877   1.586   4.408 -0.1970 -0.3993  0.2874
13332TIP3    H161411   0.795   1.558   4.369 -0.2278 -1.7242  1.2388
13332TIP3    H261412   0.938   1.590   4.334 -1.0139  0.2763 -0.3741
13333TIP3   OH261413   6.374   4.073  13.095  0.1663 -0.4392  0.5976
13333TIP3    H161414   6.397   4.047  13.006  0.8141  1.1743  0.2602
13333TIP3    H261415   6.388   3.994  13.148 -0.6318 -1.5331 -0.7749
13334TIP3   OH261416   3.167   5.426  11.258 -0.4219 -0.2054 -0.3449
13334TIP3    H161417   3.153   5.356  11.194  0.7355 -1.0533  0.3190
13334TIP3    H261418   3.240   5.476  11.222  0.9020 -1.2744  0.7670
13335TIP3   OH261419   4.449   1.556  12.722  0.0159 -0.3849  0.0434
13335TIP3    H161420   4.439   1.630  12.782  1.1815 -0.7910  0.7583
13335TIP3    H261421   4.464   1.481  12.778 -3.4343 -1.6870 -0.5294
13336TIP3   OH261422   1.426   6.081   4.825  0.5725  0.4821 -0.0626
13336TIP3    H161423   1.375   6.004   4.799  0.8129  0.0676  0.6782
13336TIP3    H261424   1.434   6.133   4.745 -0.5917  0.3122 -0.2983
13337TIP3   OH261425   1.238   5.874  14.682  0.0482 -0.2353 -0.0307
13337TIP3    H161426   1.158   5.891  14.733 -0.3232  0.2183 -0.7460
13337TIP3    H261427   1.206   5.842  14.597  0.6058  0.4443 -0.5033
13338TIP3   OH261428   4.284   2.339  15.160 -0.0059 -0.0399  0.5961
13338TIP3    H161429   4.199   2.327  15.202 -0.6782 -0.1445 -0.7309
13338TIP3    H261430   4.291   2.434  15.147  0.4655  0.0525  1.4277
13339TIP3   OH261431   0.481   4.103   5.740 -0.1941 -0.1886 -0.0588
13339TIP3    H161432   0.511   4.193   5.729 -0.0860 -0.2626 -0.3948
13339TIP3    H261433   0.496   4.062   5.654 -0.4582 -0.4618  0.0228
13340TIP3   OH261434   5.994   2.145   2.008 -0.3214 -0.3158 -0.1320
13340TIP3    H161435   5.908   2.130   2.048  0.0700 -1.0229  0.4632
13340TIP3    H261436   6.009   2.239   2.019  0.6515 -0.7250  3.3107
13341TIP3   OH261437   0.628   5.545   5.319 -0.1245 -0.2644  0.0355
13341TIP3    H161438   0.611   5.577   5.408  0.6660 -0.4118  0.2424
13341TIP3    H261439   0.713   5.501   5.324 -0.9755 -2.0240 -0.3553
13342TIP3   OH261440   4.600   2.703  14.364 -0.4934 -0.3215 -0.5615
13342TIP3    H161441   4.679   2.672  14.408 -1.7533 -2.0238  0.6209
13342TIP3    H261442   4.570   2.776  14.418  0.6394  0.8751 -1.4636
13343TIP3   OH261443   6.458   5.310   2.823 -0.7712  0.1196  0.1310
13343TIP3    H161444   6.408   5.390   2.807 -0.0440  0.6491  0.4285
13343TIP3    H261445   6.499   5.325   2.908 -1.5367 -1.0580  0.7208
13344TIP3   OH261446   3.796   4.653   4.719 -0.9140 -0.1942 -0.5889
13344TIP3    H161447   3.721   4.622   4.667 -0.9646  0.6775 -1.0550
13344TIP3    H261448   3.846   4.706   4.658 -1.7068  2.0313  0.5864
13345TIP3   OH261449   6.418   6.010   1.716  0.2470 -0.0577  0.3255
13345TIP3    H161450   6.329   6.044   1.718 -0.8177 -2.7295  1.2507
13345TIP3    H261451   6.425   5.965   1.632  1.0404  0.8248 -0.1028
13346TIP3   OH261452   1.392   3.356  16.108 -0.2786 -0.0279 -0.5170
13346TIP3    H161453   1.478   3.383  16.142  0.4940 -0.5406 -2.0014
13346TIP3    H261454   1.407   3.270  16.071 -1.1832  0.3369 -1.7778
13347TIP3   OH261455   1.586   1.525  12.451  0.1527  1.0260 -0.0914
13347TIP3    H161456   1.671   1.565  12.467 -0.1925  1.5394  0.5448
13347TIP3    H261457   1.590   1.492  12.362  1.2026  0.5630  0.1167
13348TIP3   OH261458   2.726   5.141   2.349  0.0835 -0.2174 -0.6140
13348TIP3    H161459   2.655   5.085   2.381  0.3159  0.5083  1.3547
13348TIP3    H261460   2.800   5.081   2.336  0.7081 -0.3430  2.6484
13349TIP3   OH261461   0.809   2.745   5.485 -0.5605  0.3267  0.6515
13349TIP3    H161462   0.734   2.710   5.437 -1.2740  2.7758 -0.1753
13349TIP3    H261463   0.771   2.808   5.546  0.8622  3.6521 -1.6302
13350TIP3   OH261464   3.013   0.268   2.049 -0.5908  0.3725  0.3727
13350TIP3    H161465   3.099   0.247   2.014  0.8577  3.1140  1.8664
13350TIP3    H261466   2.953   0.257   1.975  1.0069 -1.5087 -0.7445
13351TIP3   OH261467   2.088   3.042   3.900  0.0588  0.4283 -0.2570
13351TIP3    H161468   2.126   2.954   3.901 -1.0211 -0.0542  1.3127
13351TIP3    H261469   2.162   3.101   3.915  0.4753 -0.3687  0.9073
13352TIP3   OH261470   5.692   1.314   5.015 -0.8217 -0.1122  0.8531
13352TIP3    H161471   5.782   1.339   4.994 -0.4727  0.1965  2.5432
13352TIP3    H261472   5.680   1.229   4.974  0.9451 -1.1077  2.2504
13353TIP3   OH261473   6.701   4.289   2.405  0.1374 -0.2040  0.5583
13353TIP3    H161474   6.626   4.237   2.434 -1.1187  1.7211  1.0304
13353TIP3    H261475   6.691   4.294   2.310 -0.6871  0.4786  0.6629
13354TIP3   OH261476   0.955   2.061   4.990  0.3140  0.2321 -0.1420
13354TIP3    H161477   0.978   2.153   5.001  3.3537 -0.6450  2.0686
13354TIP3    H261478   0.960   2.047   4.895  2.3939  1.7838 -0.3403
13355TIP3   OH261479   2.294   6.414   5.441 -0.0045 -0.4362 -0.2298
13355TIP3    H161480   2.297   6.496   5.491  0.4386  0.3531 -1.4938
13355TIP3    H261481   2.299   6.345   5.507 -0.1439  0.5614  0.8490
13356TIP3   OH261482   4.355   3.391   3.060  0.4573 -0.5751  0.2059
13356TIP3    H161483   4.343   3.374   2.966  1.7011  1.3190 -0.3618
13356TIP3    H261484   4.450   3.392   3.071  0.3178 -1.1122  1.5825
13357TIP3   OH261485   6.375   5.661   0.205  0.1375 -0.1499 -0.3937
13357TIP3    H161486   6.425   5.580   0.201 -1.5120 -1.4862  2.3580
13357TIP3    H261487   6.287   5.637   0.177  0.1907  1.3870 -2.0961
13358TIP3   OH261488   5.610   0.818  16.430 -0.7660 -0.2624 -0.0685
13358TIP3    H161489   5.591   0.725  16.435 -0.5055 -0.2504  1.7212
13358TIP3    H261490   5.524   0.860  16.430 -0.9719 -0.4859 -2.6571
13359TIP3   OH261491   0.686   5.787  17.246 -0.4667  0.3811  0.0238
13359TIP3    H161492   0.635   5.754  17.320  1.7463 -1.6734  0.7951
13359TIP3    H261493   0.728   5.709  17.210  3.6520  1.9996  0.7406
13360TIP3   OH261494   1.945   3.228   6.440  0.6178  0.3187 -0.1069
13360TIP3    H161495   1.939   3.172   6.518 -0.7027  2.2001  1.2610
13360TIP3    H261496   1.863   3.212   6.393  0.8767  0.0563 -0.4671
13361TIP3   OH261497   1.934   3.182   0.364 -0.4095  0.5492  0.5258
13361TIP3    H161498   1.976   3.239   0.300  0.9133 -0.2077  0.6875
13361TIP3    H261499   2.006   3.140   0.410 -1.2729 -2.3781 -0.5439
13362TIP3   OH261500   0.475   6.044  15.224  0.1567 -0.0697 -0.0261
13362TIP3    H161501   0.458   6.030  15.317 -0.9703 -0.8732 -0.3323
13362TIP3    H261502   0.430   6.125  15.202 -0.8634 -0.6741 -0.1961
13363TIP3   OH261503   5.299   0.158  13.533 -0.7999  0.2867 -0.1256
13363TIP3    H161504   5.328   0.069  13.511 -2.1108  0.2523 -1.9358
13363TIP3    H261505   5.365   0.215  13.493 -1.3011  0.1447 -1.1983
13364TIP3   OH261506   0.729   0.602  16.995  0.1806  0.4628 -0.4878
13364TIP3    H161507   0.801   0.659  16.968 -0.9291  2.6545  0.8616
13364TIP3    H261508   0.771   0.527  17.036  1.7328  1.6488  0.2026
13365TIP3   OH261509   6.673   5.220  14.296 -0.0989  0.5237 -0.2469
13365TIP3    H161510   6.587   5.200  14.258 -0.0272  1.1428 -0.7379
13365TIP3    H261511   6.733   5.217  14.222  0.4505 -0.7256  0.2251
13366TIP3   OH261512   3.337   1.164  14.852 -0.2237 -0.4896  0.1014
13366TIP3    H161513   3.337   1.173  14.757  0.5946  0.5988  0.1855
13366TIP3    H261514   3.310   1.250  14.885  1.5702 -0.1542  0.8621
13367TIP3   OH261515   6.644   2.462  12.837 -0.2938 -0.4071 -0.0834
13367TIP3    H161516   6.579   2.474  12.767 -0.6922  1.0651  0.5010
13367TIP3    H261517   6.726   2.445  12.790 -0.6098  0.2743 -0.9224
13368TIP3   OH261518   0.270   0.601  15.050  0.0468  0.8441  0.0364
13368TIP3    H161519   0.280   0.512  15.084 -1.0779 -0.6189 -3.0148
13368TIP3    H261520   0.358   0.636  15.047  0.6981 -0.7074  0.0644
13369TIP3   OH261521   4.685   5.182  13.796 -0.2483 -0.2620  0.0858
13369TIP3    H161522   4.776   5.210  13.796 -0.6749  1.2583  0.8262
13369TIP3    H261523   4.636   5.261  13.819 -1.8563 -0.7476 -1.4125
13370TIP3   OH261524   0.217   4.457  17.309  0.3980  0.1823 -0.2959
13370TIP3    H161525   0.272   4.501  17.374  1.5329  0.3222 -1.3044
13370TIP3    H261526   0.260   4.373  17.294 -0.5383 -0.3613  0.0233
13371TIP3   OH261527   3.569   1.607   3.732  0.0255 -0.3276 -0.2927
13371TIP3    H161528   3.632   1.647   3.792  0.2645 -1.4045  0.2086
13371TIP3    H261529   3.563   1.516   3.761 -2.4207 -0.0664  0.2018
13372TIP3   OH261530   0.624   4.125  12.755  0.2853 -0.0116 -0.2024
13372TIP3    H161531   0.554   4.076  12.798  1.0040 -1.5662 -0.7139
13372TIP3    H261532   0.586   4.152  12.671  0.0554 -0.1736 -0.1523
13373TIP3   OH261533   2.214   3.110   4.302 -0.9482  0.2596  0.0436
13373TIP3    H161534   2.247   3.054   4.373 -1.2176 -1.6820 -1.2809
13373TIP3    H261535   2.259   3.193   4.315  2.7801 -1.4811 -0.2433
13374TIP3   OH261536   4.812   4.874  12.728 -0.0374  0.1245 -0.3852
13374TIP3    H161537   4.812   4.969  12.714 -0.1032  0.3093  0.7788
13374TIP3    H261538   4.900   4.847  12.705  1.0533  0.9861  2.2831
13375TIP3   OH261539   0.404   1.425   3.440 -0.2907 -0.4285 -0.4973
13375TIP3    H161540   0.487   1.399   3.401  0.0983  0.3051 -0.1643
13375TIP3    H261541   0.374   1.499   3.388 -0.2480 -0.0614 -0.0053
13376TIP3   OH261542   5.367   1.817   5.859  0.1658 -0.1172 -0.1471
13376TIP3    H161543   5.386   1.894   5.806  3.4435  0.2952  1.3796
13376TIP3    H261544   5.359   1.851   5.948 -1.1611 -1.2576  0.2081
13377TIP3   OH261545   3.189   6.260  16.627  0.0381 -0.4129 -0.3814
13377TIP3    H161546   3.175   6.216  16.710 -1.0672  1.0402  0.2473
13377TIP3    H261547   3.264   6.318  16.643 -0.4918  0.2422 -0.2169
13378TIP3   OH261548   0.858   2.384   1.168 -0.4791  0.3182  0.3937
13378TIP3    H161549   0.947   2.350   1.174 -0.2376  1.0723  1.2212
13378TIP3    H261550   0.867   2.479   1.181 -0.9338  1.0203 -3.3125
13379TIP3   OH261551   3.876   5.760   3.479 -0.6488  0.1844 -0.0276
13379TIP3    H161552   3.905   5.845   3.513  1.0260 -0.3510 -0.0478
13379TIP3    H261553   3.913   5.756   3.391  2.2187 -1.8995  1.1131
13380TIP3   OH261554   4.337   2.120  13.437  0.1220 -0.5127  0.0586
13380TIP3    H161555   4.402   2.063  13.477  2.3352  2.2983  0.8734
13380TIP3    H261556   4.387   2.172  13.373 -2.0949 -0.6390 -1.9151
13381TIP3   OH261557   1.646   0.035   5.718 -0.5282 -0.3206  0.2211
13381TIP3    H161558   1.553   0.053   5.706 -0.5880 -0.2477  0.7968
13381TIP3    H261559   1.684   0.048   5.631 -0.9334  0.3783  0.1450
13382TIP3   OH261560   0.790   2.927   4.092  0.0022  0.0891  0.1631
13382TIP3    H161561   0.801   2.859   4.025  0.9386 -0.2277  0.6175
13382TIP3    H261562   0.773   3.007   4.042 -2.7055 -0.6966 -0.3557
13383TIP3   OH261563   6.400   1.676  16.509 -0.2049  0.1981  1.0616
13383TIP3    H161564   6.468   1.628  16.462 -1.2500  2.4586 -3.2455
13383TIP3    H261565   6.447   1.747  16.554  0.5812 -0.2924  1.0245
13384TIP3   OH261566   5.641   4.422  16.352  0.8246  0.5155  0.3923
13384TIP3    H161567   5.553   4.458  16.342  0.6127 -0.2703 -0.7681
13384TIP3    H261568   5.672   4.408  16.262  0.6396 -2.7442  0.7302
13385TIP3   OH261569   3.667   0.134   0.833 -0.0611 -0.0540 -0.1590
13385TIP3    H161570   3.623   0.050   0.840 -0.2451  0.0581  0.0354
13385TIP3    H261571   3.746   0.124   0.888  0.9477 -0.7524 -1.6668
13386TIP3   OH261572   3.577   5.969   1.966  0.2346 -0.0245 -0.0521
13386TIP3    H161573   3.500   6.012   1.930 -0.2923 -1.3272 -0.5347
13386TIP3    H261574   3.545   5.922   2.043 -0.0912 -2.7790 -1.7394
13387TIP3   OH261575   1.176   6.420  14.779 -0.5031 -0.4116  0.2053
13387TIP3    H161576   1.167   6.501  14.729 -2.4137  0.3919  1.7350
13387TIP3    H261577   1.173   6.448  14.870 -1.7696 -2.2411  0.7769
13388TIP3   OH261578   3.762   2.029  13.482  0.5016 -0.0424 -0.2378
13388TIP3    H161579   3.848   2.003  13.515  0.7989 -0.6184 -1.4206
13388TIP3    H261580   3.723   1.949  13.448 -0.3386  0.2892 -0.0906
13389TIP3   OH261581   0.694   3.395  11.878  0.4287 -0.5197  0.0174
13389TIP3    H161582   0.637   3.466  11.907  1.5352  0.7209 -0.7217
13389TIP3    H261583   0.643   3.349  11.812 -0.0485  0.0201  0.0015
13390TIP3   OH261584   1.967   5.091  11.559 -0.6775  0.3659  0.1180
13390TIP3    H161585   1.987   5.005  11.597  0.6332  0.6565  0.1162
13390TIP3    H261586   1.878   5.081  11.525 -0.7340 -0.8419  0.5501
13391TIP3   OH261587   4.294   0.908   6.272  0.1661  0.7204  0.8245
13391TIP3    H161588   4.386   0.902   6.246  0.1326  1.4440  0.4907
13391TIP3    H261589   4.245   0.872   6.198  0.1212  1.8178  0.2867
13392TIP3   OH261590   6.613   3.629   2.938  0.3060  0.1717 -0.1784
13392TIP3    H161591   6.699   3.599   2.908  0.2368 -2.7983  2.1095
13392TIP3    H261592   6.561   3.637   2.859  2.4341  1.3697 -1.5576
13393TIP3   OH261593   0.987   5.640  14.546 -0.1090 -0.5185 -0.3546
13393TIP3    H161594   1.041   5.563  14.563  2.9078  1.1809 -1.4770
13393TIP3    H261595   0.924   5.611  14.479 -1.1574 -2.7407  1.4535
13394TIP3   OH261596   1.408   3.850  12.373 -0.4839 -0.0595  0.2897
13394TIP3    H161597   1.333   3.884  12.422 -1.1266 -1.1453  0.0841
13394TIP3    H261598   1.478   3.914  12.389 -1.6745  1.4449 -0.1932
13395TIP3   OH261599   6.403   6.131  13.457  0.1429 -0.7291 -0.5418
13395TIP3    H161600   6.484   6.181  13.445 -0.5978  0.4784 -0.7458
13395TIP3    H261601   6.417   6.051  13.407  0.2500  0.6019 -2.8442
13396TIP3   OH261602   5.297   5.283  13.652 -0.3391  0.1616 -0.0464
13396TIP3    H161603   5.356   5.329  13.712  3.7696 -1.8364 -2.1425
13396TIP3    H261604   5.265   5.208  13.703  1.8918 -0.6821  0.2323
13397TIP3   OH261605   4.717   0.306  11.281  0.5225 -0.3370  0.8643
13397TIP3    H161606   4.760   0.273  11.202 -1.7178  1.6499 -1.3449
13397TIP3    H261607   4.774   0.376  11.311 -0.1621  1.1168 -1.0171
13398TIP3   OH261608   5.780   4.762  13.802 -0.3731  0.0341  0.5221
13398TIP3    H161609   5.686   4.769  13.783 -0.6188 -0.4673  1.4739
13398TIP3    H261610   5.802   4.671  13.782  0.5268  0.7833 -2.2089
13399TIP3   OH261611   1.788   4.143   6.206 -0.4268 -0.0415 -0.4244
13399TIP3    H161612   1.875   4.156   6.168 -0.3302 -0.4918 -0.3725
13399TIP3    H261613   1.801   4.152   6.301 -0.5791  0.6246 -0.4665
13400TIP3   OH261614   4.770   1.608   0.872  0.7046  0.1617  0.2513
13400TIP3    H161615   4.736   1.690   0.834  0.3238  0.5626  1.3988
13400TIP3    H261616   4.755   1.618   0.966 -0.9325 -1.9406  0.2957
13401TIP3   OH261617   0.937   4.235  12.907  0.1615  0.5738 -0.2880
13401TIP3    H161618   1.003   4.292  12.870  1.5249  0.4231  1.7152
13401TIP3    H261619   0.960   4.148  12.875  0.9949  0.5161  0.4300
13402TIP3   OH261620   5.130   5.984   2.717  1.0424 -0.2233  0.6044
13402TIP3    H161621   5.152   6.036   2.795 -0.7656 -0.9341  1.6513
13402TIP3    H261622   5.097   6.047   2.654 -0.3329  0.0477  1.5537
13403TIP3   OH261623   2.015   0.024   0.820  0.9039  0.3776 -0.2122
13403TIP3    H161624   2.086   0.061   0.768 -0.9985  1.9461 -1.8172
13403TIP3    H261625   1.995  -0.060   0.778  1.2333  0.3171 -0.2509
13404TIP3   OH261626   5.222   5.248   3.072  0.2127  0.2277 -0.1369
13404TIP3    H161627   5.157   5.194   3.118 -0.2084 -0.6299 -1.6503
13404TIP3    H261628   5.306   5.211   3.096  0.0495  0.3160  0.5804
13405TIP3   OH261629   3.118   0.885  12.758 -0.4515 -0.1272  0.0850
13405TIP3    H161630   3.101   0.957  12.698 -2.2014  0.8868  1.6715
13405TIP3    H261631   3.114   0.807  12.703  0.4729  0.8758 -1.4963
13406TIP3   OH261632   4.465   3.824  16.084  0.0786  0.1543  0.0200
13406TIP3    H161633   4.409   3.863  16.017 -2.0864  0.5578  1.9516
13406TIP3    H261634   4.529   3.892  16.106  0.0296  0.4494 -0.7293
13407TIP3   OH261635   3.207   4.723  12.203  0.0506  0.1063 -0.2198
13407TIP3    H161636   3.235   4.804  12.161  0.1613  0.2858  0.2022
13407TIP3    H261637   3.161   4.751  12.282  0.9166 -0.2744  0.4264
13408TIP3   OH261638   2.117   1.494  12.385  0.4861  0.6062 -0.1509
13408TIP3    H161639   2.211   1.482  12.395  0.4233 -0.3585 -0.6142
13408TIP3    H261640   2.088   1.529  12.469  1.0346 -0.5388  0.5418
13409TIP3   OH261641   4.351   1.237   5.208 -0.2927  0.1424 -0.6681
13409TIP3    H161642   4.273   1.186   5.185  1.7032 -2.8520 -1.3462
13409TIP3    H261643   4.381   1.274   5.125 -1.0015  1.4760 -0.3740
13410TIP3   OH261644   0.580   2.192   5.435 -0.3921  0.0633  0.0081
13410TIP3    H161645   0.584   2.228   5.523 -0.2784 -2.3654  1.0905
13410TIP3    H261646   0.488   2.196   5.411 -0.1599  2.6873 -0.7202
13411TIP3   OH261647   5.481   5.531  15.796  0.8148 -0.0073  0.3171
13411TIP3    H161648   5.498   5.444  15.759 -0.7470  0.4194 -1.5764
13411TIP3    H261649   5.417   5.514  15.866  1.2755 -0.4702  0.6394
13412TIP3   OH261650   0.779   5.577  14.391  0.0276  0.2131 -0.2878
13412TIP3    H161651   0.703   5.591  14.335 -0.8915  0.1560  0.8940
13412TIP3    H261652   0.805   5.486  14.373 -0.6205  0.0043 -0.2004
13413TIP3   OH261653   0.967   0.932  16.724 -0.0193 -0.3764  0.2685
13413TIP3    H161654   0.976   0.841  16.695 -0.4036 -0.8455  1.5374
13413TIP3    H261655   0.926   0.925  16.810  0.3988  0.9875  0.5950
13414TIP3   OH261656   5.484   3.624   3.139 -0.0589  0.6460 -0.0371
13414TIP3    H161657   5.517   3.602   3.227 -0.8069  1.4074  0.4433
13414TIP3    H261658   5.389   3.622   3.148 -0.1658 -0.3290 -1.1132
13415TIP3   OH261659   4.674   0.954   3.947  0.2924 -0.4094  0.3282
13415TIP3    H161660   4.654   1.018   3.879  1.9000  0.2438  0.4290
13415TIP3    H261661   4.591   0.909   3.963 -0.7684  1.3372 -0.0571
13416TIP3   OH261662   3.000   3.329  13.090  1.1448  0.0860 -0.3087
13416TIP3    H161663   2.958   3.284  13.164  1.9637 -1.0387 -0.4941
13416TIP3    H261664   3.057   3.262  13.051  0.4573  0.5602 -2.1918
13417TIP3   OH261665   1.097   5.606   3.316  0.4689 -0.7096  0.3678
13417TIP3    H161666   1.093   5.592   3.410  0.1399 -1.9348  0.1895
13417TIP3    H261667   1.177   5.657   3.303  2.4702 -3.4396  1.0272
13418TIP3   OH261668   0.683   6.604   2.846 -0.1866 -0.1023  0.1164
13418TIP3    H161669   0.661   6.629   2.936  0.8177  0.8103  0.1265
13418TIP3    H261670   0.772   6.636   2.834 -0.9188  1.3718 -1.8053
13419TIP3   OH261671   1.814   1.757  14.749  0.3422  0.1368 -0.2097
13419TIP3    H161672   1.829   1.760  14.843  0.0300 -0.0751 -0.1530
13419TIP3    H261673   1.739   1.699  14.738 -1.8293  2.7098 -0.2957
13420TIP3   OH261674   4.678   1.961   3.757 -0.3824 -0.4353  0.6598
13420TIP3    H161675   4.697   1.966   3.851  1.3213  3.6469  0.3402
13420TIP3    H261676   4.761   1.985   3.715 -0.9086 -2.7673 -2.0290
13421TIP3   OH261677   4.228   3.558  11.535 -0.2142 -0.1435 -0.2960
13421TIP3    H161678   4.202   3.604  11.614 -0.7036 -0.3158 -0.3555
13421TIP3    H261679   4.309   3.602  11.508  0.2522 -0.4404  0.5945
13422TIP3   OH261680   2.672   1.734  13.647 -0.1336 -0.5332 -0.1666
13422TIP3    H161681   2.580   1.716  13.663 -0.1872 -0.9717 -0.9278
13422TIP3    H261682   2.674   1.769  13.558  0.5578 -1.6111 -0.5931
13423TIP3   OH261683   0.806   0.442   4.711  0.1984  0.0318  0.4183
13423TIP3    H161684   0.716   0.470   4.695  0.2669 -0.5276 -1.1622
13423TIP3    H261685   0.799   0.349   4.732  0.5285 -0.4951 -1.6407
13424TIP3   OH261686   0.222   2.544   6.581 -0.0610 -0.0211 -0.4312
13424TIP3    H161687   0.193   2.623   6.625  2.0914 -0.9640  3.1672
13424TIP3    H261688   0.297   2.572   6.528  0.6323  0.4650  0.7466
13425TIP3   OH261689   3.269   2.491   5.238  0.0762  0.1035  0.2724
13425TIP3    H161690   3.233   2.557   5.179  0.0153 -0.4373 -0.3007
13425TIP3    H261691   3.334   2.445   5.185  0.9025  0.4133  0.9972
13426TIP3   OH261692   4.809   3.558   1.731 -0.5579 -0.0021 -0.1737
13426TIP3    H161693   4.753   3.604   1.669 -1.2004 -1.1630 -0.4815
13426TIP3    H261694   4.764   3.475   1.748 -0.1222  0.0568  1.4309
13427TIP3   OH261695   1.130   5.094  12.795 -0.4541 -0.0734 -0.0823
13427TIP3    H161696   1.161   5.179  12.828 -0.0793 -0.2120 -0.0763
13427TIP3    H261697   1.178   5.081  12.714  0.1946 -0.7196  0.3974
13428TIP3   OH261698   1.041   2.697   0.749 -0.6767  0.0680 -0.0374
13428TIP3    H161699   1.061   2.633   0.817  0.4329 -1.8179 -2.0351
13428TIP3    H261700   0.953   2.674   0.719 -0.7456  0.2427  0.0251
13429TIP3   OH261701   5.839   1.281   4.657  0.4342 -0.9549  0.3588
13429TIP3    H161702   5.871   1.272   4.747 -2.2690 -0.9787  1.4127
13429TIP3    H261703   5.838   1.192   4.623  4.4966 -0.7222 -1.0234
13430TIP3   OH261704   0.796   1.435  11.621  0.2727  0.2490 -0.0836
13430TIP3    H161705   0.711   1.455  11.661  0.1424 -0.1582 -0.1505
13430TIP3    H261706   0.774   1.402  11.534  0.5278  0.5946 -0.2821
13431TIP3   OH261707   6.117   4.096  13.081  0.0263  0.1455  0.0045
13431TIP3    H161708   6.111   4.028  13.013  0.9293 -1.9797  1.9004
13431TIP3    H261709   6.202   4.081  13.122 -1.2792 -0.0098  2.8760
13432TIP3   OH261710   4.326   2.202   4.265 -0.3859 -0.2870  0.1844
13432TIP3    H161711   4.243   2.182   4.309 -0.4182  0.3839  0.4445
13432TIP3    H261712   4.313   2.171   4.175 -0.0969 -2.2314  0.7702
13433TIP3   OH261713   3.345   4.853  12.535 -0.9195 -0.0543 -0.0841
13433TIP3    H161714   3.278   4.813  12.591  0.2075 -0.6472  0.8680
13433TIP3    H261715   3.307   4.937  12.510 -0.7271  1.1665  3.1964
13434TIP3   OH261716   3.173   5.489   4.394  0.6827  0.0213 -0.5517
13434TIP3    H161717   3.247   5.495   4.454  2.7051 -0.3058 -2.8644
13434TIP3    H261718   3.166   5.576   4.355 -0.7509  0.2921  0.2318
13435TIP3   OH261719   1.992   0.310  10.805 -0.1274 -0.6293  0.9413
13435TIP3    H161720   2.079   0.273  10.818  0.1971  0.5076  2.3418
13435TIP3    H261721   1.956   0.318  10.894 -0.8007  0.8567  0.5687
13436TIP3   OH261722   0.498   1.499   1.672  0.3283  0.1355 -0.2525
13436TIP3    H161723   0.432   1.519   1.739  0.8847 -0.2435  0.4195
13436TIP3    H261724   0.447   1.484   1.592 -0.3995 -0.1529  0.2574
13437TIP3   OH261725   3.612   2.321  15.627 -0.0293 -0.0976  0.4079
13437TIP3    H161726   3.533   2.326  15.574 -0.4738 -0.8067  0.9867
13437TIP3    H261727   3.647   2.410  15.627 -2.5622  1.0206  2.8029
13438TIP3   OH261728   1.244   6.539  15.044  0.0611 -0.6418  0.0522
13438TIP3    H161729   1.208   6.625  15.021 -0.4653 -1.0862 -0.8139
13438TIP3    H261730   1.174   6.495  15.092  0.2288 -0.7001  0.2472
13439TIP3   OH261731   1.198   6.006   2.882 -0.0988  0.1239 -0.7234
13439TIP3    H161732   1.217   6.088   2.835  3.9335  0.3843  0.9890
13439TIP3    H261733   1.166   6.034   2.968  1.2128 -0.0382 -0.1621
13440TIP3   OH261734   1.317   6.495   1.654  0.0312 -0.0264 -0.4657
13440TIP3    H161735   1.234   6.509   1.609 -0.9093 -0.2170  1.1108
13440TIP3    H261736   1.351   6.413   1.620  0.3406  0.7795 -2.1952
13441TIP3   OH261737   5.859   4.613   0.841 -0.2988  0.5146 -0.3348
13441TIP3    H161738   5.824   4.566   0.765  1.4352  0.0091 -0.8791
13441TIP3    H261739   5.885   4.698   0.806 -0.1331  0.5350 -0.1636
13442TIP3   OH261740   2.757   1.187  12.586  0.4496  0.4125  0.1911
13442TIP3    H161741   2.770   1.235  12.668  0.7371  0.7003 -0.0232
13442TIP3    H261742   2.663   1.167  12.585  0.0261  2.2252 -0.3917
13443TIP3   OH261743   3.802   2.157   1.521  0.5019 -0.0734  0.5646
13443TIP3    H161744   3.795   2.075   1.471 -0.0278  0.0418  0.4359
13443TIP3    H261745   3.881   2.199   1.488 -0.6075  0.7116 -1.2938
13444TIP3   OH261746   1.239   2.478   5.844 -0.1996 -0.1524 -0.4934
13444TIP3    H161747   1.279   2.391   5.849 -0.6223 -0.4092 -1.4612
13444TIP3    H261748   1.147   2.461   5.824 -0.4707  0.4973  0.1600
13445TIP3   OH261749   4.381   0.062  17.005 -0.4883  0.0066  0.0447
13445TIP3    H161750   4.445  -0.008  17.018 -0.4608  0.0658  0.2242
13445TIP3    H261751   4.308   0.019  16.962 -0.1793  0.0125 -0.4974
13446TIP3   OH261752   3.030   1.627  12.020 -0.3005  0.4265  0.3592
13446TIP3    H161753   3.092   1.594  11.955 -0.7958 -0.0102  0.1060
13446TIP3    H261754   3.030   1.561  12.089  0.6798  1.1764  1.1097
13447TIP3   OH261755   4.970   3.695   2.776 -0.1142  0.0156  0.3148
13447TIP3    H161756   5.032   3.666   2.708  1.0201  1.5496  0.6458
13447TIP3    H261757   5.025   3.711   2.853 -1.0335  0.7393  0.8346
13448TIP3   OH261758   2.920   3.140  13.846  0.4569 -0.2182 -0.0811
13448TIP3    H161759   2.994   3.179  13.892 -0.8938  1.6387  0.6869
13448TIP3    H261760   2.945   3.142  13.754  1.4508  0.1408  0.1842
13449TIP3   OH261761   4.956   1.226   0.721  0.2189 -0.1055 -0.6931
13449TIP3    H161762   4.983   1.140   0.753  0.9490 -0.1639 -1.4478
13449TIP3    H261763   4.887   1.207   0.657  0.6942 -0.1675 -1.1951
13450TIP3   OH261764   0.084   6.657   2.426 -0.1990  0.5157  0.0618
13450TIP3    H161765   0.146   6.588   2.448  0.0141  1.2310  1.8550
13450TIP3    H261766   0.066   6.644   2.333  1.9222 -0.2669 -0.2965
13451TIP3   OH261767   4.508   1.427  17.142 -0.6277 -0.1173 -0.0541
13451TIP3    H161768   4.573   1.361  17.120 -0.4713  1.2320 -4.6352
13451TIP3    H261769   4.558   1.495  17.188 -0.0400 -1.4367  1.3519
13452TIP3   OH261770   1.107   4.621   0.140  0.2461 -0.1082 -0.1032
13452TIP3    H161771   1.108   4.588   0.049 -1.7492  2.1459 -1.0505
13452TIP3    H261772   1.014   4.622   0.163  0.4294  2.2927  0.7693
13453TIP3   OH261773   3.601   4.848   4.274  0.3739 -0.3598  0.6124
13453TIP3    H161774   3.547   4.924   4.299  0.5984 -0.1272  0.4036
13453TIP3    H261775   3.545   4.798   4.215 -0.0965 -0.8236  1.4369
13454TIP3   OH261776   3.799   3.456   1.509  0.1906 -0.3408 -0.4580
13454TIP3    H161777   3.822   3.402   1.585  0.1206  0.6833  0.3245
13454TIP3    H261778   3.883   3.489   1.477  0.0734  1.9269  1.2811
13455TIP3   OH261779   4.995   6.624   3.320 -0.0707  0.3982 -0.0886
13455TIP3    H161780   5.033   6.571   3.390 -1.9534 -1.4466 -0.3581
13455TIP3    H261781   4.901   6.608   3.327 -0.5936  2.7271 -1.0429
13456TIP3   OH261782   0.078   2.874   1.009 -0.2905 -0.1569  0.3291
13456TIP3    H161783   0.115   2.827   1.084 -0.5222 -0.4785  0.2426
13456TIP3    H261784   0.103   2.966   1.024  1.4166 -0.4938 -0.2438
13457TIP3   OH261785   2.243   6.411  14.723  0.0169 -0.4064 -0.2257
13457TIP3    H161786   2.153   6.438  14.703 -0.1499  0.1436  1.2163
13457TIP3    H261787   2.296   6.457  14.658 -0.5720  0.8110  0.1278
13458TIP3   OH261788   5.875   5.907  12.950 -0.7130  0.0648 -0.4893
13458TIP3    H161789   5.848   5.870  12.866 -0.0922 -0.5797 -0.4136
13458TIP3    H261790   5.843   5.845  13.016  1.0722 -0.8374 -0.4106
13459TIP3   OH261791   3.241   3.653   6.099 -0.4026 -0.5382 -0.3779
13459TIP3    H161792   3.251   3.586   6.032  0.7170  1.4167 -2.3181
13459TIP3    H261793   3.220   3.605   6.179 -0.3261 -3.0954 -1.7971
13460TIP3   OH261794   5.149   2.988   5.974  0.6527  0.0115  0.0766
13460TIP3    H161795   5.235   3.012   6.008  1.1416 -1.4225 -0.0853
13460TIP3    H261796   5.166   2.917   5.913 -0.4634  0.9743 -1.4114
13461TIP3   OH261797   2.649   2.047  13.790  0.0939 -0.5666  0.2990
13461TIP3    H161798   2.611   2.079  13.708 -0.5634 -2.4254 -0.1737
13461TIP3    H261799   2.576   2.050  13.853  0.2271 -0.4596  0.4512
13462TIP3   OH261800   6.554   0.871  12.867 -0.5643 -0.2486 -0.1662
13462TIP3    H161801   6.596   0.947  12.907 -2.8526  1.1939 -0.2744
13462TIP3    H261802   6.614   0.843  12.798  0.9515  0.6074  0.7458
13463TIP3   OH261803   4.877   2.939  11.462  0.5312 -0.3800  0.2783
13463TIP3    H161804   4.865   2.989  11.381 -1.2370 -1.9488 -0.4991
13463TIP3    H261805   4.906   3.004  11.526 -1.9375  1.7529 -0.6013
13464TIP3   OH261806   6.249   2.010   4.368  0.0270  0.0674  0.3266
13464TIP3    H161807   6.334   1.979   4.336 -0.5512 -0.2559 -0.9734
13464TIP3    H261808   6.222   1.944   4.432  0.4843 -0.1251  0.3273
13465TIP3   OH261809   4.576   0.538  15.598 -0.0983 -0.1465 -0.2861
13465TIP3    H161810   4.571   0.460  15.543 -0.9562  1.9171 -3.4318
13465TIP3    H261811   4.669   0.549  15.615  0.1976 -0.9131 -1.2907
13466TIP3   OH261812   4.174   6.440  17.146 -0.1858  0.4852 -0.0590
13466TIP3    H161813   4.266   6.435  17.171  0.0958  2.5823 -0.4720
13466TIP3    H261814   4.134   6.497  17.211 -0.1190  3.4007 -2.3581
13467TIP3   OH261815   2.194   2.710  11.566  0.6526  0.4233 -0.8746
13467TIP3    H161816   2.219   2.780  11.625 -0.3572 -0.5975  0.8476
13467TIP3    H261817   2.110   2.738  11.529 -1.1020 -0.8447  1.7789
13468TIP3   OH261818   6.577   5.093  13.663  0.0036  0.1161 -0.4019
13468TIP3    H161819   6.574   5.170  13.607 -0.3235  0.0065 -0.5415
13468TIP3    H261820   6.531   5.025  13.613 -0.5464  0.1009  0.1176
13469TIP3   OH261821   5.577   3.145  17.022 -0.4707  0.8510 -0.2456
13469TIP3    H161822   5.493   3.121  16.984 -0.3977 -0.9397  0.5755
13469TIP3    H261823   5.585   3.239  17.009 -2.6102  1.0583 -0.3047
13470TIP3   OH261824   2.319   1.884  16.405 -0.2262  0.2216  0.5933
13470TIP3    H161825   2.348   1.969  16.439 -2.8196  0.5224  2.3759
13470TIP3    H261826   2.227   1.897  16.383  0.2606 -1.1261 -2.9743
13471TIP3   OH261827   6.682   5.766  16.232  0.1315  0.0900  0.1947
13471TIP3    H161828   6.720   5.805  16.153  1.7629 -1.4728  0.1339
13471TIP3    H261829   6.593   5.800  16.236  0.1335  0.5018 -2.1078
13472TIP3   OH261830   1.404   1.475  17.196  0.0303 -0.3675 -0.7391
13472TIP3    H161831   1.480   1.531  17.186 -0.1685 -0.2491 -1.6634
13472TIP3    H261832   1.329   1.533  17.183 -0.2999 -0.1882  1.4988
13473TIP3   OH261833   3.576   6.358  13.894 -0.3069 -0.1392 -0.1224
13473TIP3    H161834   3.496   6.322  13.857 -0.0187 -2.2381  1.1176
13473TIP3    H261835   3.630   6.380  13.818 -1.2888 -0.5556 -0.9596
13474TIP3   OH261836   2.084   2.860  16.074  0.2331 -0.6033  0.6436
13474TIP3    H161837   2.021   2.931  16.089  2.4934  1.4398  1.0670
13474TIP3    H261838   2.063   2.795  16.141 -2.0717 -0.5143  0.0814
13475TIP3   OH261839   5.121   2.656   5.470  0.6475 -0.4238  0.1597
13475TIP3    H161840   5.175   2.609   5.407 -0.0100 -1.2904  0.2181
13475TIP3    H261841   5.050   2.693   5.417  1.5660  1.2008 -0.0086
13476TIP3   OH261842   2.540   4.438  16.774 -0.0555  0.5938  0.2676
13476TIP3    H161843   2.574   4.352  16.795 -0.6402  0.1694 -0.4650
13476TIP3    H261844   2.508   4.430  16.684  0.1607  1.6583  0.0699
13477TIP3   OH261845   3.327   1.624   6.461  0.2314  0.0406 -0.7171
13477TIP3    H161846   3.391   1.643   6.530  0.4965 -0.6183 -0.7737
13477TIP3    H261847   3.280   1.706   6.449 -1.1287 -0.2966  1.5879
13478TIP3   OH261848   6.424   0.421  14.444 -0.3848  0.3493  0.5484
13478TIP3    H161849   6.506   0.462  14.415  1.5955 -2.6424  1.4427
13478TIP3    H261850   6.418   0.442  14.538 -1.7182  2.0740  0.1380
13479TIP3   OH261851   5.523   1.265   3.155  0.0889  0.3440 -0.1942
13479TIP3    H161852   5.575   1.187   3.134 -0.3493  0.3336 -1.2531
13479TIP3    H261853   5.443   1.231   3.194  0.3040  0.3120  0.2289
13480TIP3   OH261854   4.083   2.978   1.050 -0.1050 -0.1155  0.7946
13480TIP3    H161855   4.163   2.973   0.997  0.1089  0.2877  1.0665
13480TIP3    H261856   4.066   3.072   1.058  1.2998 -0.0035  3.5105
13481TIP3   OH261857   3.722   3.398  17.410 -0.5217  0.3618 -0.5484
13481TIP3    H161858   3.773   3.438  17.340 -0.8658 -0.1123 -1.0797
13481TIP3    H261859   3.732   3.304  17.396 -0.2293  0.2578  0.3095
13482TIP3   OH261860   2.154   5.128   5.551 -0.2304  0.3686 -0.1868
13482TIP3    H161861   2.097   5.090   5.617  0.2503 -1.2777 -0.6621
13482TIP3    H261862   2.111   5.210   5.526 -1.6237 -0.1260  0.4874
13483TIP3   OH261863   1.806   0.056   1.510  0.7647 -0.0825 -0.3762
13483TIP3    H161864   1.857   0.126   1.469 -0.6539  0.7805 -0.7415
13483TIP3    H261865   1.718   0.066   1.474  0.0396 -0.7867  1.1027
13484TIP3   OH261866   5.283   5.386   4.037 -0.9202 -0.2337  0.4833
13484TIP3    H161867   5.231   5.358   3.962 -2.6616  1.8674  0.7971
13484TIP3    H261868   5.332   5.462   4.005 -0.5691 -0.2025  1.0753
13485TIP3   OH261869   0.955   2.282   0.290 -0.6450  0.1431  0.1464
13485TIP3    H161870   1.006   2.339   0.348 -0.6657 -1.4603  1.8634
13485TIP3    H261871   1.015   2.262   0.219 -0.4620  1.8332 -0.2192
13486TIP3   OH261872   2.907   5.829   4.193  0.2639  0.7532  0.2265
13486TIP3    H161873   2.901   5.809   4.287  0.8608  1.8372  0.5093
13486TIP3    H261874   2.983   5.780   4.164 -1.0889 -1.2512 -0.1825
13487TIP3   OH261875   0.689   2.696  13.340 -0.5422 -0.0995 -0.3567
13487TIP3    H161876   0.760   2.744  13.297  0.0474 -0.6686 -0.0439
13487TIP3    H261877   0.683   2.614  13.291  0.3163 -0.8715  0.7825
13488TIP3   OH261878   6.598   0.535   3.405 -0.1906  0.3650 -0.4887
13488TIP3    H161879   6.529   0.522   3.341 -0.7087  1.7318 -0.2398
13488TIP3    H261880   6.571   0.612   3.455  0.2501 -0.5664  1.3021
13489TIP3   OH261881   0.191   2.985  13.416 -0.2249 -0.2196  0.8315
13489TIP3    H161882   0.229   2.897  13.417 -0.3770 -0.3679 -1.6753
13489TIP3    H261883   0.097   2.971  13.427 -0.2098 -0.3318  0.8217
13490TIP3   OH261884   0.705   5.559   6.712 -0.0062 -0.2769  0.1971
13490TIP3    H161885   0.776   5.523   6.660 -0.1699 -1.2263  0.6140
13490TIP3    H261886   0.656   5.614   6.651  0.7291 -0.0967 -0.2377
13491TIP3   OH261887   6.711   5.412   4.603 -0.3511  0.2317 -0.3524
13491TIP3    H161888   6.628   5.395   4.558  0.0417  2.2178 -1.9928
13491TIP3    H261889   6.777   5.370   4.548 -0.1620 -0.6070  0.4879
13492TIP3   OH261890   6.561   0.003  12.386  0.3603 -0.0183 -0.1942
13492TIP3    H161891   6.575   0.004  12.481 -0.0257 -1.0081 -0.1139
13492TIP3    H261892   6.638  -0.043  12.351 -0.1388 -0.8388 -0.2304
13493TIP3   OH261893   2.503   0.795  11.648  0.1503 -0.7701  0.3502
13493TIP3    H161894   2.534   0.879  11.682  1.7398 -0.7102 -1.0993
13493TIP3    H261895   2.536   0.730  11.710  0.4580 -0.4586  0.5176
13494TIP3   OH261896   5.480   3.533   1.673 -0.1840 -0.5916  0.0388
13494TIP3    H161897   5.418   3.567   1.738 -2.4354 -0.7542 -1.8964
13494TIP3    H261898   5.496   3.607   1.615  2.5369 -0.1747  1.1699
13495TIP3   OH261899   0.836   1.911   3.547 -0.0160  0.0991 -0.3002
13495TIP3    H161900   0.758   1.950   3.507  0.2850 -0.9488 -2.0017
13495TIP3    H261901   0.802   1.859   3.619 -0.7723  0.5561 -0.3120
13496TIP3   OH261902   4.324   5.459   4.432 -0.5083  0.8633 -0.0394
13496TIP3    H161903   4.328   5.452   4.336 -0.2649  2.1679 -0.1471
13496TIP3    H261904   4.370   5.381   4.463  2.0133  1.8213 -1.0357
13497TIP3   OH261905   6.462   1.709  13.643  0.4829 -0.7902 -0.4936
13497TIP3    H161906   6.501   1.796  13.653  1.3165 -1.2763  0.6770
13497TIP3    H261907   6.488   1.661  13.722  0.4719 -2.2740 -1.3483
13498TIP3   OH261908   6.325   3.289  12.326  0.3048 -0.1123 -0.3596
13498TIP3    H161909   6.356   3.262  12.239 -1.5696 -0.8205 -0.8561
13498TIP3    H261910   6.300   3.208  12.369 -0.5431  0.3803  0.1166
13499TIP3   OH261911   0.444   5.510  15.978  0.2258 -0.2068 -0.1366
13499TIP3    H161912   0.435   5.489  16.071  1.2850  0.0272  0.0253
13499TIP3    H261913   0.536   5.494  15.959 -0.0360 -0.4917 -1.2119
13500TIP3   OH261914   4.552   3.682  14.058  0.3322  0.0358  0.2033
13500TIP3    H161915   4.595   3.598  14.041  0.8154  0.4806 -0.8726
13500TIP3    H261916   4.459   3.661  14.063  0.3687 -0.4598 -0.9162
13501TIP3   OH261917   5.713   2.045  11.359 -0.0560  0.0532  0.2786
13501TIP3    H161918   5.638   1.987  11.343 -1.0963  1.6672 -1.0599
13501TIP3    H261919   5.789   1.996  11.329 -1.0966 -0.0417 -2.4586
13502TIP3   OH261920   6.261   2.668  12.443 -0.0341 -0.7086  0.0355
13502TIP3    H161921   6.210   2.734  12.395 -0.5980 -1.5203 -0.5047
13502TIP3    H261922   6.318   2.720  12.500 -1.6372  0.2524  0.8654
13503TIP3   OH261923   4.644   2.254   5.350  0.2964 -0.5099  0.0444
13503TIP3    H161924   4.560   2.214   5.329 -0.1741 -0.9285  2.4512
13503TIP3    H261925   4.625   2.314   5.422  2.0182 -0.4612  0.5101
13504TIP3   OH261926   0.163   3.727  11.603  0.1502  0.8932  0.3259
13504TIP3    H161927   0.228   3.758  11.666 -0.0706  0.2151  0.9070
13504TIP3    H261928   0.079   3.738  11.649  0.0356 -0.1701  0.3933
13505TIP3   OH261929   4.366   1.853  16.237 -0.0527 -0.0818  0.2315
13505TIP3    H161930   4.453   1.827  16.269 -0.2132  1.5251  2.1643
13505TIP3    H261931   4.329   1.772  16.201  1.6383 -1.1522  0.7611
13506TIP3   OH261932   3.445   0.463  13.392 -0.5281 -0.1826  0.4262
13506TIP3    H161933   3.394   0.429  13.318  0.7872  0.5896 -0.9039
13506TIP3    H261934   3.512   0.397  13.406 -0.2879  0.0497  0.3819
13507TIP3   OH261935   4.320   4.392   3.450  0.2732  0.5849 -0.0864
13507TIP3    H161936   4.266   4.404   3.373 -0.8655 -1.5408  0.3327
13507TIP3    H261937   4.410   4.393   3.417 -0.1446  0.8764 -1.2398
13508TIP3   OH261938   4.235   5.200   1.663  0.7492  0.3042 -0.5754
13508TIP3    H161939   4.201   5.118   1.699 -1.3817  1.4050  0.0827
13508TIP3    H261940   4.165   5.232   1.606  0.6916  2.5935  0.6917
13509TIP3   OH261941   2.155   4.308  11.328  0.1689 -0.0724  0.1593
13509TIP3    H161942   2.116   4.359  11.257  1.8256  0.9610 -0.0579
13509TIP3    H261943   2.194   4.232  11.286 -0.6574 -0.5736  0.2592
13510TIP3   OH261944   0.497   4.300   1.784  0.2047  0.1862  0.3753
13510TIP3    H161945   0.507   4.259   1.698  3.0578  0.9719  0.2394
13510TIP3    H261946   0.489   4.227   1.845 -0.6753 -0.3987 -0.4122
13511TIP3   OH261947   6.277   6.260   2.535 -0.6781  0.2448  0.1426
13511TIP3    H161948   6.238   6.291   2.453 -2.0669 -1.1727  0.2137
13511TIP3    H261949   6.284   6.165   2.524  3.2369  0.4032  0.0035
13512TIP3   OH261950   0.645   1.073   3.684 -0.2914  0.2558 -0.0278
13512TIP3    H161951   0.725   1.030   3.654 -0.7823  1.0347 -2.6790
13512TIP3    H261952   0.589   1.078   3.606 -2.2003  1.3630  1.3155
13513TIP3   OH261953   0.455   0.496  14.130 -0.1484  0.4882 -0.1115
13513TIP3    H161954   0.421   0.458  14.211 -0.2549  0.6223 -0.0927
13513TIP3    H261955   0.550   0.490  14.137 -0.1749 -0.1320 -0.2810
13514TIP3   OH261956   4.023   6.417  11.708 -0.3815  0.1007  0.7799
13514TIP3    H161957   4.091   6.355  11.735  0.9428  0.1081 -2.1801
13514TIP3    H261958   3.985   6.447  11.790 -0.5699 -3.9784  2.4451
13515TIP3   OH261959   2.466   6.042   0.346  0.0711  0.4719 -0.8065
13515TIP3    H161960   2.457   6.005   0.258 -0.8828 -0.3796 -0.3780
13515TIP3    H261961   2.522   5.980   0.393 -0.1254  0.4623 -0.5783
13516TIP3   OH261962   1.780   0.259  17.324  0.1546 -0.1079 -0.0329
13516TIP3    H161963   1.867   0.252  17.285 -1.3574 -0.0762 -3.8588
13516TIP3    H261964   1.744   0.171  17.317 -0.4162  0.0572  0.7526
13517TIP3   OH261965   6.568   5.388   3.475 -0.0095  0.1611  0.7290
13517TIP3    H161966   6.597   5.436   3.397 -0.1286  0.6913  1.0035
13517TIP3    H261967   6.485   5.429   3.499 -0.8499 -1.1354  0.1412
13518TIP3   OH261968   2.533   3.747  14.986 -0.1341  0.2513 -0.2223
13518TIP3    H161969   2.569   3.797  15.059  3.5209 -0.5297 -1.2406
13518TIP3    H261970   2.491   3.813  14.930  1.3902  1.6702  0.2134
13519TIP3   OH261971   3.117   1.437   2.493  0.4269  0.0873  0.4557
13519TIP3    H161972   3.120   1.512   2.553 -0.7008  1.0141 -0.6074
13519TIP3    H261973   3.127   1.476   2.406  1.4313 -1.1805 -0.0275
13520TIP3   OH261974   3.990   5.829  11.140  0.1668 -0.0560 -0.4202
13520TIP3    H161975   3.927   5.869  11.200  1.3144  1.1587  0.0202
13520TIP3    H261976   3.948   5.832  11.054 -0.4797  0.4814 -0.0871
13521TIP3   OH261977   2.434   1.164   5.196  0.1000 -0.2188  0.4069
13521TIP3    H161978   2.348   1.133   5.226  0.2367 -0.0519  0.9805
13521TIP3    H261979   2.496   1.100   5.230  0.2187 -0.2736  0.0917
13522TIP3   OH261980   5.781   5.118   1.676 -0.2400  0.3057 -0.1850
13522TIP3    H161981   5.755   5.027   1.667  0.6897  0.0909 -0.8395
13522TIP3    H261982   5.795   5.131   1.770 -2.4004  0.3658  0.1642
13523TIP3   OH261983   4.973   2.466  12.580  0.0822 -0.0964 -0.3434
13523TIP3    H161984   4.978   2.402  12.509 -0.7543 -0.2428 -0.2811
13523TIP3    H261985   4.954   2.549  12.536  0.2676 -0.0538 -0.3455
13524TIP3   OH261986   4.914   5.478  12.815  0.1691  0.5128 -0.0975
13524TIP3    H161987   4.838   5.505  12.764  0.4179 -1.2997 -1.5476
13524TIP3    H261988   4.989   5.516  12.768  0.2310  2.8948  1.7158
13525TIP3   OH261989   2.923   5.972  17.077  0.3978  0.5191 -0.0248
13525TIP3    H161990   2.862   6.044  17.059  1.0947  0.5174 -2.7183
13525TIP3    H261991   2.897   5.903  17.016  1.6568 -0.3759  0.4138
13526TIP3   OH261992   5.586   1.406  16.137  0.0931  0.2820  0.1390
13526TIP3    H161993   5.585   1.313  16.112 -0.5572  0.1328  0.6572
13526TIP3    H261994   5.627   1.451  16.064 -1.1208 -0.2137 -0.8826
13527TIP3   OH261995   6.414   6.242   0.874 -0.0095 -0.0404 -0.7096
13527TIP3    H161996   6.338   6.224   0.928  0.6581 -4.6460 -0.9154
13527TIP3    H261997   6.481   6.272   0.936 -1.1607  1.4098 -0.1287
13528TIP3   OH261998   3.406   2.673  11.170 -0.8838 -0.1283 -0.1501
13528TIP3    H161999   3.330   2.627  11.204 -0.0501 -0.4682  1.3936
13528TIP3    H262000   3.477   2.608  11.174  0.1377  0.9886  1.3574
13529TIP3   OH262001   0.115   0.706  15.797  0.0677 -0.5079  0.5801
13529TIP3    H162002   0.176   0.757  15.743 -0.7618 -0.1559 -0.0448
13529TIP3    H262003   0.162   0.692  15.879  0.3976  1.1245  0.7188
13530TIP3   OH262004   2.406   6.084   2.810  0.2329 -0.3397  0.1839
13530TIP3    H162005   2.330   6.134   2.838 -0.1423  1.1170 -2.9355
13530TIP3    H262006   2.480   6.124   2.855 -0.5539 -0.0671  1.2568
13531TIP3   OH262007   3.564   4.202  16.458  0.2710  0.0333 -0.4122
13531TIP3    H162008   3.591   4.134  16.396 -0.3227  0.9564 -1.7135
13531TIP3    H262009   3.549   4.279  16.404 -0.4623  0.8145  0.8653
13532TIP3   OH262010   3.019   5.445  17.195  0.6703 -0.2478  0.7299
13532TIP3    H162011   3.052   5.518  17.142  0.4090  0.2516  1.2414
13532TIP3    H262012   3.097   5.396  17.220  0.7407 -0.8357 -0.6161
13533TIP3   OH262013   5.885   4.273   2.127 -0.0785 -0.4380  0.1925
13533TIP3    H162014   5.893   4.285   2.222 -0.7731  0.0779  0.1903
13533TIP3    H262015   5.798   4.306   2.106  0.2653 -0.0803 -0.7069
13534TIP3   OH262016   3.668   0.677  15.987 -0.3920 -0.3749  0.3380
13534TIP3    H162017   3.744   0.636  15.946 -0.9076 -0.7959 -0.2043
13534TIP3    H262018   3.684   0.771  15.977 -0.9709 -0.4425 -1.7471
13535TIP3   OH262019   3.194   5.218   2.904 -0.2977 -0.2544 -0.1729
13535TIP3    H162020   3.196   5.148   2.839 -0.5781 -0.6673  0.2547
13535TIP3    H262021   3.269   5.201   2.961 -1.4364 -1.3335  1.0694
13536TIP3   OH262022   5.610   1.359  11.905 -0.3965  0.1039 -0.1675
13536TIP3    H162023   5.650   1.424  11.847  0.5400  0.0363  0.3854
13536TIP3    H262024   5.664   1.280  11.893 -1.1406 -0.3832 -0.3651
13537TIP3   OH262025   4.515   3.250   4.003  0.3659  0.5562 -0.2918
13537TIP3    H162026   4.606   3.223   3.993  0.1369 -0.0778 -0.7306
13537TIP3    H262027   4.511   3.336   3.962  1.0752  1.2369  1.0001
13538TIP3   OH262028   2.860   0.837   2.233  0.0731  0.0724  0.4509
13538TIP3    H162029   2.784   0.779   2.223  1.1457 -1.5870  1.5797
13538TIP3    H262030   2.841   0.888   2.311  0.1459 -0.3757  0.7614
13539TIP3   OH262031   5.263   6.204  12.984 -0.0306  0.1068  0.1868
13539TIP3    H162032   5.348   6.186  13.024  0.5323 -1.2898 -1.5397
13539TIP3    H262033   5.214   6.122  12.995  0.1799 -0.3653 -1.9780
13540TIP3   OH262034   3.429   2.865  13.297 -0.2026  0.4640  0.3559
13540TIP3    H162035   3.415   2.806  13.371 -0.9495 -0.7320 -0.7062
13540TIP3    H262036   3.521   2.852  13.274 -0.8180 -1.8575 -1.1085
13541TIP3   OH262037   1.300   5.169   1.795  0.4786 -0.3953 -0.7291
13541TIP3    H162038   1.327   5.086   1.756  0.8636 -0.7001  0.1679
13541TIP3    H262039   1.375   5.228   1.780  0.8330 -0.6565 -0.0284
13542TIP3   OH262040   3.149   4.740   4.046 -0.1822  0.5103  0.4928
13542TIP3    H162041   3.099   4.799   3.990 -0.0021  0.4500  0.2654
13542TIP3    H262042   3.173   4.668   3.988  1.8523  1.4719  0.0674
13543TIP3   OH262043   2.495   4.240  14.484 -0.0329 -0.0465 -0.4775
13543TIP3    H162044   2.466   4.311  14.541  3.3529  1.2304 -0.1568
13543TIP3    H262045   2.487   4.161  14.539 -1.2938  0.4372  0.0736
13544TIP3   OH262046   0.864   1.341  12.615  0.3956 -0.0709  0.2486
13544TIP3    H162047   0.940   1.394  12.591  2.0787 -2.4209  0.1326
13544TIP3    H262048   0.832   1.307  12.531  0.8390 -1.1789  0.5230
13545TIP3   OH262049   1.298   1.812   2.251 -0.1313  0.0184 -0.1221
13545TIP3    H162050   1.349   1.791   2.173 -0.4929  0.1733 -0.4015
13545TIP3    H262051   1.281   1.906   2.244  0.8394  0.2913  0.7418
13546TIP3   OH262052   1.837   5.192   2.933  0.0141 -0.0031 -0.0511
13546TIP3    H162053   1.791   5.108   2.934 -0.6072  0.2352  3.5084
13546TIP3    H262054   1.789   5.244   2.869 -0.9498 -1.6577 -0.7418
13547TIP3   OH262055   2.000   0.963  17.176 -0.0224 -0.6753 -0.0802
13547TIP3    H162056   2.073   0.966  17.113 -0.3911  1.4065 -0.4937
13547TIP3    H262057   1.927   1.004  17.130 -1.1502 -1.7424  0.7169
13548TIP3   OH262058   5.743   3.778  14.729 -0.3360 -0.1653  0.2172
13548TIP3    H162059   5.784   3.693  14.714  2.1138  0.7735  1.1478
13548TIP3    H262060   5.736   3.817  14.642  1.9369  0.1148  0.1021
13549TIP3   OH262061   2.057   3.574   3.440 -0.9002  0.6108 -0.6839
13549TIP3    H162062   1.964   3.560   3.424 -0.5741 -2.1461 -0.6173
13549TIP3    H262063   2.086   3.628   3.367 -2.2517  0.2270 -1.5432
13550TIP3   OH262064   1.357   2.495   4.856  0.1828  0.3457 -0.0639
13550TIP3    H162065   1.415   2.556   4.810  0.5292  0.0275 -0.0507
13550TIP3    H262066   1.269   2.517   4.824  0.0176  2.3043  1.5120
13551TIP3   OH262067   3.802   3.110  14.663  0.1684 -0.4617 -0.1626
13551TIP3    H162068   3.715   3.097  14.702  1.3760 -0.3246  2.8746
13551TIP3    H262069   3.796   3.067  14.578 -2.5852 -1.2866  0.3267
13552TIP3   OH262070   3.433   2.930   3.667 -0.3007 -0.3205 -0.3565
13552TIP3    H162071   3.386   3.003   3.709 -1.3494 -2.4770  2.5388
13552TIP3    H262072   3.489   2.895   3.736  0.6261 -1.9116 -1.8390
13553TIP3   OH262073   5.215   5.486  11.651 -0.3691  0.3375  0.4339
13553TIP3    H162074   5.261   5.554  11.700 -0.4776  0.1305  0.8319
13553TIP3    H262075   5.136   5.529  11.617 -1.5241 -0.0635  2.4223
13554TIP3   OH262076   5.995   4.134  12.358  0.8973 -0.4717  0.4057
13554TIP3    H162077   5.956   4.212  12.317 -0.3070 -0.6581  1.1280
13554TIP3    H262078   5.981   4.064  12.294  0.3780 -0.4520  0.4917
13555TIP3   OH262079   4.780   4.136  14.619  0.0186  0.4060 -0.2117
13555TIP3    H162080   4.697   4.184  14.621  0.2242  0.7670  1.6576
13555TIP3    H262081   4.843   4.198  14.583 -0.2464  0.6120 -0.3225
13556TIP3   OH262082   4.799   3.133  14.039 -0.3388  0.1648  0.2297
13556TIP3    H162083   4.852   3.163  14.113  1.2834  0.0324 -0.8505
13556TIP3    H262084   4.835   3.048  14.016 -1.5322 -0.2821 -0.0519
13557TIP3   OH262085   6.172   1.893  11.747 -0.0821  0.3655 -0.0425
13557TIP3    H162086   6.150   1.894  11.654  1.5450 -0.9977 -0.4939
13557TIP3    H262087   6.095   1.929  11.790 -1.0986  0.5042 -1.8715
13558TIP3   OH262088   2.025   1.683  17.181 -0.1015 -0.1647  0.2621
13558TIP3    H162089   2.024   1.644  17.268  0.6743  0.9228  0.7753
13558TIP3    H262090   1.949   1.742  17.181  1.2168  1.6260  1.0858
13559TIP3   OH262091   0.022   0.435  14.027 -0.2988 -0.0604 -0.1649
13559TIP3    H162092   0.013   0.503  13.960 -3.6104 -0.0925  0.0501
13559TIP3    H262093  -0.047   0.455  14.090  0.6135 -1.9077  1.5088
13560TIP3   OH262094   3.832   6.531   2.438  0.2613  0.3441 -0.0926
13560TIP3    H162095   3.812   6.552   2.347  0.9358  0.5399 -0.1946
13560TIP3    H262096   3.818   6.614   2.485 -0.1910  0.2169  0.0041
13561TIP3   OH262097   6.083   5.486  14.003 -0.1965  0.1847  0.2788
13561TIP3    H162098   5.997   5.520  13.978 -1.1859 -2.0435  0.3961
13561TIP3    H262099   6.119   5.449  13.922 -0.7556 -1.6628  0.8364
13562TIP3   OH262100   6.337   1.546   0.422  0.5367  0.2291 -0.4751
13562TIP3    H162101   6.279   1.610   0.380  0.9758  1.3277  0.5451
13562TIP3    H262102   6.416   1.546   0.368  1.5309  2.4372  0.8742
13563TIP3   OH262103   3.616   4.276   5.645 -0.4464  0.3391 -0.1889
13563TIP3    H162104   3.638   4.315   5.730  0.2872  1.6793 -0.9557
13563TIP3    H262105   3.628   4.182   5.658 -2.1272  0.3046  1.6888
13564TIP3   OH262106   3.145   0.496  13.916  0.1171  0.4695 -0.1882
13564TIP3    H162107   3.237   0.472  13.913  0.2008 -0.0714  3.0112
13564TIP3    H262108   3.098   0.413  13.912  0.0077  0.3813  1.6756
13565TIP3   OH262109   3.855   6.644  13.760 -0.2274 -0.0830 -0.2127
13565TIP3    H162110   3.859   6.581  13.688  0.6097  0.7875 -0.9617
13565TIP3    H262111   3.819   6.724  13.720  0.6106  0.5288  0.2330
13566TIP3   OH262112   0.168   6.510   2.769 -0.1393 -0.1570 -0.2098
13566TIP3    H162113   0.235   6.516   2.701  0.3528  1.5975  0.3729
13566TIP3    H262114   0.214   6.531   2.850 -0.8023 -1.8183  0.6523
13567TIP3   OH262115   5.871   3.468   1.832  0.5269  0.5751 -0.2550
13567TIP3    H162116   5.948   3.504   1.877  1.1556 -1.3204  0.2880
13567TIP3    H262117   5.803   3.464   1.900 -0.2108  2.5581 -0.8143
13568TIP3   OH262118   5.550   5.908   4.713 -0.1199 -0.0491 -0.0338
13568TIP3    H162119   5.580   5.891   4.802 -0.3381  0.1583  0.0786
13568TIP3    H262120   5.604   5.851   4.658 -0.0748 -0.2690  0.2410
13569TIP3   OH262121   1.390   2.087  15.255 -0.2458  0.0665  0.3850
13569TIP3    H162122   1.450   2.156  15.228 -0.4538  0.2501  0.3929
13569TIP3    H262123   1.323   2.131  15.307 -2.2048  0.4502 -2.2266
13570TIP3   OH262124   4.993   5.885   3.259  0.0832 -0.0058 -0.0981
13570TIP3    H162125   5.077   5.844   3.241 -0.1454 -0.1466 -0.8487
13570TIP3    H262126   5.016   5.969   3.300  0.6974  1.2935 -2.8908
13571TIP3   OH262127   4.918   6.308  12.876 -0.2345  0.3566 -0.2443
13571TIP3    H162128   4.849   6.335  12.937 -0.0246  0.4047 -0.0271
13571TIP3    H262129   4.984   6.376  12.884  0.4441 -0.3802  0.5360
13572TIP3   OH262130   6.394   5.036  12.117  0.1166  0.0191  0.0973
13572TIP3    H162131   6.387   4.978  12.041  1.9272 -0.3532  0.1718
13572TIP3    H262132   6.412   5.122  12.080 -1.2581  0.3073  0.0425
13573TIP3   OH262133   2.444   1.544   1.625  0.7594  0.2778  0.4117
13573TIP3    H162134   2.516   1.487   1.651 -0.9533 -1.7584  0.9881
13573TIP3    H262135   2.373   1.521   1.685 -1.5083 -0.3517 -2.3290
13574TIP3   OH262136   5.278   4.127   2.465  0.3861  0.5313 -0.3271
13574TIP3    H162137   5.321   4.043   2.453  1.5916  1.4590 -3.3517
13574TIP3    H262138   5.197   4.106   2.512  0.7896 -2.2442 -0.6986
13575TIP3   OH262139   6.560   0.410   0.584 -0.4271  0.2722 -0.0059
13575TIP3    H162140   6.521   0.477   0.529  0.4149 -0.4143 -1.5116
13575TIP3    H262141   6.618   0.459   0.644  0.3637  0.9042 -1.2389
13576TIP3   OH262142   3.530   1.067   4.012 -0.5367 -0.1949 -0.7133
13576TIP3    H162143   3.559   1.013   4.085 -2.9135 -1.7265 -0.7958
13576TIP3    H262144   3.586   1.041   3.939  1.7938  1.2838  0.4280
13577TIP3   OH262145   0.538   6.613  15.745 -0.3085  0.0567  0.1112
13577TIP3    H162146   0.488   6.566  15.812  0.5588 -1.9617 -0.5977
13577TIP3    H262147   0.558   6.697  15.786 -1.0377 -0.5517  1.8317
13578TIP3   OH262148   6.069   4.814   0.215 -0.2324  0.4251  0.0133
13578TIP3    H162149   6.157   4.810   0.251  0.3185  3.5497 -0.6424
13578TIP3    H262150   6.015   4.763   0.275  1.9303 -1.3543  0.5641
13579TIP3   OH262151   1.711   1.039   2.543 -0.3600 -0.4692  0.1818
13579TIP3    H162152   1.717   0.949   2.572  1.1710 -0.6712 -0.6344
13579TIP3    H262153   1.706   1.033   2.447 -0.0178  0.3024  0.1072
13580TIP3   OH262154   6.689   0.954   2.288 -0.1017 -0.0888 -0.4325
13580TIP3    H162155   6.669   1.044   2.260 -3.4737 -0.5172  0.1766
13580TIP3    H262156   6.742   0.918   2.218 -0.9031  1.5921 -1.9720
13581TIP3   OH262157   0.037   5.377  12.934  0.3198 -0.0936  0.3016
13581TIP3    H162158   0.032   5.401  12.842  0.4173  1.7530  0.7336
13581TIP3    H262159   0.129   5.353  12.947  0.2984 -0.3914 -0.0939
13582TIP3   OH262160   2.467   0.624  14.112 -0.3168  0.0979  0.0019
13582TIP3    H162161   2.464   0.529  14.116 -0.2854 -0.0465 -2.2024
13582TIP3    H262162   2.473   0.652  14.204 -0.1854 -1.9997  0.6813
13583TIP3   OH262163   6.073   1.790   2.783  0.7520  1.0029  0.0142
13583TIP3    H162164   6.003   1.855   2.788 -1.4112 -1.0554 -1.6415
13583TIP3    H262165   6.084   1.775   2.689  0.5874 -1.5924  0.3586
13584TIP3   OH262166   6.153   1.725  17.365  0.2669 -0.5603  0.1096
13584TIP3    H162167   6.152   1.759  17.455  0.6634 -1.4714  0.4649
13584TIP3    H262168   6.214   1.783  17.319 -0.4077  0.2942  0.2645
13585TIP3   OH262169   2.930   4.094  15.892  0.4497 -0.0622  0.3620
13585TIP3    H162170   2.990   4.090  15.966 -0.8905 -0.1010  1.4901
13585TIP3    H262171   2.861   4.155  15.919 -1.4769 -2.0648  0.2941
13586TIP3   OH262172   6.209   0.994  11.179  0.1571 -0.3131  0.3509
13586TIP3    H162173   6.214   0.940  11.100  0.7443  0.1005  0.1027
13586TIP3    H262174   6.288   0.972  11.228 -0.5133 -1.0473  1.1446
13587TIP3   OH262175   2.625   6.461   1.211  0.0836  0.0176 -0.2802
13587TIP3    H162176   2.674   6.430   1.135 -2.2921 -0.3942 -1.7561
13587TIP3    H262177   2.549   6.402   1.216 -0.3545  0.6771  1.8141
13588TIP3   OH262178   2.986   5.425  12.871  0.1931 -0.0036  0.0650
13588TIP3    H162179   2.956   5.491  12.934 -1.3672  0.6653 -1.3147
13588TIP3    H262180   2.919   5.356  12.876 -0.5589  0.5636 -1.6049
13589TIP3   OH262181   5.400   5.272   0.559  0.3840 -0.2016 -0.0285
13589TIP3    H162182   5.364   5.263   0.647 -1.9095 -0.4820 -0.9083
13589TIP3    H262183   5.386   5.364   0.536  0.2402 -0.3117 -0.3874
13590TIP3   OH262184   5.285   3.458  16.789  0.1446  0.4564  0.0139
13590TIP3    H162185   5.223   3.436  16.719  1.3104  0.6460 -1.1104
13590TIP3    H262186   5.254   3.408  16.864  0.4982 -2.0738 -1.4125
13591TIP3   OH262187   6.288   3.415  13.819  0.9528  0.0125  0.5900
13591TIP3    H162188   6.201   3.393  13.786  1.3283 -1.8442  0.7524
13591TIP3    H262189   6.279   3.413  13.914  1.4757 -1.6644  0.6349
13592TIP3   OH262190   5.958   4.623  15.295  0.0851 -0.3847 -0.6016
13592TIP3    H162191   5.935   4.553  15.356  0.3128 -0.1349 -0.2215
13592TIP3    H262192   5.915   4.600  15.213 -0.3097 -0.6707 -0.3123
13593TIP3   OH262193   2.957   5.500  16.604 -0.2363 -0.0424 -0.1509
13593TIP3    H162194   2.865   5.490  16.582  0.0398 -0.2642 -1.2977
13593TIP3    H262195   3.004   5.467  16.527  0.7870  2.9753 -0.9590
13594TIP3   OH262196   1.609   3.487  17.460  0.7831 -0.0976  0.1650
13594TIP3    H162197   1.640   3.410  17.413  2.8044  0.1266  1.0215
13594TIP3    H262198   1.611   3.461  17.552  3.3119  1.4634  0.6517
13595TIP3   OH262199   0.617   5.639  16.237  0.0516 -0.6549 -0.5286
13595TIP3    H162200   0.581   5.718  16.195  0.7519  0.2777  0.5725
13595TIP3    H262201   0.670   5.673  16.309  0.7417 -2.1337 -0.3228
13596TIP3   OH262202   1.728   1.932   0.541 -0.4883 -0.0324 -0.2256
13596TIP3    H162203   1.819   1.902   0.551 -0.6810 -1.0595 -1.3350
13596TIP3    H262204   1.699   1.891   0.460 -1.5858  1.2060 -0.4771
13597TIP3   OH262205   5.475   0.493   1.936  0.4093  0.2458 -1.0563
13597TIP3    H162206   5.507   0.441   1.862  1.5684  1.2866 -1.3227
13597TIP3    H262207   5.515   0.454   2.013  1.6188  0.9726 -1.2967
13598TIP3   OH262208   5.284   0.959   1.583 -0.1337 -0.9230  0.5599
13598TIP3    H162209   5.360   0.976   1.527 -0.8751 -0.4567 -0.3248
13598TIP3    H262210   5.312   0.985   1.671 -0.2250  2.1154 -0.2128
13599TIP3   OH262211   2.300   6.411  15.951 -0.6942 -0.0764 -0.4643
13599TIP3    H162212   2.269   6.333  15.997  0.4373 -1.0952 -1.3634
13599TIP3    H262213   2.389   6.424  15.984 -0.7884  0.7109 -0.4967
13600TIP3   OH262214   2.939   1.778   6.520 -0.7492 -0.1236 -0.3669
13600TIP3    H162215   3.005   1.835   6.480  1.9592 -2.6489  0.1202
13600TIP3    H262216   2.885   1.838   6.572  2.2541  2.0096  0.6113
13601TIP3   OH262217   5.300   1.457  15.212 -0.0849 -0.2129 -0.5564
13601TIP3    H162218   5.316   1.373  15.170 -1.4683 -0.9867  0.3715
13601TIP3    H262219   5.232   1.498  15.158 -2.1397 -1.3739  1.0341
13602TIP3   OH262220   2.667   3.676  12.347  0.0609 -0.2524  0.1011
13602TIP3    H162221   2.582   3.698  12.385 -0.2729  1.1541 -1.3410
13602TIP3    H262222   2.730   3.728  12.396 -0.0394 -0.4825  0.4750
13603TIP3   OH262223   1.653   0.961   4.434 -0.4364  0.3006  0.2460
13603TIP3    H162224   1.581   0.931   4.378 -0.4265  0.4713  0.1409
13603TIP3    H262225   1.714   1.003   4.373  0.2292 -0.6989  0.1884
13604TIP3   OH262226   5.668   4.841  10.294 -0.5513 -0.1265 -0.1598
13604TIP3    H162227   5.606   4.769  10.301 -1.1661  0.3751 -0.3263
13604TIP3    H262228   5.652   4.895  10.372 -0.5342  0.1581 -0.3488
13605TIP3   OH262229   5.744   5.060  12.569 -0.4487 -0.2983  0.7440
13605TIP3    H162230   5.714   4.983  12.520 -1.2247  0.3704  0.1436
13605TIP3    H262231   5.840   5.052  12.569 -0.5146 -1.1634  0.5180
13606TIP3   OH262232   0.376   2.463  17.243  0.2339 -0.3257 -0.1802
13606TIP3    H162233   0.411   2.471  17.154  1.8473 -1.3359  0.3224
13606TIP3    H262234   0.337   2.376  17.246  0.7674 -0.5528  0.2859
13607TIP3   OH262235   2.552   3.464   2.968  0.0143  0.1280 -0.1226
13607TIP3    H162236   2.614   3.508   3.025  1.7731  0.6562 -2.2977
13607TIP3    H262237   2.484   3.431   3.027  0.5077  2.5577  1.9870
13608TIP3   OH262238   4.922   5.937   0.698 -0.0221 -0.0406 -0.1290
13608TIP3    H162239   4.957   5.962   0.784 -0.5232 -1.7434  0.6120
13608TIP3    H262240   4.964   5.998   0.637  0.9263  0.7290  1.2209
13609TIP3   OH262241   6.374   0.497   0.801  0.1435  0.4284 -0.2119
13609TIP3    H162242   6.350   0.451   0.720  0.8035  0.0118 -0.1794
13609TIP3    H262243   6.465   0.471   0.817  0.3540  1.3482  0.0971
13610TIP3   OH262244   5.313   0.730   4.311  0.3905  0.5249 -0.0619
13610TIP3    H162245   5.236   0.783   4.333  0.6127  0.6662  0.3783
13610TIP3    H262246   5.291   0.690   4.227 -0.4913 -0.0732  0.4424
13611TIP3   OH262247   1.125   2.357   4.034 -0.3060  0.0457 -0.5571
13611TIP3    H162248   1.083   2.368   3.948 -0.2688  0.5612 -0.5126
13611TIP3    H262249   1.180   2.434   4.043 -1.1166  0.5389  0.3855
13612TIP3   OH262250   2.320   2.528   4.672  0.2530 -0.4115  0.0863
13612TIP3    H162251   2.313   2.611   4.626 -0.7483 -0.6041 -0.1341
13612TIP3    H262252   2.265   2.468   4.623  2.0844 -1.6255 -0.6169
13613TIP3   OH262253   1.715   2.674  11.489  0.0214 -0.0718  0.1367
13613TIP3    H162254   1.641   2.689  11.431 -1.2404  0.2939  1.7592
13613TIP3    H262255   1.702   2.585  11.523  0.9707 -0.4410 -0.4171
13614TIP3   OH262256   6.682   2.397   0.186 -0.3877  0.3462 -0.3617
13614TIP3    H162257   6.661   2.403   0.093 -0.8544 -0.6240 -0.3359
13614TIP3    H262258   6.598   2.380   0.228  0.0846 -1.2276  0.0118
13615TIP3   OH262259   2.975   0.792  16.875 -0.1727  0.3431  1.0693
13615TIP3    H162260   3.012   0.880  16.867 -1.8633  1.0822  1.0477
13615TIP3    H262261   2.884   0.802  16.849  0.4007 -2.1184 -2.7607
13616TIP3   OH262262   1.866   1.991   2.319 -0.5591  0.1780 -0.0187
13616TIP3    H162263   1.797   2.057   2.316 -1.6131 -0.9093 -0.1697
13616TIP3    H262264   1.879   1.965   2.228  1.0518  1.3492 -0.1735
13617TIP3   OH262265   4.526   6.368   1.177 -0.2168  0.9676  1.1475
13617TIP3    H162266   4.621   6.358   1.167 -0.1079  1.5508  1.5023
13617TIP3    H262267   4.499   6.292   1.228 -0.3579 -0.5683 -1.0931
13618TIP3   OH262268   1.739   0.391  16.177  0.5704  0.5166  0.4334
13618TIP3    H162269   1.733   0.409  16.270 -0.6277  1.3016  0.2327
13618TIP3    H262270   1.832   0.396  16.157  0.7253  1.6024  1.3492
13619TIP3   OH262271   1.577   4.252   6.447 -0.6438  0.0944  0.9398
13619TIP3    H162272   1.486   4.280   6.456 -0.8437  1.4219 -3.0544
13619TIP3    H262273   1.628   4.332   6.458 -0.1179 -0.2537  1.0955
13620TIP3   OH262274   0.906   6.535   6.775  0.4655 -0.3273  0.5559
13620TIP3    H162275   0.948   6.461   6.730 -0.8208 -0.7925  0.0662
13620TIP3    H262276   0.930   6.611   6.722 -1.0920 -0.8744 -1.0574
13621TIP3   OH262277   2.828   3.441   4.689 -0.2287 -0.1048 -0.2130
13621TIP3    H162278   2.893   3.451   4.620  0.5926 -1.2693  0.3811
13621TIP3    H262279   2.744   3.453   4.644  0.3508  1.0063 -1.0557
13622TIP3   OH262280   6.407   3.583   6.798  0.0549  0.0302 -0.5191
13622TIP3    H162281   6.488   3.543   6.830 -0.7543 -0.9714  0.3456
13622TIP3    H262282   6.368   3.622   6.876 -0.1093  0.8631 -1.0079
13623TIP3   OH262283   4.561   3.276   2.395 -0.5165 -0.4921 -0.2468
13623TIP3    H162284   4.473   3.240   2.391 -1.4705  1.6088  0.3990
13623TIP3    H262285   4.614   3.216   2.342 -1.9931 -2.6346  0.5631
13624TIP3   OH262286   4.215   1.188   4.902 -0.1925 -0.1972 -0.1815
13624TIP3    H162287   4.268   1.265   4.883  0.0287 -0.6753 -1.5865
13624TIP3    H262288   4.263   1.115   4.863 -2.1831 -0.5629 -2.1742
13625TIP3   OH262289   0.355   1.637  16.608  0.5456  0.0540  0.5992
13625TIP3    H162290   0.376   1.613  16.698  1.8669  0.4163  0.4031
13625TIP3    H262291   0.325   1.727  16.614 -1.3863 -0.5605  0.9213
13626TIP3   OH262292   3.419   5.792   4.206  0.0896  0.6370  0.3892
13626TIP3    H162293   3.471   5.844   4.268  1.3108 -1.1889  0.9838
13626TIP3    H262294   3.484   5.742   4.157 -0.9336  1.1957 -1.6225
13627TIP3   OH262295   6.413   3.292   0.972 -0.4016  0.4308 -0.2858
13627TIP3    H162296   6.449   3.370   1.013 -1.1029 -0.0172  1.2775
13627TIP3    H262297   6.414   3.225   1.042  1.5465 -1.4341 -1.9628
13628TIP3   OH262298   4.578   6.713  14.536  0.0398 -0.1012 -0.2686
13628TIP3    H162299   4.585   6.618  14.535 -0.3203 -0.1422  0.4381
13628TIP3    H262300   4.668   6.744  14.548 -0.0044 -0.4023  0.9554
13629TIP3   OH262301   0.095   6.556   1.285  0.6376 -0.4439  0.2582
13629TIP3    H162302   0.018   6.588   1.331  0.1183 -0.6592 -0.4383
13629TIP3    H262303   0.091   6.461   1.294  0.1457 -0.5424 -0.7869
13630TIP3   OH262304   4.246   3.925   6.012  0.2159 -0.5111  0.6514
13630TIP3    H162305   4.299   3.986   6.064  0.5455 -0.3897  0.1802
13630TIP3    H262306   4.274   3.838   6.042  0.5395 -0.4438  0.5515
13631TIP3   OH262307   1.086   5.826   2.470 -0.3840  0.1981  0.4306
13631TIP3    H162308   1.129   5.741   2.479 -1.0708 -0.1077  0.9199
13631TIP3    H262309   1.121   5.878   2.543  2.5294  1.4718 -1.7102
13632TIP3   OH262310   2.827   2.619   0.475  0.5510  0.2648 -0.0072
13632TIP3    H162311   2.918   2.648   0.470  0.0148  2.3522  1.1588
13632TIP3    H262312   2.789   2.647   0.391  0.7060  0.4666 -0.0127
13633TIP3   OH262313   6.472   3.498  15.547  0.2696 -0.3655  0.3481
13633TIP3    H162314   6.543   3.544  15.592 -0.4265  0.7082  0.3715
13633TIP3    H262315   6.434   3.441  15.614  0.5416 -0.2901  0.5669
13634TIP3   OH262316   5.393   5.646  15.111  0.6599 -0.6225 -0.1347
13634TIP3    H162317   5.452   5.679  15.179 -0.0035  0.9053 -0.2481
13634TIP3    H262318   5.308   5.686  15.132  0.3582 -0.4398 -1.6307
13635TIP3   OH262319   2.913   5.631  14.871 -0.1134 -0.1290 -0.4859
13635TIP3    H162320   2.885   5.561  14.930 -1.3681  1.5552  1.0315
13635TIP3    H262321   2.864   5.616  14.790  0.2122 -1.3963 -0.4676
13636TIP3   OH262322   1.383   5.537  17.099 -0.4001 -0.4614 -0.2229
13636TIP3    H162323   1.299   5.584  17.100 -0.3055 -0.0785  3.5325
13636TIP3    H262324   1.446   5.601  17.133  1.4621 -0.8114 -2.7732
13637TIP3   OH262325   0.083   2.239  12.135 -0.4099 -0.1125 -0.0383
13637TIP3    H162326   0.141   2.303  12.178 -1.8446  1.6701 -0.6080
13637TIP3    H262327   0.004   2.240  12.188 -0.4302 -1.5437 -0.0094
13638TIP3   OH262328   3.306   4.673   1.496 -0.1023 -0.0698  0.2484
13638TIP3    H162329   3.247   4.673   1.420 -0.0789 -0.2748  0.2324
13638TIP3    H262330   3.338   4.763   1.500  1.3969 -0.4924 -1.1388
13639TIP3   OH262331   2.551   3.259  15.203  0.5277  0.8612 -0.5173
13639TIP3    H162332   2.583   3.335  15.252 -0.3582  1.8739 -1.4600
13639TIP3    H262333   2.539   3.291  15.114 -0.2938 -0.2676 -0.8340
13640TIP3   OH262334   6.679   5.655   1.528  0.3339  0.1733 -0.2733
13640TIP3    H162335   6.738   5.620   1.595 -1.0942  0.8944  1.4426
13640TIP3    H262336   6.644   5.577   1.484  0.0374 -0.3941  0.9447
13641TIP3   OH262337   0.785   0.656  10.919  0.6132  0.3655  0.2484
13641TIP3    H162338   0.857   0.597  10.899  2.0089  2.2527 -0.6220
13641TIP3    H262339   0.746   0.621  10.999  1.0683 -1.9392 -0.4822
13642TIP3   OH262340   2.417   0.621   5.135 -0.2162 -0.2107  0.3155
13642TIP3    H162341   2.411   0.547   5.075  1.9811  0.1233 -0.4157
13642TIP3    H262342   2.334   0.621   5.182 -1.6336 -1.0741 -2.0491
13643TIP3   OH262343   5.698   4.796  15.401 -0.2620 -0.6338  0.2939
13643TIP3    H162344   5.686   4.859  15.330 -1.4182  0.1096  1.1207
13643TIP3    H262345   5.789   4.768  15.393 -0.2069 -0.1575 -1.1332
13644TIP3   OH262346   4.455   5.689   6.014 -0.1842  0.1369  0.1733
13644TIP3    H162347   4.364   5.684   6.044 -0.5733  0.5908 -0.8729
13644TIP3    H262348   4.470   5.783   6.002 -0.6849 -0.0937 -2.8324
13645TIP3   OH262349   5.663   0.522   3.695  0.3776 -0.0754 -0.3283
13645TIP3    H162350   5.570   0.543   3.688  0.0043 -1.7084 -0.6892
13645TIP3    H262351   5.665   0.432   3.728  1.8975  1.2040  3.6292
13646TIP3   OH262352   4.853   3.249   0.239 -0.0132 -0.1878 -0.7170
13646TIP3    H162353   4.807   3.258   0.156 -0.5319  0.5745 -0.3685
13646TIP3    H262354   4.941   3.221   0.216 -0.4227 -0.9038 -1.4559
13647TIP3   OH262355   3.888   2.051  16.656 -0.0355 -0.3694 -0.0835
13647TIP3    H162356   3.940   2.126  16.628 -0.8693  0.3374  0.2377
13647TIP3    H262357   3.944   2.006  16.720  0.7052 -0.3798 -0.7120
13648TIP3   OH262358   5.816   2.383  12.286 -0.4589  0.2144 -0.3883
13648TIP3    H162359   5.816   2.375  12.190 -0.9279 -1.6849 -0.2678
13648TIP3    H262360   5.732   2.424  12.306 -0.4159  0.4995 -0.7830
13649TIP3   OH262361   6.414   5.418   0.481  0.1383 -0.3064 -0.1695
13649TIP3    H162362   6.429   5.328   0.511 -1.3803 -0.5814 -0.1550
13649TIP3    H262363   6.425   5.414   0.386  2.7462  0.1043  0.0217
13650TIP3   OH262364   4.510   0.455   3.456 -0.4126 -0.1125 -0.1039
13650TIP3    H162365   4.492   0.549   3.460  0.1846  0.1309 -2.1379
13650TIP3    H262366   4.555   0.442   3.372 -1.1155 -2.3093 -0.2200
13651TIP3   OH262367   0.303   5.206  14.971 -0.8080 -0.4283 -0.1557
13651TIP3    H162368   0.311   5.142  14.900 -1.3083  1.3469 -1.9040
13651TIP3    H262369   0.251   5.276  14.933  0.9691  1.7232  1.1841
13652TIP3   OH262370   0.407   2.816  16.944 -0.2982 -0.0411  0.0550
13652TIP3    H162371   0.467   2.764  16.996 -2.0303 -2.2596 -0.0029
13652TIP3    H262372   0.340   2.846  17.006  0.0312  1.1478 -0.1330
13653TIP3   OH262373   3.561   5.915  12.079  0.0833  0.0613 -0.2856
13653TIP3    H162374   3.625   5.987  12.080 -0.0148  0.1477  1.2168
13653TIP3    H262375   3.492   5.944  12.138 -0.9977 -0.3685 -1.3152
13654TIP3   OH262376   2.473   5.763   2.376  0.0284 -0.1650 -0.1904
13654TIP3    H162377   2.468   5.768   2.471 -1.0185  1.8025 -0.3040
13654TIP3    H262378   2.524   5.839   2.350 -2.3146  1.1334 -1.3083
13655TIP3   OH262379   5.114   1.239  10.944 -0.1092  0.3025  0.0646
13655TIP3    H162380   5.048   1.174  10.971  2.1366 -3.0417 -1.7012
13655TIP3    H262381   5.079   1.276  10.864 -0.7841  0.1242  0.2699
13656TIP3   OH262382   2.663   6.032   2.971  0.0481  0.0986  0.0811
13656TIP3    H162383   2.704   6.044   2.885  1.3228 -0.3615  0.5970
13656TIP3    H262384   2.736   6.006   3.028 -0.4889  1.9168  1.6559
13657TIP3   OH262385   5.635   3.369  16.010  0.3092  0.0294 -0.2273
13657TIP3    H162386   5.703   3.401  16.069 -1.0539  1.0045  0.8853
13657TIP3    H262387   5.620   3.441  15.949  0.9783 -0.5892 -1.1737
13658TIP3   OH262388   3.130   5.194  16.198 -0.0740  0.2914  0.4869
13658TIP3    H162389   3.071   5.150  16.138 -1.7112  1.8254  0.8671
13658TIP3    H262390   3.185   5.125  16.234 -1.0131 -1.0588 -0.6031
13659TIP3   OH262391   0.707   1.441   4.795 -0.0411  0.8689  0.6543
13659TIP3    H162392   0.730   1.530   4.824 -1.2425  0.9142  1.5646
13659TIP3    H262393   0.767   1.423   4.723  0.0945  2.5080  0.3169
13660TIP3   OH262394   3.418   5.464  10.946  0.1354  0.1036 -0.1312
13660TIP3    H162395   3.405   5.519  11.024 -1.1371  0.0234 -0.2665
13660TIP3    H262396   3.414   5.525  10.873  0.1405  0.0183 -0.2022
13661TIP3   OH262397   4.449   6.155  12.233 -0.1265 -0.3152  0.5942
13661TIP3    H162398   4.462   6.105  12.153  3.6294  0.3973  0.5988
13661TIP3    H262399   4.423   6.089  12.298 -0.2513 -1.3854 -0.5118
13662TIP3   OH262400   3.884   4.512   4.406 -0.4034  0.1787 -0.6803
13662TIP3    H162401   3.890   4.606   4.391  0.6004  0.1424 -0.5675
13662TIP3    H262402   3.808   4.502   4.464 -0.3470  0.9445 -0.4599
13663TIP3   OH262403   1.196   5.611  13.423  0.2151 -0.0973  0.1667
13663TIP3    H162404   1.248   5.533  13.442  0.5038  0.3907  1.5195
13663TIP3    H262405   1.145   5.625  13.502 -1.0469  0.1772 -0.6709
13664TIP3   OH262406   5.639   5.524   4.592 -0.1769 -0.2406 -0.3698
13664TIP3    H162407   5.670   5.442   4.630  0.5642  0.5364  0.7803
13664TIP3    H262408   5.633   5.506   4.498 -0.7063 -1.7978 -0.0625
13665TIP3   OH262409   3.311   1.338   5.756 -0.4023  0.0962 -0.3153
13665TIP3    H162410   3.248   1.267   5.748  1.7179 -1.7466 -2.0811
13665TIP3    H262411   3.366   1.313   5.830 -0.2171  0.3539 -0.3636
13666TIP3   OH262412   0.960   1.470   2.474  0.7768 -0.4564  0.4991
13666TIP3    H162413   0.970   1.553   2.429  1.3172 -0.4904  0.5453
13666TIP3    H262414   1.050   1.443   2.495  0.6527 -1.3414 -0.0538
13667TIP3   OH262415   1.118   2.909   3.586  0.9560 -0.8286  0.2603
13667TIP3    H162416   1.196   2.964   3.578  1.1326 -0.8150  1.7919
13667TIP3    H262417   1.122   2.851   3.510 -0.0488  2.1643 -2.3382
13668TIP3   OH262418   4.914   6.545  15.439  0.4465  0.6068  0.2456
13668TIP3    H162419   4.951   6.561  15.525 -0.4040  1.4741  0.4577
13668TIP3    H262420   4.925   6.627  15.391  1.2280  0.0318 -0.6043
13669TIP3   OH262421   5.536   3.906   1.759 -0.1654 -0.5729 -0.6068
13669TIP3    H162422   5.616   3.853   1.761 -1.0735 -2.0880 -1.7573
13669TIP3    H262423   5.551   3.969   1.688  0.6009  0.2183  0.2294
13670TIP3   OH262424   1.688   4.345  10.989 -0.3703  1.3124  0.3854
13670TIP3    H162425   1.605   4.315  11.025 -0.9106  2.8745  0.4986
13670TIP3    H262426   1.665   4.401  10.915  0.5889  1.3701  0.1089
13671TIP3   OH262427   4.074   0.088   0.611 -0.1745  0.3309  0.2035
13671TIP3    H162428   4.085   0.182   0.594  0.3441  0.2589  0.1229
13671TIP3    H262429   4.056   0.051   0.525  0.8505  0.1915  0.0322
13672TIP3   OH262430   5.617   1.558  12.090  0.6238  0.0179  0.0578
13672TIP3    H162431   5.669   1.501  12.147  0.4644 -1.3128 -1.0850
13672TIP3    H262432   5.604   1.507  12.010 -0.5851  1.1874 -0.5273
13673TIP3   OH262433   1.710   3.360   0.566  0.1095  0.0736  0.2582
13673TIP3    H162434   1.632   3.325   0.523  0.9659 -0.5763 -0.8141
13673TIP3    H262435   1.768   3.284   0.576  0.4402  0.4527  1.4610
13674TIP3   OH262436   5.774   2.511   4.821 -0.1939  0.0030 -0.5639
13674TIP3    H162437   5.864   2.488   4.845 -0.5560 -0.0843  0.7924
13674TIP3    H262438   5.727   2.510   4.904 -1.5279 -0.3004 -1.3079
13675TIP3   OH262439   1.743   4.931  13.516  0.1887  0.6661 -0.0159
13675TIP3    H162440   1.724   5.025  13.519 -1.9355  0.2677  0.3738
13675TIP3    H262441   1.718   4.904  13.428  1.7770  0.6146 -0.4836
13676TIP3   OH262442   6.690   0.389   4.101  0.2502  0.2513  0.3401
13676TIP3    H162443   6.641   0.468   4.123  0.2328  0.8735 -1.7390
13676TIP3    H262444   6.782   0.415   4.110  0.2590  0.7363 -0.9269
13677TIP3   OH262445   4.912   5.525   1.756 -0.3008 -0.2222 -0.0399
13677TIP3    H162446   4.829   5.564   1.732 -0.3447  0.0431  0.5260
13677TIP3    H262447   4.893   5.476   1.836  0.4775  1.3920  1.1972
13678TIP3   OH262448   1.992   1.795  14.535 -0.5724 -0.0958  0.1827
13678TIP3    H162449   1.961   1.783  14.625 -1.0929  1.3033  0.2234
13678TIP3    H262450   1.913   1.794  14.481 -0.3662  0.0579 -0.1307
13679TIP3   OH262451   5.110   0.024   5.327 -0.0709 -0.6914  0.0860
13679TIP3    H162452   5.092  -0.058   5.281 -1.4133  0.7176 -2.1230
13679TIP3    H262453   5.203   0.020   5.350  0.5460 -1.7591 -2.3263
13680TIP3   OH262454   6.523   6.499  11.993 -0.0707  0.1279  0.3380
13680TIP3    H162455   6.499   6.571  11.934  0.7398 -0.2074 -0.4353
13680TIP3    H262456   6.498   6.420  11.946 -1.9049 -0.1014  1.6255
13681TIP3   OH262457   5.243   5.214   1.172 -0.2611 -0.8038 -0.1120
13681TIP3    H162458   5.261   5.303   1.144 -0.2531 -1.4299 -2.3021
13681TIP3    H262459   5.329   5.174   1.185 -0.2632 -0.3862  1.3955
13682TIP3   OH262460   3.925   5.431   0.752  0.1245  0.4322  0.2241
13682TIP3    H162461   3.883   5.501   0.802 -1.0525  0.2824 -0.5379
13682TIP3    H262462   3.889   5.438   0.664 -0.1507 -1.2458  0.1639
13683TIP3   OH262463   2.142   2.962   2.903 -0.2190  0.3815 -0.1829
13683TIP3    H162464   2.146   2.884   2.848  0.2922  1.0520 -1.1432
13683TIP3    H262465   2.049   2.982   2.910 -0.3264 -0.0872 -0.2522
13684TIP3   OH262466   5.429   5.926  17.478 -0.0829 -0.1281  0.8771
13684TIP3    H162467   5.426   5.975  17.560 -0.7354 -0.0030  0.7813
13684TIP3    H262468   5.341   5.891  17.467 -0.7410  1.8720 -0.9804
13685TIP3   OH262469   1.653   4.710  16.501  0.0887 -0.1641  0.2281
13685TIP3    H162470   1.586   4.772  16.475 -0.6846 -1.6013 -1.3852
13685TIP3    H262471   1.696   4.751  16.576 -1.3135  1.6420  0.1020
13686TIP3   OH262472   5.607   6.157   1.546  0.5034 -0.4258  0.0829
13686TIP3    H162473   5.585   6.118   1.630  3.6254  1.6128  2.0319
13686TIP3    H262474   5.561   6.241   1.546  0.8687 -0.2263 -0.0770
13687TIP3   OH262475   0.609   3.513   2.867 -0.4315 -0.4045 -0.1613
13687TIP3    H162476   0.663   3.468   2.802  0.4656  0.0484  0.2526
13687TIP3    H262477   0.670   3.535   2.937 -0.7128  1.9068 -0.5731
13688TIP3   OH262478   4.487   5.690   3.829 -0.3176  0.2550 -0.2551
13688TIP3    H162479   4.492   5.700   3.924 -1.0461 -0.1988 -0.1649
13688TIP3    H262480   4.418   5.626   3.814 -0.0282  0.1133 -1.0846
13689TIP3   OH262481   6.493   6.729   1.074  0.3707  0.4756  0.2669
13689TIP3    H162482   6.462   6.657   1.018  1.1962  1.3539 -1.4011
13689TIP3    H262483   6.493   6.692   1.162 -0.0847 -1.2784 -0.4154
13690TIP3   OH262484   4.260   2.943  14.372 -0.4385  0.6011  0.1565
13690TIP3    H162485   4.259   3.007  14.301  0.7986 -0.8076 -1.1816
13690TIP3    H262486   4.352   2.937  14.397 -0.5316 -0.6881  0.2147
13691TIP3   OH262487   5.477   5.320   5.326  0.4673 -0.1729  0.2506
13691TIP3    H162488   5.547   5.334   5.389 -0.5995  0.7996  1.2758
13691TIP3    H262489   5.441   5.407   5.311 -2.1094 -0.8848  1.6831
13692TIP3   OH262490   1.542   1.315  14.158 -0.0579 -0.5185  0.3516
13692TIP3    H162491   1.471   1.369  14.122 -1.9810 -1.5325  2.3652
13692TIP3    H262492   1.556   1.248  14.091 -1.0967 -0.3639 -0.0535
13693TIP3   OH262493   1.735   0.399   0.485 -0.1602  0.2736 -0.3881
13693TIP3    H162494   1.658   0.373   0.535 -0.2445  0.1013 -0.6027
13693TIP3    H262495   1.794   0.324   0.491 -0.8011 -0.3950 -1.8123
13694TIP3   OH262496   4.311   3.264  12.936 -0.0028  0.4722  0.1940
13694TIP3    H162497   4.397   3.247  12.896  0.4385 -0.9240  1.6202
13694TIP3    H262498   4.331   3.301  13.022 -0.8534  0.6466  0.3257
13695TIP3   OH262499   1.794   2.783   1.900  0.4114  0.0448  0.0344
13695TIP3    H162500   1.734   2.787   1.826 -0.5428 -0.7433  0.7332
13695TIP3    H262501   1.818   2.690   1.906  1.3828  0.2789  0.0314
13696TIP3   OH262502   2.819   1.950   5.455  0.4847  0.4153 -0.3113
13696TIP3    H162503   2.907   1.969   5.422  2.1125  0.0686  3.3814
13696TIP3    H262504   2.833   1.893   5.531 -2.9164  0.7247  0.7166
13697TIP3   OH262505   0.043   0.987   2.996 -0.3455 -0.2114  0.2107
13697TIP3    H162506  -0.027   0.924   3.014 -0.3789 -0.1151  0.4308
13697TIP3    H262507   0.003   1.072   3.015 -0.6277 -0.0354 -1.0999
13698TIP3   OH262508   4.371   4.641  11.160 -0.1937  0.1518 -0.7631
13698TIP3    H162509   4.446   4.674  11.210 -1.3585  0.9414  0.5343
13698TIP3    H262510   4.295   4.685  11.198 -1.3578 -0.7368 -1.9408
13699TIP3   OH262511   1.627   0.713   3.862 -0.1380  0.2596  0.3020
13699TIP3    H162512   1.591   0.642   3.809  0.5519 -0.8298  1.2431
13699TIP3    H262513   1.600   0.793   3.817 -1.9938 -0.5551 -0.1169
13700TIP3   OH262514   3.359   2.876   5.736 -0.4882  0.2446  0.2792
13700TIP3    H162515   3.404   2.867   5.820 -3.4160 -0.7117  1.8747
13700TIP3    H262516   3.430   2.883   5.671  1.8893  1.9879  2.8491
13701TIP3   OH262517   1.685   6.390  17.220 -0.2593  0.7276  0.1367
13701TIP3    H162518   1.638   6.447  17.160  1.4001  2.1948  0.1520
13701TIP3    H262519   1.778   6.412  17.206  0.1926  0.9907  3.0811
13702TIP3   OH262520   4.136   3.046  12.842  0.6045 -0.2445 -0.1265
13702TIP3    H162521   4.136   2.958  12.882  2.7025 -0.9914 -1.5991
13702TIP3    H262522   4.228   3.070  12.838  0.3094  0.7391 -2.4379
13703TIP3   OH262523   1.510   0.767  15.116  0.0689 -0.0744  0.1512
13703TIP3    H162524   1.515   0.849  15.067 -0.3770 -0.2035 -0.1157
13703TIP3    H262525   1.421   0.765  15.152  0.5830  0.3281  1.5192
13704TIP3   OH262526   1.290   6.166  16.275  0.3074  0.3018  0.6372
13704TIP3    H162527   1.256   6.130  16.357 -0.4751  1.2392  0.7479
13704TIP3    H262528   1.232   6.239  16.255 -0.5578 -0.9116 -1.6454
13705TIP3   OH262529   0.298   3.288  16.024  0.4373  0.0942 -0.1345
13705TIP3    H162530   0.383   3.282  16.066  0.3023  1.3554  0.3591
13705TIP3    H262531   0.317   3.292  15.931  1.1458  3.0572  0.0399
13706TIP3   OH262532   2.611   5.589  16.910  0.0365 -0.6364  0.6675
13706TIP3    H162533   2.520   5.595  16.879 -0.0919 -0.0695  1.1299
13706TIP3    H262534   2.616   5.503  16.953  0.2846 -1.5436 -1.0797
13707TIP3   OH262535   5.857   4.940  16.786  0.5873 -0.2604 -0.2267
13707TIP3    H162536   5.948   4.964  16.806  1.3605 -2.7175 -0.4648
13707TIP3    H262537   5.831   4.883  16.858 -0.8698  0.5473 -0.0690
13708TIP3   OH262538   2.574   1.478   4.631  0.3903  0.3355  0.2637
13708TIP3    H162539   2.596   1.478   4.538 -0.2829  0.2862  0.0928
13708TIP3    H262540   2.581   1.386   4.657 -0.3323  0.1997  0.0202
13709TIP3   OH262541   2.857   5.728   6.550 -0.1672  0.1343  0.2918
13709TIP3    H162542   2.887   5.768   6.632 -1.0824  0.0927  0.6638
13709TIP3    H262543   2.886   5.636   6.557  2.4982  0.7896 -0.8487
13710TIP3   OH262544   6.137   1.444   4.444  0.1013  0.3548  0.2473
13710TIP3    H162545   6.081   1.497   4.500  0.7938  1.2017  0.1548
13710TIP3    H262546   6.084   1.425   4.367 -0.1759  0.8540  0.3142
13711TIP3   OH262547   4.754   3.872   0.763 -0.7857 -0.0280 -0.5932
13711TIP3    H162548   4.745   3.939   0.694  0.1487  1.7260  0.9028
13711TIP3    H262549   4.696   3.903   0.833 -0.4194 -0.8600  0.0817
13712TIP3   OH262550   5.152   3.660   0.292  0.3001  0.4141  0.1040
13712TIP3    H162551   5.093   3.630   0.360  1.2801  0.6939  1.1019
13712TIP3    H262552   5.228   3.695   0.339  1.7795 -0.9520 -1.1236
13713TIP3   OH262553   4.886   1.692   2.827  0.0470 -0.6594  0.2766
13713TIP3    H162554   4.891   1.632   2.753 -0.4258 -1.0385  0.5516
13713TIP3    H262555   4.971   1.683   2.871  0.6538  0.1758 -0.6788
13714TIP3   OH262556   6.576   1.637   2.270  0.1094 -0.0753 -0.3398
13714TIP3    H162557   6.580   1.688   2.351 -0.4850 -1.7621  0.8194
13714TIP3    H262558   6.605   1.697   2.202  3.0464  0.7018  1.4314
13715TIP3   OH262559   2.371   5.318  16.533 -0.3228 -0.3563 -0.1406
13715TIP3    H162560   2.455   5.274  16.537 -0.1724 -0.0183  0.4773
13715TIP3    H262561   2.386   5.393  16.475 -0.5844 -1.1079 -1.2108
13716TIP3   OH262562   0.624   2.750  16.615 -0.2541 -0.1165 -0.1893
13716TIP3    H162563   0.640   2.706  16.532 -0.4319 -1.2742  0.3644
13716TIP3    H262564   0.532   2.775  16.613 -0.7908 -1.9264  0.4401
13717TIP3   OH262565   5.028   2.773  11.277 -0.2178  0.0510 -0.7092
13717TIP3    H162566   4.985   2.702  11.325  1.1128  1.0614  2.2180
13717TIP3    H262567   5.001   2.852  11.323  0.1249  1.2486 -2.4939
13718TIP3   OH262568   0.425   3.252   3.686 -0.2072 -0.0139  0.0621
13718TIP3    H162569   0.420   3.159   3.706 -1.8617  0.1636  0.5984
13718TIP3    H262570   0.351   3.291   3.733  0.0996  1.4888 -0.6377
13719TIP3   OH262571   1.650   0.664   1.738 -0.2585  0.0145  0.1257
13719TIP3    H162572   1.629   0.755   1.717 -0.1689  0.2586  1.0455
13719TIP3    H262573   1.610   0.650   1.823 -2.3472 -1.5485 -1.0296
13720TIP3   OH262574   3.301   1.712   0.776 -0.1202  0.1597  0.5245
13720TIP3    H162575   3.377   1.751   0.733  0.1302  0.8680  1.5576
13720TIP3    H262576   3.249   1.787   0.805 -1.1521 -0.3197 -0.0487
13721TIP3   OH262577   0.070   0.799   3.349 -0.1910  0.1667  0.1098
13721TIP3    H162578   0.094   0.859   3.278 -0.8908 -1.0139 -1.1726
13721TIP3    H262579   0.142   0.808   3.412  1.4013 -0.0462 -1.5737
13722TIP3   OH262580   6.087   4.675   5.742  0.1715 -0.5049  0.7110
13722TIP3    H162581   6.065   4.705   5.654 -1.1833 -2.3737  0.3619
13722TIP3    H262582   6.023   4.717   5.799  1.3327  1.0756  0.9315
13723TIP3   OH262583   0.650   1.860  15.178  0.3510  0.6767  0.1874
13723TIP3    H162584   0.669   1.942  15.224  2.3798  0.6221 -0.4309
13723TIP3    H262585   0.579   1.820  15.228  0.5274  1.9720  1.5504
13724TIP3   OH262586   2.994   1.496  12.562 -0.1250 -0.4979  0.1283
13724TIP3    H162587   2.997   1.592  12.569 -0.6955 -0.4937  0.3969
13724TIP3    H262588   2.957   1.479  12.476 -1.8282 -0.4500  0.8299
13725TIP3   OH262589   2.568   4.493  14.625 -0.2810 -0.3712  0.5594
13725TIP3    H162590   2.616   4.571  14.597  2.0341 -1.5956  0.8533
13725TIP3    H262591   2.628   4.420  14.607 -2.0628 -2.0359  0.9647
13726TIP3   OH262592   3.307   6.526   4.719 -0.2023  0.2193 -0.5856
13726TIP3    H162593   3.380   6.478   4.678  1.5069  0.5323  1.8575
13726TIP3    H262594   3.343   6.613   4.737 -0.9114  0.1799  1.2420
13727TIP3   OH262595   4.524   1.919  13.499 -0.3236 -0.7465  0.1964
13727TIP3    H162596   4.536   1.838  13.548  0.5420 -1.9528 -1.8454
13727TIP3    H262597   4.534   1.892  13.407 -0.0177  1.6921 -0.5456
13728TIP3   OH262598   3.695   1.663   5.483  0.0522 -0.5230 -0.3813
13728TIP3    H162599   3.715   1.611   5.561  0.1774 -0.3034 -0.2662
13728TIP3    H262600   3.651   1.601   5.424 -0.6978 -0.5132  0.1498
13729TIP3   OH262601   4.337   2.460   0.459  0.2741  0.3345  0.4397
13729TIP3    H162602   4.347   2.365   0.464  0.2433  0.3013 -0.0687
13729TIP3    H262603   4.242   2.473   0.452  0.3728  0.1946 -2.8871
13730TIP3   OH262604   4.972   4.823  15.257  0.4625  0.0535 -0.4493
13730TIP3    H162605   4.898   4.767  15.234  0.6655 -0.2337 -0.4091
13730TIP3    H262606   4.932   4.898  15.303  0.0107  0.8104 -1.9987
13731TIP3   OH262607   6.190   6.298  13.916  0.3337 -0.6464  0.1511
13731TIP3    H162608   6.107   6.333  13.882  1.2137 -0.2274 -1.7104
13731TIP3    H262609   6.232   6.259  13.840  1.6536 -1.2636  1.1630
13732TIP3   OH262610   1.033   2.608   1.299  0.7891  0.1578  0.0780
13732TIP3    H162611   1.013   2.584   1.389  0.3121  0.9039  0.1872
13732TIP3    H262612   1.041   2.704   1.301  3.2863  0.0223 -0.1936
13733TIP3   OH262613   1.806   6.065   3.410  0.2627  0.4018  0.0125
13733TIP3    H162614   1.834   5.981   3.373  0.2746  0.5527 -0.3206
13733TIP3    H262615   1.756   6.041   3.488 -1.9261 -0.0503 -1.4304
13734TIP3   OH262616   5.921   3.099  13.812 -0.2095 -0.3047 -0.4783
13734TIP3    H162617   6.006   3.139  13.795 -0.0661  0.4668  1.7708
13734TIP3    H262618   5.860   3.172  13.816 -0.8061 -0.7577 -0.9572
13735TIP3   OH262619   6.195   1.352  16.536  0.9507  0.0411 -0.2968
13735TIP3    H162620   6.161   1.307  16.458 -0.0112  1.2181 -0.5725
13735TIP3    H262621   6.174   1.293  16.609  1.6246 -0.9491 -0.8626
13736TIP3   OH262622   4.315   6.280   5.079  0.0646 -0.3481 -0.0392
13736TIP3    H162623   4.401   6.245   5.102  0.1442  0.5210  1.0556
13736TIP3    H262624   4.255   6.241   5.142 -0.1196  0.1030  0.0734
13737TIP3   OH262625   2.048   4.988   5.798 -0.3693 -0.1884 -0.0397
13737TIP3    H162626   1.960   4.952   5.787 -0.4243  0.3054 -1.4536
13737TIP3    H262627   2.051   5.017   5.889 -0.8231 -2.3924  0.7510
13738TIP3   OH262628   1.540   6.411   0.665  0.1259 -0.1550  0.3665
13738TIP3    H162629   1.495   6.340   0.619  0.2214 -0.0506  0.1132
13738TIP3    H262630   1.609   6.439   0.606 -0.9485  1.2781 -0.2963
13739TIP3   OH262631   2.451   6.368  17.150  0.3425  0.0077 -0.2987
13739TIP3    H162632   2.395   6.396  17.077  1.2393 -0.8328 -1.3498
13739TIP3    H262633   2.428   6.277  17.164  0.5035  0.0371  0.1760
13740TIP3   OH262634   1.879   5.255  14.822  0.0673 -0.1713 -0.3519
13740TIP3    H162635   1.902   5.334  14.772 -0.5585  0.7859  0.8047
13740TIP3    H262636   1.919   5.270  14.908 -0.0381 -1.1456 -0.1308
13741TIP3   OH262637   0.283   3.611   0.667  0.0265 -0.1831 -0.1701
13741TIP3    H162638   0.255   3.699   0.642  1.4559 -0.1541 -1.8414
13741TIP3    H262639   0.226   3.553   0.617  0.2976 -0.1740 -0.4930
13742TIP3   OH262640   3.278   6.291   2.416 -0.7197 -0.6269 -0.2640
13742TIP3    H162641   3.244   6.373   2.381  0.0758  0.0059  0.4026
13742TIP3    H262642   3.338   6.259   2.350 -1.0390 -0.6798 -0.5308
13743TIP3   OH262643   1.957   1.064   1.705  0.2672 -0.4528  0.0740
13743TIP3    H162644   2.021   1.075   1.635  0.3179 -1.6987 -0.0866
13743TIP3    H262645   1.873   1.088   1.664  0.5211  0.5634  0.1123
13744TIP3   OH262646   3.498   1.884   2.899  0.5198  0.1242 -0.4311
13744TIP3    H162647   3.537   1.889   2.986 -0.7148  0.1602  0.1509
13744TIP3    H262648   3.464   1.795   2.893  1.0836 -0.0488 -1.1023
13745TIP3   OH262649   5.538   5.658   2.110  0.6812 -0.0632  0.1565
13745TIP3    H162650   5.602   5.655   2.040  0.1856 -0.5679 -0.2784
13745TIP3    H262651   5.565   5.588   2.170 -1.0158 -2.2033 -1.4117
13746TIP3   OH262652   1.765   4.769  14.888  0.0067 -0.3278 -0.0719
13746TIP3    H162653   1.733   4.812  14.968 -1.5030 -1.8012  0.1640
13746TIP3    H262654   1.850   4.810  14.872  0.6010 -0.3299  2.5753
13747TIP3   OH262655   4.438   4.282   1.936  0.5445  0.0661  0.1668
13747TIP3    H162656   4.352   4.305   1.902  0.4758 -0.2755  0.1071
13747TIP3    H262657   4.490   4.260   1.859  0.5938 -0.0336  0.2275
13748TIP3   OH262658   1.340   2.728  15.698  0.8390  0.0440  0.3666
13748TIP3    H162659   1.380   2.668  15.760  0.0906 -1.4959 -0.5611
13748TIP3    H262660   1.269   2.677  15.658  0.9648  1.1297 -1.3661
13749TIP3   OH262661   3.532   0.135   4.984 -0.6775  0.1960 -0.1917
13749TIP3    H162662   3.531   0.083   4.904  1.7909 -0.5888  0.1818
13749TIP3    H262663   3.619   0.120   5.021 -1.4119  1.2557  2.1766
13750TIP3   OH262664   0.539   4.482  14.787  0.2293 -0.1074 -0.2304
13750TIP3    H162665   0.623   4.469  14.744  0.8338 -1.5303  1.2896
13750TIP3    H262666   0.505   4.563  14.748  2.4201  0.6717 -0.6861
13751TIP3   OH262667   6.611   0.065  13.495 -0.4512  0.3800  0.1808
13751TIP3    H162668   6.516   0.074  13.490 -0.4612 -0.1565 -0.9347
13751TIP3    H262669   6.645   0.119  13.424 -0.0170 -0.4612 -0.2811
13752TIP3   OH262670   1.136   0.683  11.419 -0.2271 -0.2200  0.0946
13752TIP3    H162671   1.061   0.656  11.471  0.3204 -1.5689  0.2291
13752TIP3    H262672   1.190   0.604  11.413  2.0055  1.0974  1.4159
13753TIP3   OH262673   4.011   0.238   3.174 -0.1822  0.0709  0.1989
13753TIP3    H162674   3.932   0.185   3.161 -0.3092 -0.0384  1.3637
13753TIP3    H262675   4.076   0.176   3.207  0.8449 -0.1359 -1.9936
13754TIP3   OH262676   5.770   0.693  13.298 -0.0940  0.3326 -0.2388
13754TIP3    H162677   5.825   0.713  13.373  1.7665  1.4450 -1.8062
13754TIP3    H262678   5.794   0.604  13.273  0.2065  0.4188 -0.2611
13755TIP3   OH262679   0.418   5.099   1.280  0.1714 -0.2563 -0.1266
13755TIP3    H162680   0.402   5.018   1.328 -0.5196 -0.5875 -0.8763
13755TIP3    H262681   0.361   5.164   1.322  2.1242  0.3781  1.7177
13756TIP3   OH262682   4.235   1.169  10.821 -0.1166 -0.6301  0.1387
13756TIP3    H162683   4.162   1.228  10.840  0.0543 -0.1149 -0.7840
13756TIP3    H262684   4.294   1.179  10.896 -0.8071 -0.7729  0.7112
13757TIP3   OH262685   3.588   4.840   5.281 -0.2031 -0.0522  0.0025
13757TIP3    H162686   3.632   4.917   5.247  1.0172 -0.6947  0.0788
13757TIP3    H262687   3.513   4.875   5.329  1.4232  1.2607  1.7515
13758TIP3   OH262688   1.223   5.868   4.327  0.0043 -0.5611 -0.3402
13758TIP3    H162689   1.255   5.879   4.416 -0.6921 -0.5139 -0.0899
13758TIP3    H262690   1.197   5.956   4.300 -0.2783 -0.6567 -0.3914
13759TIP3   OH262691   0.222   1.601   0.479 -0.0205  0.1286  0.3497
13759TIP3    H162692   0.232   1.649   0.396 -3.1382  0.0049 -0.2097
13759TIP3    H262693   0.189   1.666   0.541 -1.1029 -0.5262  0.4867
13760TIP3   OH262694   4.061   4.039  15.904 -0.9997 -0.2145  0.4319
13760TIP3    H162695   4.111   4.114  15.871 -0.8474  0.1021  1.3431
13760TIP3    H262696   3.976   4.076  15.929 -0.3152  0.0569  2.5893
13761TIP3   OH262697   6.027   6.360   1.518  0.1239  0.7995  0.7913
13761TIP3    H162698   6.068   6.384   1.601  0.9326 -1.2152  1.0193
13761TIP3    H262699   5.972   6.284   1.540 -0.0619  0.5669 -0.4244
13762TIP3   OH262700   1.964   5.529  11.474  0.6635  0.2472 -0.2889
13762TIP3    H162701   2.018   5.486  11.540 -0.2623 -1.1206 -0.3751
13762TIP3    H262702   2.014   5.606  11.448  1.1795  0.6560  1.7725
13763TIP3   OH262703   5.748   4.093  14.693  0.7478 -0.2337  0.4187
13763TIP3    H162704   5.698   4.020  14.730  0.1444 -1.0598 -1.9063
13763TIP3    H262705   5.834   4.086  14.735  1.0183 -2.8940 -0.4236
13764TIP3   OH262706   0.458   1.368   3.912  0.1599  0.2608  0.9105
13764TIP3    H162707   0.386   1.419   3.873  0.0486 -0.0583  0.6886
13764TIP3    H262708   0.425   1.278   3.913  1.0409 -0.1141 -0.4120
13765TIP3   OH262709   5.602   2.905   4.721 -0.7941  0.1430  0.2171
13765TIP3    H162710   5.591   2.918   4.626 -1.3114 -0.5198  0.1842
13765TIP3    H262711   5.535   2.842   4.745 -1.9521  1.7104  1.3780
13766TIP3   OH262712   3.997   3.452   0.671 -0.0661 -0.0099  0.2015
13766TIP3    H162713   4.014   3.470   0.579 -2.5008  0.8564 -0.1419
13766TIP3    H262714   4.040   3.368   0.687 -1.4170 -1.3151 -2.3636
13767TIP3   OH262715   5.214   3.728  16.697 -0.2161 -1.0701 -0.1635
13767TIP3    H162716   5.128   3.688  16.699  0.0895 -1.7046  0.6700
13767TIP3    H262717   5.275   3.655  16.708  0.3044 -0.2917  3.0260
13768TIP3   OH262718   5.873   1.858  16.065  0.4472  0.5831  0.0721
13768TIP3    H162719   5.818   1.865  16.143  0.5917  1.0869  0.1344
13768TIP3    H262720   5.836   1.784  16.016  0.2516  0.3720  0.5327
13769TIP3   OH262721   5.043   4.551   1.984 -0.1728 -0.2652  0.2757
13769TIP3    H162722   5.074   4.544   1.893  0.6511 -0.1035  0.5414
13769TIP3    H262723   4.960   4.504   1.983  0.1846 -0.9142 -0.3998
13770TIP3   OH262724   0.665   6.348   4.867 -0.6077  0.3286 -0.4685
13770TIP3    H162725   0.682   6.352   4.961 -0.3203  0.4416 -0.5249
13770TIP3    H262726   0.698   6.263   4.840 -0.4778  0.3910 -0.5081
13771TIP3   OH262727   3.384   4.114  13.718 -1.0242  0.5525 -0.3171
13771TIP3    H162728   3.349   4.063  13.791 -0.3692  0.9378  0.2774
13771TIP3    H262729   3.425   4.049  13.661  0.4608  0.4468  0.8102
13772TIP3   OH262730   0.923   6.557   1.638 -0.5094 -0.1869 -0.3297
13772TIP3    H162731   0.952   6.486   1.582  2.2123  0.1090  0.5524
13772TIP3    H262732   0.998   6.617   1.642 -0.7622  0.1176  3.0453
13773TIP3   OH262733   6.618   0.338  11.137  0.0897 -0.2706  0.0451
13773TIP3    H162734   6.621   0.418  11.190  0.5250 -0.8351  0.8747
13773TIP3    H262735   6.524   0.318  11.129  0.0338 -0.4269  0.9776
13774TIP3   OH262736   5.893   6.714   6.955 -0.0568  0.2613  0.6210
13774TIP3    H162737   5.957   6.768   6.909  0.5182 -0.9697 -0.0939
13774TIP3    H262738   5.815   6.718   6.901 -0.8177  2.1975  1.7696
13775TIP3   OH262739   0.690   0.917  11.915 -0.3343 -0.0453 -0.3308
13775TIP3    H162740   0.769   0.868  11.941 -0.9314  0.4149  2.6827
13775TIP3    H262741   0.723   1.005  11.894 -0.0262  0.3121  1.4607
13776TIP3   OH262742   4.336   3.238  15.223  0.3173  0.0538 -0.2390
13776TIP3    H162743   4.383   3.154  15.220  1.6567  0.7435  0.4485
13776TIP3    H262744   4.261   3.220  15.280  1.6422 -0.2399  1.5315
13777TIP3   OH262745   1.409   1.313  12.620  0.3926  0.6000 -0.6813
13777TIP3    H162746   1.316   1.292  12.625  0.6001 -0.2168  0.1620
13777TIP3    H262747   1.418   1.369  12.543 -0.9222  1.3839 -0.2861
13778TIP3   OH262748   5.040   3.373  15.572  0.1703  0.5263  0.4003
13778TIP3    H162749   5.041   3.409  15.483 -0.7385 -2.5756 -1.0145
13778TIP3    H262750   4.950   3.386  15.602  0.0453  0.1496  0.1957
13779TIP3   OH262751   0.986   0.040   4.705 -0.2376  0.0900  0.2884
13779TIP3    H162752   1.045  -0.017   4.754  0.2609 -0.5215 -0.9802
13779TIP3    H262753   1.031   0.057   4.623 -1.4474  0.3434 -0.3495
13780TIP3   OH262754   5.109   4.049   3.043 -0.9088  0.1241  0.1292
13780TIP3    H162755   5.175   4.118   3.035 -0.2810 -0.6446 -1.8848
13780TIP3    H262756   5.079   4.033   2.954 -1.3230 -1.9200  0.5792
13781TIP3   OH262757   3.261   0.897   1.802  0.6571 -0.6013 -0.2232
13781TIP3    H162758   3.188   0.840   1.776 -0.2342 -1.0659  2.8979
13781TIP3    H262759   3.338   0.857   1.761 -0.4908 -1.4729 -1.6557
13782TIP3   OH262760   2.737   1.093  16.585  0.0079  0.2527  0.4479
13782TIP3    H162761   2.801   1.129  16.524 -0.2284  0.3617  0.2639
13782TIP3    H262762   2.654   1.135  16.562  0.0995  1.0335  1.4732
13783TIP3   OH262763   1.519   2.753  12.109  0.3058  0.0949  0.2212
13783TIP3    H162764   1.463   2.783  12.037  0.0039  0.5454  0.6309
13783TIP3    H262765   1.552   2.668  12.080 -0.8825 -0.3586  0.1120
13784TIP3   OH262766   5.340   5.735   5.789  0.0318 -0.0446  0.2932
13784TIP3    H162767   5.318   5.740   5.882  1.4738  0.1727  0.6493
13784TIP3    H262768   5.404   5.664   5.784  2.8396  2.3415  0.0970
13785TIP3   OH262769   1.195   6.569  16.422  0.2544  0.6024  0.1955
13785TIP3    H162770   1.242   6.532  16.497 -0.7932 -0.2318  0.4597
13785TIP3    H262771   1.178   6.494  16.365 -2.3116  0.5337  0.9509
13786TIP3   OH262772   3.480   1.099  13.819  0.4888  0.4028  0.0760
13786TIP3    H162773   3.479   1.155  13.741  0.8446 -0.4339 -0.5395
13786TIP3    H262774   3.408   1.133  13.873  0.2531  1.0155 -0.5967
13787TIP3   OH262775   3.713   2.163  12.386 -0.1208 -0.1828 -0.1482
13787TIP3    H162776   3.737   2.184  12.476  0.1751 -0.7357 -0.0903
13787TIP3    H262777   3.787   2.194  12.333 -0.2738  0.1007 -0.1995
13788TIP3   OH262778   0.290   4.108   4.449 -0.0943  0.1490  1.0021
13788TIP3    H162779   0.246   4.098   4.365  0.9948  0.2911  0.3981
13788TIP3    H262780   0.359   4.173   4.433  1.1368 -0.9467  1.5717
13789TIP3   OH262781   2.415   4.616   1.813  0.1839 -0.2774  0.0362
13789TIP3    H162782   2.462   4.563   1.877  0.1378  0.7505  0.9476
13789TIP3    H262783   2.348   4.557   1.778  0.3883 -0.9433  0.7338
13790TIP3   OH262784   3.883   2.150  14.965  0.0482 -0.3176  0.4432
13790TIP3    H162785   3.799   2.160  14.920 -0.2572  0.8834  1.2149
13790TIP3    H262786   3.873   2.071  15.018 -0.8759  0.1753  1.0464
13791TIP3   OH262787   4.923   3.466  16.050 -0.0497 -0.1553 -0.4560
13791TIP3    H162788   4.930   3.541  15.991  0.8281  0.6615  0.6310
13791TIP3    H262789   4.930   3.505  16.138  1.6131 -1.6114  0.1187
13792TIP3   OH262790   0.554   6.288  14.635  0.0260  1.0486 -0.4168
13792TIP3    H162791   0.590   6.245  14.712  1.9036  0.5072 -1.5438
13792TIP3    H262792   0.460   6.293  14.653  0.3014  0.2205  1.5375
13793TIP3   OH262793   2.822   0.665  16.310 -0.3216  0.3148  0.2555
13793TIP3    H162794   2.809   0.626  16.396 -0.0565  0.5277  0.3947
13793TIP3    H262795   2.766   0.743  16.311 -0.1051  0.4689  0.3374
13794TIP3   OH262796   4.279   1.435   3.817  0.1164  0.2595 -0.1607
13794TIP3    H162797   4.303   1.527   3.833  0.8406 -0.0102  0.3773
13794TIP3    H262798   4.194   1.440   3.774  0.7956  1.2404 -1.4685
13795TIP3   OH262799   0.609   2.595  16.401  0.7189  0.0749 -0.1237
13795TIP3    H162800   0.517   2.578  16.380  0.5154  0.8193  0.0940
13795TIP3    H262801   0.654   2.595  16.317  0.7351 -1.4317 -0.1319
13796TIP3   OH262802   4.669   2.807   1.633  0.7403  0.3207  0.4395
13796TIP3    H162803   4.638   2.853   1.711  0.5311  1.0150 -0.0465
13796TIP3    H262804   4.748   2.856   1.607  0.4543  0.4733 -0.1423
13797TIP3   OH262805   0.398   6.581  14.828 -0.0181 -0.9076 -0.4557
13797TIP3    H162806   0.382   6.571  14.922 -0.0197  0.9266 -0.2161
13797TIP3    H262807   0.478   6.633  14.823  0.2317 -1.3627 -1.4921
13798TIP3   OH262808   3.796   2.721   2.638  0.8501  0.4288  0.4399
13798TIP3    H162809   3.722   2.676   2.678  1.2787 -0.1958  0.5451
13798TIP3    H262810   3.873   2.683   2.681  1.2708  0.4578 -0.2690
13799TIP3   OH262811   2.454   5.194  12.657 -0.4202  0.0701  0.0054
13799TIP3    H162812   2.480   5.286  12.666 -1.0075  0.4345 -1.7216
13799TIP3    H262813   2.486   5.153  12.737 -1.3623  2.0565  1.5069
13800TIP3   OH262814   4.964   2.615  14.105 -0.1695 -0.6700  0.0530
13800TIP3    H162815   4.895   2.681  14.119 -0.9650 -1.1157 -1.5584
13800TIP3    H262816   5.041   2.666  14.080 -0.0849 -0.2167  1.1544
13801TIP3   OH262817   6.590   0.803   2.860 -0.0717  0.4138 -0.2397
13801TIP3    H162818   6.657   0.853   2.814 -1.8040  3.7373  0.5283
13801TIP3    H262819   6.509   0.820   2.810 -0.6409 -2.6635 -0.5875
13802TIP3   OH262820   4.570   3.227  12.797  0.3378  0.3975  0.1128
13802TIP3    H162821   4.578   3.194  12.707  1.4586  0.3586  0.2083
13802TIP3    H262822   4.620   3.308  12.797  1.3780 -0.2195  0.9866
13803TIP3   OH262823   6.664   1.664   1.478  0.1591 -0.0880  0.2204
13803TIP3    H162824   6.618   1.594   1.432  0.9436 -0.8812  0.6060
13803TIP3    H262825   6.608   1.684   1.553  0.7572 -1.6085  1.1394
13804TIP3   OH262826   3.139   0.489  17.352 -0.0280 -0.3220  0.1412
13804TIP3    H162827   3.123   0.550  17.280  0.5518 -0.4964 -0.1441
13804TIP3    H262828   3.057   0.442  17.363 -0.0737 -0.3937 -0.4997
13805TIP3   OH262829   0.617   3.255  15.768  0.4646 -0.4367 -0.2902
13805TIP3    H162830   0.698   3.299  15.796  0.0801  1.8264 -2.3233
13805TIP3    H262831   0.643   3.207  15.689  0.1703 -1.1500  0.0443
13806TIP3   OH262832   5.231   6.064  13.349  0.4414  0.0048  0.4110
13806TIP3    H162833   5.267   6.037  13.434  1.2611  0.2694  0.1541
13806TIP3    H262834   5.279   6.143  13.327  1.4472 -0.9829 -1.0912
13807TIP3   OH262835   5.248   5.708   3.183  0.0155 -0.3297 -0.8550
13807TIP3    H162836   5.268   5.743   3.097 -2.0896  2.5925 -0.2930
13807TIP3    H262837   5.178   5.645   3.167  0.9627 -1.2713 -1.4292
13808TIP3   OH262838   2.324   2.297  11.881  0.3767  0.2970 -0.0273
13808TIP3    H162839   2.242   2.288  11.832 -0.1947  0.7479  0.8138
13808TIP3    H262840   2.330   2.216  11.932  0.1038  0.5338  0.3968
13809TIP3   OH262841   4.032   6.624  12.879 -0.5146  0.6825 -0.1927
13809TIP3    H162842   3.972   6.677  12.827  0.0458  1.3521 -0.1640
13809TIP3    H262843   4.010   6.534  12.855 -0.7423  0.9545 -1.0550
13810TIP3   OH262844   3.820   4.193  13.561 -0.1554 -0.6624 -0.3707
13810TIP3    H162845   3.889   4.163  13.501 -0.8389  2.1495 -2.8083
13810TIP3    H262846   3.862   4.262  13.613 -0.5708 -0.4405 -0.3283
13811TIP3   OH262847   2.258   1.898  14.487  0.9245 -0.1784  0.8607
13811TIP3    H162848   2.177   1.849  14.498  1.5639 -1.2807  0.7997
13811TIP3    H262849   2.320   1.856  14.547  1.3458  0.9265  1.2434
13812TIP3   OH262850   0.829   4.678  13.507  0.2524 -0.6891 -0.5797
13812TIP3    H162851   0.741   4.655  13.539 -0.2470 -0.4937 -1.7548
13812TIP3    H262852   0.888   4.645  13.574 -0.6184 -2.5858 -0.6778
13813TIP3   OH262853   1.030   3.180   6.641 -0.3180  0.1135 -0.4971
13813TIP3    H162854   1.084   3.156   6.717 -0.1287  0.2028 -0.6035
13813TIP3    H262855   0.940   3.162   6.670 -0.3876  1.5875  0.3081
13814TIP3   OH262856   3.510   6.428   0.145 -0.2820  0.1198  0.4220
13814TIP3    H162857   3.446   6.499   0.150 -0.6999 -0.3136  1.2702
13814TIP3    H262858   3.479   6.362   0.206  0.2225 -0.7143 -0.2003
13815TIP3   OH262859   6.240   4.252  12.430  0.1517 -0.6351 -0.0186
13815TIP3    H162860   6.152   4.256  12.392 -0.0007  1.9109  0.3748
13815TIP3    H262861   6.299   4.258  12.355 -0.1269  1.8443 -0.1347
13816TIP3   OH262862   6.549   5.589  12.947 -0.3687  0.2008 -0.5630
13816TIP3    H162863   6.519   5.499  12.959  0.9805 -0.5174 -2.1758
13816TIP3    H262864   6.637   5.590  12.986  0.1420  0.4426 -1.6980
13817TIP3   OH262865   5.317   2.687  16.472  0.1468  0.1488 -0.0648
13817TIP3    H162866   5.358   2.773  16.478  3.5725 -1.2665 -0.7260
13817TIP3    H262867   5.265   2.690  16.391  1.3103  1.2264 -0.8052
13818TIP3   OH262868   1.612   2.865   0.233  0.4818  0.1432 -0.1279
13818TIP3    H162869   1.619   2.948   0.279 -1.1317 -0.2026  0.8101
13818TIP3    H262870   1.531   2.873   0.182  0.9700 -0.3939 -1.0152
13819TIP3   OH262871   3.084   0.967   2.163  0.2641 -0.3201  0.2274
13819TIP3    H162872   3.019   0.921   2.217  1.4913 -0.1182  1.9476
13819TIP3    H262873   3.087   1.055   2.199  0.7170 -0.0099 -0.5538
13820TIP3   OH262874   2.380   1.763  13.803 -0.2494 -0.4571  0.0720
13820TIP3    H162875   2.298   1.777  13.850  0.0571 -1.0109  0.7856
13820TIP3    H262876   2.432   1.842  13.820 -1.2819  0.7422 -1.8553
13821TIP3   OH262877   3.738   1.159   0.859  0.0668  0.2304  0.5566
13821TIP3    H162878   3.718   1.118   0.775  1.0730 -1.3429  1.0626
13821TIP3    H262879   3.734   1.088   0.923  1.1765  1.0325  1.5641
13822TIP3   OH262880   5.533   2.642   5.703  0.3443  0.0882 -0.5882
13822TIP3    H162881   5.467   2.684   5.647 -0.8286 -0.9081  0.0084
13822TIP3    H262882   5.497   2.650   5.791  0.2649 -1.7949 -0.4091
13823TIP3   OH262883   1.138   6.187   5.306  0.4017 -0.0523 -0.0466
13823TIP3    H162884   1.121   6.112   5.364  0.2740 -0.7530 -0.9636
13823TIP3    H262885   1.185   6.149   5.232 -1.4214  0.3999 -1.5133
13824TIP3   OH262886   1.070   1.538   3.637 -0.4906  0.2083 -0.1566
13824TIP3    H162887   1.099   1.627   3.616 -1.8166  0.3261 -1.7262
13824TIP3    H262888   0.990   1.550   3.688 -1.5608 -0.0303 -1.7133
13825TIP3   OH262889   0.458   1.893   4.250 -0.2349 -0.2486 -0.0791
13825TIP3    H162890   0.553   1.900   4.235 -0.0547 -2.2180 -0.0689
13825TIP3    H262891   0.422   1.971   4.207  1.3559  0.4234 -0.2851
13826TIP3   OH262892   4.023   5.205   3.192 -0.0547  0.0515 -0.3485
13826TIP3    H162893   4.108   5.180   3.228 -0.1528 -0.0883 -0.2142
13826TIP3    H262894   3.973   5.124   3.191 -0.7078  0.4234  0.9842
13827TIP3   OH262895   6.419   6.231  12.657  0.0726 -0.3807 -0.0915
13827TIP3    H162896   6.465   6.209  12.738  0.0835  1.7893  0.5511
13827TIP3    H262897   6.453   6.316  12.633  0.5204 -1.2349 -2.7818
13828TIP3   OH262898   3.177   5.327  13.479 -0.3259 -0.4704 -0.1883
13828TIP3    H162899   3.251   5.267  13.478  1.6631  1.8323 -0.4152
13828TIP3    H262900   3.212   5.409  13.446 -2.3681  1.3934  1.8893
13829TIP3   OH262901   2.395   4.116   5.389 -0.5313  0.6629  0.0431
13829TIP3    H162902   2.483   4.151   5.386 -0.1976  0.1167  1.8117
13829TIP3    H262903   2.346   4.178   5.443 -0.8721  0.3121  0.1476
13830TIP3   OH262904   1.752   4.481   6.525  0.6642 -0.5308 -0.1113
13830TIP3    H162905   1.687   4.507   6.591  1.6024 -2.0500  1.5067
13830TIP3    H262906   1.809   4.558   6.515  1.0101 -0.5382  1.5372
13831TIP3   OH262907   3.898   1.279  10.544 -0.4242  0.2661  0.8882
13831TIP3    H162908   3.962   1.208  10.538 -1.3512 -0.5084 -0.7725
13831TIP3    H262909   3.921   1.339  10.473 -0.3062  1.0600  1.5879
13832TIP3   OH262910   3.125   3.652   1.482 -0.0051  0.5405 -0.2705
13832TIP3    H162911   3.194   3.718   1.473 -1.3436  1.9601 -0.4411
13832TIP3    H262912   3.154   3.598   1.556  1.2872  1.0983 -0.3437
13833TIP3   OH262913   3.483   1.104  15.108 -0.0418 -0.1444 -0.0263
13833TIP3    H162914   3.499   1.135  15.019  0.3950 -1.7439 -0.5370
13833TIP3    H262915   3.391   1.123  15.124  0.4736  2.6146  0.2290
13834TIP3   OH262916   1.516   0.148  13.250  0.8701 -0.1465 -0.2503
13834TIP3    H162917   1.507   0.153  13.155  1.3325  0.8052 -0.2540
13834TIP3    H262918   1.595   0.199  13.270 -0.7749  2.1445  0.8828
13835TIP3   OH262919   4.249   4.372   0.491  0.4971 -0.5141  0.0672
13835TIP3    H162920   4.179   4.399   0.551  1.2095 -0.1715  0.7547
13835TIP3    H262921   4.306   4.448   0.484 -0.0485 -0.2327 -1.7777
13836TIP3   OH262922   6.591   0.916   1.634 -0.1402 -0.7351  0.0775
13836TIP3    H162923   6.586   0.888   1.726  1.7154 -0.8487  0.1834
13836TIP3    H262924   6.675   0.882   1.603  0.0585  0.7811 -1.1630
13837TIP3   OH262925   5.540   1.464   1.246 -0.0686 -0.7148 -0.2749
13837TIP3    H162926   5.628   1.450   1.209  0.0842  0.1663 -0.2784
13837TIP3    H262927   5.494   1.382   1.230  0.4392 -0.8438 -1.1732
13838TIP3   OH262928   0.891   0.059   0.133  0.4629  0.2603 -0.3867
13838TIP3    H162929   0.845   0.120   0.075  0.2779  0.1049 -0.4017
13838TIP3    H262930   0.823   0.024   0.190  0.7912  1.1444  0.5858
13839TIP3   OH262931   0.882   6.037  15.113  0.2722  0.0966 -0.4015
13839TIP3    H162932   0.845   5.982  15.044  0.5629  0.0788 -0.5445
13839TIP3    H262933   0.807   6.084  15.149  0.0683 -0.1514 -0.4964
13840TIP3   OH262934   1.365   4.944   3.661 -0.0807  0.4049 -0.4110
13840TIP3    H162935   1.337   4.940   3.570  0.9457 -1.2388 -0.7023
13840TIP3    H262936   1.294   4.903   3.710 -0.9634  1.9417 -0.3465
13841TIP3   OH262937   0.754   6.561   5.674  0.1506  0.8164 -0.4522
13841TIP3    H162938   0.769   6.508   5.596 -0.7174  0.8782 -0.6628
13841TIP3    H262939   0.840   6.600   5.693  1.0141 -1.2320  0.1585
13842TIP3   OH262940   5.391   0.633  16.682 -0.6050 -0.7074 -0.4187
13842TIP3    H162941   5.418   0.542  16.694 -0.4088 -0.5865  0.0638
13842TIP3    H262942   5.357   0.636  16.592  3.0366 -0.3939 -1.9635
13843TIP3   OH262943   5.084   3.087   2.019 -0.5926 -0.7842 -0.3746
13843TIP3    H162944   5.069   3.180   2.033 -0.3195 -0.5555 -1.5746
13843TIP3    H262945   5.087   3.050   2.108  0.4752  0.5103  0.1502
13844TIP3   OH262946   2.504   1.981   6.170 -0.1855  0.1532  0.1365
13844TIP3    H162947   2.544   2.068   6.172 -2.2536  1.1342  0.6988
13844TIP3    H262948   2.443   1.980   6.243  0.9231 -2.3986  1.1521
13845TIP3   OH262949   2.644   1.426  11.182  0.1230 -0.0072 -0.2670
13845TIP3    H162950   2.603   1.340  11.175 -0.3744  0.1607  0.5120
13845TIP3    H262951   2.635   1.464  11.094 -2.0434  0.3167  0.0524
13846TIP3   OH262952   0.814   0.638   5.594  0.6333  0.2827  0.3943
13846TIP3    H162953   0.821   0.726   5.631  0.1601 -0.0849  1.3844
13846TIP3    H262954   0.843   0.648   5.503 -2.7005  2.1743 -0.6147
13847TIP3   OH262955   5.038   1.118   4.169 -0.4352 -0.6227  0.6084
13847TIP3    H162956   4.945   1.110   4.191 -1.0477  0.2710 -1.3690
13847TIP3    H262957   5.038   1.152   4.079  1.8048  0.6142  0.9984
13848TIP3   OH262958   1.837   2.704  15.906 -0.0722 -0.2551  1.0088
13848TIP3    H162959   1.868   2.655  15.830 -0.8120  1.2446 -0.3386
13848TIP3    H262960   1.855   2.648  15.981 -1.1701 -2.7163 -0.4483
13849TIP3   OH262961   5.638   4.669   2.074 -0.0980 -0.0248 -0.1811
13849TIP3    H162962   5.550   4.690   2.106 -0.1616 -0.5686  0.0068
13849TIP3    H262963   5.627   4.656   1.980  0.2301  2.4021 -0.6371
13850TIP3   OH262964   2.047   3.937  16.558 -0.0590  0.0217  0.2611
13850TIP3    H162965   2.086   4.017  16.593  0.1480 -0.0653  0.2326
13850TIP3    H262966   1.978   3.914  16.620 -0.4832  0.5229 -0.0203
13851TIP3   OH262967   5.566   0.822   4.342 -0.2553  0.2563 -0.5424
13851TIP3    H162968   5.549   0.914   4.363 -2.3282  0.1108 -1.4085
13851TIP3    H262969   5.481   0.786   4.320  0.3240 -2.1886  0.8323
13852TIP3   OH262970   0.328   5.839  16.184 -0.5959 -0.2779  0.9051
13852TIP3    H162971   0.336   5.926  16.222 -0.9424  0.0496  0.2440
13852TIP3    H262972   0.413   5.823  16.143 -0.9604  0.3116 -0.1180
13853TIP3   OH262973   4.111   0.955   2.775 -0.2763  0.1687 -0.1984
13853TIP3    H162974   4.088   0.927   2.864 -1.2800  1.8043  0.1071
13853TIP3    H262975   4.204   0.934   2.767 -0.6334 -1.9046  0.4554
13854TIP3   OH262976   2.079   6.587  16.856  0.4981 -0.2139 -0.2381
13854TIP3    H162977   2.141   6.528  16.897 -0.7810 -0.7178  1.0420
13854TIP3    H262978   2.077   6.561  16.764 -0.1296 -2.2825  0.3226
13855TIP3   OH262979   3.872   2.656   3.829  0.3313 -0.5244 -0.0449
13855TIP3    H162980   3.940   2.661   3.896  1.3328 -0.3821 -1.0443
13855TIP3    H262981   3.918   2.673   3.746 -0.3603 -3.1271 -1.0815
13856TIP3   OH262982   0.323   1.752   2.425  0.3016  0.4614  0.2008
13856TIP3    H162983   0.364   1.745   2.511  2.3229  1.2086 -0.6312
13856TIP3    H262984   0.375   1.819   2.379 -2.4629  2.1611 -0.6647
13857TIP3   OH262985   2.399   3.771   0.302  0.1488 -0.6597 -0.1774
13857TIP3    H162986   2.306   3.794   0.294  0.1211 -0.4694  0.6064
13857TIP3    H262987   2.399   3.692   0.356  0.5109  0.0626  0.9054
13858TIP3   OH262988   0.690   6.331  16.556  0.4220 -0.3507 -0.0579
13858TIP3    H162989   0.748   6.386  16.610 -0.1032  1.0930 -0.9196
13858TIP3    H262990   0.666   6.387  16.482 -0.5495 -1.5899 -0.7079
13859TIP3   OH262991   6.419   0.420   2.627 -0.1483  0.3308 -0.5215
13859TIP3    H162992   6.370   0.361   2.569  0.9912  0.4691 -1.6797
13859TIP3    H262993   6.474   0.362   2.679  0.0834  0.2902 -0.8066
13860TIP3   OH262994   0.592   0.290  13.428  0.0197  0.2763  0.0478
13860TIP3    H162995   0.626   0.360  13.372 -0.5412 -0.8885 -1.8522
13860TIP3    H262996   0.643   0.213  13.404 -1.8233 -0.8021 -0.6480
13861TIP3   OH262997   5.274   1.872  13.431 -0.0624 -0.0479 -0.1007
13861TIP3    H162998   5.353   1.875  13.486  0.5342  0.3247 -0.9460
13861TIP3    H262999   5.295   1.930  13.358 -0.4751 -1.2247 -1.1795
13862TIP3   OH263000   6.085   1.675  13.151 -0.1257  0.4737  0.0629
13862TIP3    H163001   6.128   1.677  13.066 -1.0818  5.8023 -0.6485
13862TIP3    H263002   6.154   1.699  13.213 -0.2517  0.4685  0.2052
13863TIP3   OH263003   2.357   1.908   0.953 -0.0363  0.5498 -0.5719
13863TIP3    H163004   2.341   1.868   1.038  1.2720  0.3701 -0.4006
13863TIP3    H263005   2.305   1.988   0.954 -0.5165  0.2384  0.1424
13864TIP3   OH263006   2.529   4.609  15.776  0.4712  0.3619  0.0987
13864TIP3    H163007   2.527   4.704  15.788 -3.8422  0.7373 -1.9122
13864TIP3    H263008   2.469   4.575  15.842 -1.4033 -0.4130 -1.9005
13865TIP3   OH263009   0.032   5.291  16.326  0.0634 -0.2556  0.1587
13865TIP3    H163010  -0.028   5.221  16.298  0.5417 -0.6623  0.1387
13865TIP3    H263011  -0.019   5.371  16.316 -0.2866 -0.5418 -0.4034
13866TIP3   OH263012   2.065   4.171   1.464 -0.2764  0.4736 -0.2173
13866TIP3    H163013   2.018   4.219   1.397 -1.3859 -0.0062  0.1965
13866TIP3    H263014   2.078   4.083   1.427  0.8743  0.7709 -0.5767
13867TIP3   OH263015   4.220   2.181   2.094 -0.8526  0.1560 -0.2734
13867TIP3    H163016   4.274   2.240   2.041  1.3545 -1.3956  0.1227
13867TIP3    H263017   4.163   2.137   2.031 -0.8452  0.9536 -0.8597
13868TIP3   OH263018   3.873   4.790   4.377 -0.3463 -0.1207 -0.4242
13868TIP3    H163019   3.904   4.880   4.385 -0.4975 -0.0871 -0.2246
13868TIP3    H263020   3.782   4.798   4.348 -0.1083 -0.2228 -1.2230
13869TIP3   OH263021   1.992   6.208   2.994 -0.3181  0.1083 -0.0176
13869TIP3    H163022   1.975   6.155   2.916  0.1080  0.6950 -0.5149
13869TIP3    H263023   1.910   6.203   3.044 -0.9668  0.5602 -1.0007
13870TIP3   OH263024   2.977   6.525   2.787 -0.7927  0.2300 -0.1275
13870TIP3    H163025   2.920   6.529   2.711  0.7653  1.0755 -1.3098
13870TIP3    H263026   2.951   6.445   2.833 -1.0641 -0.8842 -2.1250
13871TIP3   OH263027   4.342   2.310   2.672 -0.0448  0.8514  0.2072
13871TIP3    H163028   4.393   2.366   2.614  0.1531 -1.6257 -2.1887
13871TIP3    H263029   4.406   2.275   2.735  0.8222 -0.3729 -1.2958
13872TIP3   OH263030   4.039   6.169   0.846  0.3773  0.3809  0.0806
13872TIP3    H163031   3.981   6.244   0.847  1.5736  1.3573 -0.4194
13872TIP3    H263032   4.071   6.161   0.936  0.6426  0.8077  0.0282
13873TIP3   OH263033   0.987   4.207  12.320 -0.1232  0.0556  0.0463
13873TIP3    H163034   1.018   4.290  12.284  0.5112  0.2463  1.0096
13873TIP3    H263035   1.036   4.196  12.401 -1.7345 -0.2064  1.0314
13874TIP3   OH263036   2.707   2.564   3.415  0.0897  0.3169 -0.3925
13874TIP3    H163037   2.799   2.587   3.404  0.5848 -2.1422 -2.3098
13874TIP3    H263038   2.690   2.498   3.347 -2.6561 -0.5079  0.9305
13875TIP3   OH263039   4.666   6.668   3.235  0.5820 -0.6503  0.0673
13875TIP3    H163040   4.705   6.662   3.148  2.7835 -0.8151  0.9872
13875TIP3    H263041   4.690   6.756   3.265 -2.7977  0.6310 -0.5837
13876TIP3   OH263042   4.549   1.144  12.722  0.4021 -0.0282  0.0895
13876TIP3    H163043   4.617   1.085  12.690  1.2940 -0.3555  2.3610
13876TIP3    H263044   4.541   1.211  12.654  2.5853 -0.3294 -0.5369
13877TIP3   OH263045   6.005   1.375  11.990  0.0396  0.5155  0.3390
13877TIP3    H163046   6.090   1.341  11.961 -1.1123 -0.3310 -2.4284
13877TIP3    H263047   6.024   1.427  12.068  2.8550 -0.8846  0.6851
13878TIP3   OH263048   4.792   6.467  11.042 -0.2595  0.1980  0.4624
13878TIP3    H163049   4.818   6.556  11.017  0.6390  0.6599  2.7958
13878TIP3    H263050   4.868   6.432  11.089 -0.8979 -1.5285  0.2710
13879TIP3   OH263051   2.303   3.331   3.545 -0.2126  0.9365 -0.3864
13879TIP3    H163052   2.220   3.351   3.589 -0.3036  1.4971 -0.7883
13879TIP3    H263053   2.352   3.413   3.548  1.0919  0.1586  1.4041
13880TIP3   OH263054   2.465   0.153   2.918 -0.2576  0.1071 -0.6717
13880TIP3    H163055   2.435   0.091   2.852 -0.9393  0.8313 -1.0544
13880TIP3    H263056   2.384   0.187   2.958  0.1066  0.6970 -0.4215
13881TIP3   OH263057   1.064   1.937  16.604  0.1168  0.1396  0.1088
13881TIP3    H163058   1.153   1.905  16.615 -0.5059 -1.6029  0.4154
13881TIP3    H263059   1.010   1.858  16.604 -1.4232  1.1479 -0.1590
13882TIP3   OH263060   0.965   0.143   5.691  0.1865  0.1121 -0.4993
13882TIP3    H163061   1.000   0.089   5.621 -1.6537 -1.0154 -0.6035
13882TIP3    H263062   0.985   0.094   5.771  1.7494  1.1061 -0.2340
13883TIP3   OH263063   5.508   3.364  12.075 -0.0860  0.3639  0.0328
13883TIP3    H163064   5.572   3.315  12.024  0.0376  0.8632 -0.3065
13883TIP3    H263065   5.481   3.304  12.145  0.5854  0.0702  0.0496
13884TIP3   OH263066   2.318   0.502   2.451  0.2381  0.3451 -0.6252
13884TIP3    H163067   2.247   0.566   2.440  0.8021  0.8059 -1.6845
13884TIP3    H263068   2.336   0.503   2.545 -0.7668  0.6427 -0.4204
13885TIP3   OH263069   0.846   4.281   6.002  0.0539  0.8468 -0.2560
13885TIP3    H163070   0.909   4.342   6.039 -1.1952  2.1578 -0.2289
13885TIP3    H263071   0.761   4.312   6.032 -0.6177 -0.9898 -0.1385
13886TIP3   OH263072   4.273   1.239  11.646  0.4225  0.3462 -0.4719
13886TIP3    H163073   4.213   1.170  11.673  1.4676 -1.2818 -2.1464
13886TIP3    H263074   4.356   1.216  11.685  0.1835  2.3302  1.4244
13887TIP3   OH263075   0.388   3.348  16.747 -0.0156 -0.1401  0.2746
13887TIP3    H163076   0.463   3.327  16.692  0.6677 -0.1142  1.1647
13887TIP3    H263077   0.372   3.268  16.797 -1.6146 -0.6865 -1.0333
13888TIP3   OH263078   1.271   4.950  15.274  0.1086  0.0375  0.0243
13888TIP3    H163079   1.260   4.972  15.366  0.3470 -0.8563  0.2758
13888TIP3    H263080   1.365   4.958  15.258 -0.0154  0.9223 -0.3471
13889TIP3   OH263081   4.501   5.618  11.815 -0.4795 -0.1147  0.2991
13889TIP3    H163082   4.524   5.597  11.906 -0.5895 -1.0734  0.1185
13889TIP3    H263083   4.438   5.550  11.790 -0.3375  0.0490 -0.5419
13890TIP3   OH263084   5.654   2.097   2.922 -0.2162  0.0481 -0.2072
13890TIP3    H163085   5.567   2.132   2.900 -0.2653 -0.4685 -0.8765
13890TIP3    H263086   5.710   2.126   2.850  0.3048  0.8384  0.4923
13891TIP3   OH263087   0.961   3.034  15.521  0.2100 -0.2108  0.5632
13891TIP3    H163088   0.887   2.977  15.542  0.7218 -0.9695  0.3518
13891TIP3    H263089   1.023   3.021  15.593  0.8791 -0.9061 -0.1183
13892TIP3   OH263090   5.291   4.133   1.389  0.2471 -0.1094 -0.3917
13892TIP3    H163091   5.223   4.201   1.392  0.9307  0.5471  1.1258
13892TIP3    H263092   5.337   4.149   1.307 -0.7408  0.1199 -0.9189
13893TIP3   OH263093   3.973   5.977   2.412 -0.1403 -0.6331 -0.3594
13893TIP3    H163094   4.066   5.956   2.403  0.0442 -0.9315  1.7775
13893TIP3    H263095   3.972   6.073   2.417 -0.1149 -0.5429 -1.6379
13894TIP3   OH263096   4.970   0.119   0.186 -0.1414 -0.8678 -0.2295
13894TIP3    H163097   4.918   0.198   0.170  0.2892 -0.9881 -2.6869
13894TIP3    H263098   4.913   0.047   0.157 -0.0965 -1.3901  0.9150
13895TIP3   OH263099   6.309   0.864   4.477  0.3255 -0.2047 -0.0564
13895TIP3    H163100   6.341   0.945   4.515  2.2110 -0.6167 -0.6422
13895TIP3    H263101   6.226   0.848   4.520  0.0195  1.9051  0.2348
13896TIP3   OH263102   1.093   4.988  13.170  0.1656 -0.2748 -0.5636
13896TIP3    H163103   1.082   4.941  13.253 -1.0572 -0.4840 -0.8293
13896TIP3    H263104   1.105   5.080  13.197  1.2666 -0.5347 -0.1058
13897TIP3   OH263105   0.394   0.514   1.305  0.7985  0.4715 -0.2427
13897TIP3    H163106   0.310   0.483   1.339  1.7284  0.2346  2.0191
13897TIP3    H263107   0.407   0.463   1.225 -0.0444 -1.3480  0.7152
13898TIP3   OH263108   3.983   5.093   5.822  0.4835 -0.8954  0.2748
13898TIP3    H163109   4.011   5.055   5.905  0.6907 -0.7694  0.2633
13898TIP3    H263110   4.040   5.169   5.810  0.1157 -0.6121  0.2703
13899TIP3   OH263111   6.152   2.235   6.661 -0.1373 -0.2345  0.3916
13899TIP3    H163112   6.236   2.260   6.621 -0.7127  2.0850  0.4806
13899TIP3    H263113   6.092   2.229   6.587 -0.2148 -0.4011  0.4691
13900TIP3   OH263114   0.108   3.935  16.418 -0.3026  0.0087  0.4910
13900TIP3    H163115   0.028   3.928  16.367 -0.1991  1.1065  0.1672
13900TIP3    H263116   0.139   4.024  16.404  0.7716 -0.2726  0.9232
13901TIP3   OH263117   2.549   0.714  14.356 -0.3947 -0.4457  0.1483
13901TIP3    H163118   2.631   0.686  14.396 -1.3992  0.3301  3.0044
13901TIP3    H263119   2.564   0.806  14.333  0.3241 -1.0029 -1.8711
13902TIP3   OH263120   0.130   5.406  11.877  0.7049 -0.2940 -0.2284
13902TIP3    H163121   0.110   5.445  11.792 -1.9566  0.3077  0.5621
13902TIP3    H263122   0.197   5.462  11.915  0.9283  0.2354 -1.3756
13903TIP3   OH263123   3.705   4.046   4.761 -0.4767 -0.7770  0.0170
13903TIP3    H163124   3.718   4.123   4.707 -0.4117 -0.0185  1.0762
13903TIP3    H263125   3.678   3.977   4.700 -1.2760  0.2724 -0.8370
13904TIP3   OH263126   1.127   2.195  17.160 -0.1490  0.3732 -0.5827
13904TIP3    H163127   1.077   2.123  17.121  1.3455 -1.5347  0.8293
13904TIP3    H263128   1.064   2.240  17.216 -0.9579 -0.2629 -0.9516
13905TIP3   OH263129   0.015   4.604   0.673 -0.7539 -0.2354  0.0243
13905TIP3    H163130   0.041   4.535   0.612  1.9591  0.5183  0.2134
13905TIP3    H263131  -0.004   4.679   0.618  1.6249  0.4233  0.0105
13906TIP3   OH263132   1.611   0.169   3.612 -0.6187  0.0414 -0.4703
13906TIP3    H163133   1.623   0.074   3.602 -0.6624 -0.2047  1.4193
13906TIP3    H263134   1.538   0.177   3.673 -0.1835  1.2788 -0.0933
13907TIP3   OH263135   4.980   4.652  13.051  0.0357 -0.0647  0.2535
13907TIP3    H163136   5.005   4.569  13.009 -0.8026  0.5149 -1.4928
13907TIP3    H263137   4.889   4.665  13.024 -0.1046  1.0164  1.2080
13908TIP3   OH263138   2.432   0.660  14.724 -0.3512 -0.1062 -0.7845
13908TIP3    H163139   2.403   0.590  14.665 -2.4664  0.8865 -1.0380
13908TIP3    H263140   2.390   0.739  14.689  0.5241  0.9825  0.5193
13909TIP3   OH263141   4.512   6.005   3.059 -0.0598  0.0113  0.1078
13909TIP3    H163142   4.458   6.009   2.980  0.4280 -0.8413 -0.2786
13909TIP3    H263143   4.458   5.958   3.123 -0.3213  0.4006  0.1744
13910TIP3   OH263144   5.942   6.557   3.276 -0.4384 -0.2315 -0.1430
13910TIP3    H163145   5.934   6.652   3.276  1.5230 -0.0248 -0.1759
13910TIP3    H263146   5.862   6.526   3.317 -0.2839  1.5235  1.6124
13911TIP3   OH263147   2.632   4.245   6.283 -0.2436  0.6690 -0.3224
13911TIP3    H163148   2.676   4.163   6.308 -1.5867 -0.2773 -0.9280
13911TIP3    H263149   2.611   4.287   6.366 -1.6678 -0.7941  0.1053
13912TIP3   OH263150   2.450   0.042  17.303 -0.3057 -0.0382  0.5047
13912TIP3    H163151   2.491   0.087  17.377 -0.8818  2.9793 -0.8694
13912TIP3    H263152   2.520   0.033  17.239 -0.6325  0.7232  0.0264
13913TIP3   OH263153   1.334   4.038   3.224 -0.0340 -0.6055  0.1769
13913TIP3    H163154   1.367   4.113   3.274 -0.2969  1.9539 -3.1091
13913TIP3    H263155   1.357   4.058   3.133 -3.2650 -2.7630 -1.3254
13914TIP3   OH263156   2.951   2.915  15.267 -0.0030 -0.8165 -0.7921
13914TIP3    H163157   2.891   2.900  15.341  0.8934 -1.1130 -0.1036
13914TIP3    H263158   2.940   3.008  15.247  0.6864 -0.3918  0.6067
13915TIP3   OH263159   6.313   4.897   5.837 -0.2969 -0.5438 -0.0047
13915TIP3    H163160   6.355   4.827   5.787  0.0303 -0.7296  0.5256
13915TIP3    H263161   6.248   4.933   5.777  2.3671  1.5289 -1.8869
13916TIP3   OH263162   2.825   2.617  17.509 -0.0267 -0.2403  0.4618
13916TIP3    H163163   2.763   2.590  17.442 -0.5724  1.1055  0.3886
13916TIP3    H263164   2.876   2.538  17.528  0.1582 -0.6578 -1.5384
13917TIP3   OH263165   5.839   3.962   0.798 -0.2434  0.6304  0.1273
13917TIP3    H163166   5.835   4.058   0.797  0.3003  0.7443  2.3772
13917TIP3    H263167   5.748   3.934   0.806 -0.2704  1.1641  2.7612
13918TIP3   OH263168   5.952   1.091  13.980  0.5003  0.6671 -0.4576
13918TIP3    H163169   6.037   1.070  13.940  0.4696 -0.1244 -0.1305
13918TIP3    H263170   5.960   1.183  14.007  3.1977 -0.5900  4.2177
13919TIP3   OH263171   1.244   1.758  12.278  0.1976 -0.7928 -0.4769
13919TIP3    H163172   1.177   1.818  12.243 -0.6080 -2.4478 -1.9254
13919TIP3    H263173   1.326   1.808  12.271 -0.8258  1.4222  1.6651
13920TIP3   OH263174   5.963   3.289   0.029  0.4017 -0.4966 -0.5811
13920TIP3    H163175   5.993   3.374   0.059  0.4462 -0.7353  0.0653
13920TIP3    H263176   5.991   3.228   0.097 -0.2185 -0.9323 -0.7010
13921TIP3   OH263177   3.281   3.606  11.535  0.5108 -0.1481 -0.1067
13921TIP3    H163178   3.324   3.523  11.556 -1.5232 -0.8798  1.4746
13921TIP3    H263179   3.247   3.593  11.446  1.1683 -0.5584 -0.3096
13922TIP3   OH263180   2.300   1.145  13.745  0.6745  0.3266  0.1660
13922TIP3    H163181   2.332   1.209  13.808  0.5367  0.3921  0.1709
13922TIP3    H263182   2.345   1.064  13.767  0.5333  0.3176  0.4277
13923TIP3   OH263183   0.343   6.332  15.732  0.3419  0.5881 -0.2654
13923TIP3    H163184   0.352   6.386  15.811  0.8606  0.9133 -0.5407
13923TIP3    H263185   0.342   6.242  15.764  1.2453  0.6852  0.0619
13924TIP3   OH263186   0.076   2.679  16.942 -0.1973  0.1408  0.2344
13924TIP3    H163187   0.142   2.714  17.001  1.8335 -0.6223 -1.4594
13924TIP3    H263188   0.094   2.585  16.938 -1.5505 -0.1353 -0.1035
13925TIP3   OH263189   0.484   5.712   1.807  0.0172 -0.3394  0.5373
13925TIP3    H163190   0.504   5.758   1.725 -2.0563  0.1031  0.2235
13925TIP3    H263191   0.544   5.637   1.807  0.2332 -0.2179 -1.2721
13926TIP3   OH263192   2.215   1.869  12.934  0.4290  0.4263  0.4284
13926TIP3    H163193   2.185   1.926  12.862 -0.4470  0.0916  0.5143
13926TIP3    H263194   2.134   1.830  12.968  0.9337 -0.1331  0.9934
13927TIP3   OH263195   5.183   0.352  16.184 -0.6683  0.1511 -0.2104
13927TIP3    H163196   5.217   0.263  16.196 -2.9946 -0.7351  0.3872
13927TIP3    H263197   5.235   0.388  16.112 -1.2898 -2.6209 -2.1999
13928TIP3   OH263198   5.782   3.696   1.444 -0.3857  0.0039 -0.2681
13928TIP3    H163199   5.708   3.718   1.387  1.2455  1.8974 -1.8203
13928TIP3    H263200   5.849   3.761   1.422  1.3027 -0.8585  1.9685
13929TIP3   OH263201   5.259   0.114   2.997 -0.3314 -0.0655  0.0999
13929TIP3    H163202   5.342   0.068   3.011 -0.5914 -0.4954  0.2496
13929TIP3    H263203   5.283   0.191   2.947 -0.2187 -1.6505 -2.4424
13930TIP3   OH263204   1.382   4.708   1.530  0.7482 -0.2721  0.2180
13930TIP3    H163205   1.427   4.661   1.460  1.0693  1.0880 -0.5288
13930TIP3    H263206   1.333   4.777   1.485  1.3727  0.9592  1.3572
13931TIP3   OH263207   6.570   4.753   5.507  0.2314  0.5971 -0.7080
13931TIP3    H163208   6.555   4.709   5.424  0.4263 -1.5591  0.3319
13931TIP3    H263209   6.492   4.734   5.560  1.6270 -1.2864  0.8458
13932TIP3   OH263210   5.717   0.931  15.032 -0.0118  0.5010  0.2529
13932TIP3    H163211   5.741   0.930  15.125  3.1243 -2.9353 -0.3571
13932TIP3    H263212   5.660   0.855  15.022  0.7798  0.0472 -0.8620
13933TIP3   OH263213   5.187   2.282  13.412 -0.1259 -0.4658  0.0628
13933TIP3    H163214   5.251   2.214  13.391  0.9872 -0.1235  2.0915
13933TIP3    H263215   5.195   2.295  13.506 -0.6081  2.1728 -0.1716
13934TIP3   OH263216   4.234   0.869  11.744  0.6167  0.2574 -0.1718
13934TIP3    H163217   4.288   0.877  11.665  0.4004 -0.0664 -0.3550
13934TIP3    H263218   4.294   0.890  11.816  1.1004 -0.4941 -0.3423
13935TIP3   OH263219   4.181   1.364  13.795 -0.4342 -0.1204 -0.4325
13935TIP3    H163220   4.218   1.276  13.796 -0.7970 -0.3288  2.3977
13935TIP3    H263221   4.111   1.362  13.860 -3.2905  1.1843 -3.1666
13936TIP3   OH263222   5.507   1.734   3.095  0.3492 -0.5189 -0.6561
13936TIP3    H163223   5.417   1.708   3.114 -0.0729  0.9990 -0.4435
13936TIP3    H263224   5.507   1.830   3.104  1.4632 -0.2618 -2.7608
13937TIP3   OH263225   0.794   0.955  16.254 -0.4902 -0.5625  0.6154
13937TIP3    H163226   0.759   1.031  16.209 -0.2851 -0.7541  0.1255
13937TIP3    H263227   0.763   0.964  16.345  0.9239  0.9801  0.9823
13938TIP3   OH263228   0.654   2.021  15.866 -0.1552 -0.1343  0.0123
13938TIP3    H163229   0.565   1.989  15.875 -0.7416  1.6401  1.0329
13938TIP3    H263230   0.700   1.988  15.943  0.7901 -3.0302 -1.6667
13939TIP3   OH263231   4.958   0.445  11.339  0.0017 -0.2367 -0.0632
13939TIP3    H163232   5.005   0.398  11.270  1.3843 -0.3076  0.9003
13939TIP3    H263233   5.012   0.522  11.357  0.7855 -1.2398  2.3263
13940TIP3   OH263234   1.335   5.001   6.029  0.3010 -0.2204 -0.2899
13940TIP3    H163235   1.387   5.045   6.097  0.8741 -1.4400  0.0831
13940TIP3    H263236   1.273   4.947   6.078  0.7390 -1.1315 -0.7179
13941TIP3   OH263237   3.104   2.703  17.430 -0.4620  0.8313  0.0505
13941TIP3    H163238   3.044   2.697  17.505  0.0975  3.0547  0.7450
13941TIP3    H263239   3.058   2.758  17.367  1.0711  3.2918  0.9407
13942TIP3   OH263240   4.657   5.540  12.345  0.6265 -0.6960  0.2457
13942TIP3    H163241   4.710   5.486  12.404 -0.8089 -2.1944  0.2377
13942TIP3    H263242   4.567   5.512  12.361 -0.0038  0.3914 -1.1399
13943TIP3   OH263243   0.179   5.607   3.800  0.1854  0.0765 -0.6216
13943TIP3    H163244   0.156   5.698   3.783 -1.1791 -0.1699 -0.1962
13943TIP3    H263245   0.098   5.567   3.830  0.7172 -1.3375 -1.0086
13944TIP3   OH263246   4.115   3.356   0.055  0.1434  0.5074 -0.4009
13944TIP3    H163247   4.032   3.384   0.092  2.1776  3.5526  2.4727
13944TIP3    H263248   4.164   3.438   0.042  1.7428 -0.8841 -4.7604
13945TIP3   OH263249   3.670   6.521  15.713 -0.8533 -0.0954 -0.3085
13945TIP3    H163250   3.711   6.436  15.698 -2.1492 -0.7020 -0.5691
13945TIP3    H263251   3.647   6.553  15.626 -0.7490  0.3376 -0.1823
13946TIP3   OH263252   0.900   3.647   4.203  0.3278  0.3279  0.2046
13946TIP3    H163253   0.828   3.594   4.170 -0.4993  1.0698  0.7812
13946TIP3    H263254   0.953   3.586   4.255  0.2006 -0.2490 -0.3288
13947TIP3   OH263255   1.510   2.874  12.637  0.1969 -0.9551  0.3744
13947TIP3    H163256   1.593   2.860  12.682  0.3324 -1.8810 -0.1300
13947TIP3    H263257   1.529   2.853  12.545 -0.2164  0.3241 -0.0131
13948TIP3   OH263258   0.679   2.391   3.264 -0.0526 -0.1446 -0.1665
13948TIP3    H163259   0.677   2.478   3.303 -0.2619 -0.4182  0.4537
13948TIP3    H263260   0.765   2.385   3.221  0.5446 -0.1403  0.9944
13949TIP3   OH263261   3.153   5.311  14.168 -0.3641 -0.2122 -0.1805
13949TIP3    H163262   3.183   5.391  14.211 -0.2645 -0.2614 -0.1583
13949TIP3    H263263   3.149   5.334  14.075  1.4785 -0.7386 -0.4112
13950TIP3   OH263264   3.660   0.244  15.714 -0.3652 -0.1372 -0.3363
13950TIP3    H163265   3.690   0.327  15.676  1.3198 -0.9995 -1.0001
13950TIP3    H263266   3.657   0.261  15.809  0.0027  0.6654 -0.4583
13951TIP3   OH263267   1.772   6.069  14.641 -0.5597  1.1863 -0.4285
13951TIP3    H163268   1.688   6.040  14.676  0.7549 -0.5541  1.4862
13951TIP3    H263269   1.800   6.138  14.701  1.6909 -1.7941  2.3282
13952TIP3   OH263270   6.258   3.100  13.677  0.3263  0.1890  0.6737
13952TIP3    H163271   6.194   3.168  13.655 -0.2060 -0.9833 -1.6714
13952TIP3    H263272   6.205   3.029  13.713  0.5645  0.0259  0.7035
13953TIP3   OH263273   1.969   4.650   2.842  0.2565 -0.3165 -0.2392
13953TIP3    H163274   1.878   4.676   2.827  0.3514  0.3207  0.2237
13953TIP3    H263275   1.994   4.602   2.764 -0.0223  0.7696 -1.0258
13954TIP3   OH263276   6.605   3.236   0.615  0.4690  0.3397 -0.1914
13954TIP3    H163277   6.568   3.162   0.663 -0.6198  1.6539  1.1320
13954TIP3    H263278   6.602   3.210   0.523 -0.2669 -1.0747  0.2033
13955TIP3   OH263279   5.389   1.443   0.658  0.0647 -0.3600 -0.2956
13955TIP3    H163280   5.483   1.429   0.644  0.2590  1.4623 -1.0307
13955TIP3    H263281   5.351   1.355   0.653  1.5600 -0.9890 -1.3360
13956TIP3   OH263282   6.683   1.535   0.484  0.0341  0.2469 -0.4239
13956TIP3    H163283   6.655   1.554   0.395 -0.1047 -1.2054 -0.7166
13956TIP3    H263284   6.777   1.555   0.486 -0.2877  1.8841 -0.3961
13957TIP3   OH263285   3.148   4.181  16.078  0.1037  0.0227  0.4916
13957TIP3    H163286   3.173   4.272  16.092  1.8332 -0.4349  0.6911
13957TIP3    H263287   3.126   4.148  16.165  1.5331 -0.2776  0.7695
13958TIP3   OH263288   2.811   3.736  10.721 -0.2488 -0.1760 -0.3361
13958TIP3    H163289   2.844   3.740  10.631 -1.3249  0.2802 -0.7316
13958TIP3    H263290   2.751   3.662  10.720 -0.3244 -0.1173 -0.0111
13959TIP3   OH263291   3.922   5.243  14.561 -0.0592 -0.5717 -0.7768
13959TIP3    H163292   3.851   5.239  14.626  1.4206  0.1635  0.9815
13959TIP3    H263293   3.957   5.332  14.570  1.6538 -1.1969 -0.9514
13960TIP3   OH263294   1.226   6.281   3.729  0.0160  0.7016 -0.2188
13960TIP3    H163295   1.132   6.296   3.722 -0.3890 -1.8247 -0.8408
13960TIP3    H263296   1.254   6.260   3.640  0.7903 -0.4906  0.2883
13961TIP3   OH263297   6.375   5.701  11.838 -0.1371  0.1372  0.2734
13961TIP3    H163298   6.358   5.673  11.927 -0.1023  0.4799  0.3893
13961TIP3    H263299   6.307   5.767  11.820  0.8275  1.2578  0.6161
13962TIP3   OH263300   3.821   1.223   1.410  0.4468 -0.0755 -0.2391
13962TIP3    H163301   3.809   1.199   1.318  0.1821  2.3013 -0.9046
13962TIP3    H263302   3.732   1.239   1.442  0.6389  0.6204 -0.0358
13963TIP3   OH263303   1.217   4.533   5.402 -0.4578  0.1806 -0.1460
13963TIP3    H163304   1.218   4.450   5.450  0.2020 -0.4427 -1.1986
13963TIP3    H263305   1.141   4.526   5.344  0.1807 -0.1463 -0.9694
13964TIP3   OH263306   3.972   2.251   0.227  0.2728  0.2805  0.2082
13964TIP3    H163307   4.064   2.239   0.251 -0.2781 -2.1900  1.3745
13964TIP3    H263308   3.926   2.182   0.274 -1.7903 -0.5828 -2.7824
13965TIP3   OH263309   0.828   4.215   3.967  0.1511  0.5389  0.3339
13965TIP3    H163310   0.793   4.132   3.934  0.3642  0.0939  1.1946
13965TIP3    H263311   0.755   4.276   3.960  0.0429  0.3218 -0.4689
13966TIP3   OH263312   0.143   4.675   5.951 -0.3310 -0.4530  0.0562
13966TIP3    H163313   0.102   4.695   6.035  0.1197  1.9941 -0.2178
13966TIP3    H263314   0.086   4.718   5.886  0.7420 -0.0192 -0.6259
13967TIP3   OH263315   2.266   4.693  13.407  0.5088 -0.0765  0.3419
13967TIP3    H163316   2.258   4.690  13.503 -1.2879  2.2541  0.3653
13967TIP3    H263317   2.350   4.735  13.391  0.0379  1.1692  0.9928
13968TIP3   OH263318   5.165   6.308   1.107 -0.3190 -0.3974 -0.6225
13968TIP3    H163319   5.240   6.295   1.165 -0.2840  0.6210 -0.4181
13968TIP3    H263320   5.092   6.324   1.166 -0.0801  1.6950 -0.8358
13969TIP3   OH263321   3.177   2.835   4.890  0.4595 -0.5215 -0.0633
13969TIP3    H163322   3.117   2.820   4.817 -3.7273  1.0338  2.6849
13969TIP3    H263323   3.209   2.748   4.913 -1.5598 -1.6308 -1.1483
13970TIP3   OH263324   3.870   1.679   4.495 -0.1573 -0.0956 -0.2740
13970TIP3    H163325   3.935   1.609   4.496  1.5494  1.2900  2.8475
13970TIP3    H263326   3.786   1.636   4.509  0.6620 -1.6154  0.1179
13971TIP3   OH263327   5.782   1.222   2.583  0.0520 -0.0509  0.3788
13971TIP3    H163328   5.740   1.200   2.667 -2.3318 -0.3126 -0.7991
13971TIP3    H263329   5.782   1.318   2.582 -0.5014 -0.0442  0.4262
13972TIP3   OH263330   3.511   4.422   0.164  0.1319 -0.2622 -0.4726
13972TIP3    H163331   3.476   4.353   0.221  1.6996  0.1454  1.0851
13972TIP3    H263332   3.562   4.477   0.222  1.2799  0.5780 -2.1869
13973TIP3   OH263333   4.453   5.937  13.507  0.6504 -0.0113  0.6038
13973TIP3    H163334   4.446   6.025  13.543 -1.8549  0.2241 -0.2726
13973TIP3    H263335   4.493   5.949  13.421 -0.4239  0.4080  0.1455
13974TIP3   OH263336   0.939   6.607  12.416 -0.5404  0.3176 -0.3726
13974TIP3    H163337   1.010   6.572  12.470 -0.3995  1.9002  0.5423
13974TIP3    H263338   0.863   6.555  12.440 -0.5068  1.0271  1.5200
13975TIP3   OH263339   6.651   6.483  16.320  0.2599  0.2737  0.5774
13975TIP3    H163340   6.586   6.466  16.389  0.2248  0.8656  0.6959
13975TIP3    H263341   6.626   6.568  16.285 -0.8246 -0.7799 -1.3984
13976TIP3   OH263342   0.397   3.218   1.610 -0.7212  0.1556  0.1962
13976TIP3    H163343   0.454   3.228   1.687  0.9143  5.1548 -1.2641
13976TIP3    H263344   0.308   3.226   1.645 -0.0877  1.1173  1.7231
13977TIP3   OH263345   1.212   5.100   6.384 -0.8811  0.2124  0.2511
13977TIP3    H163346   1.294   5.061   6.355 -1.5264  0.1076 -1.5647
13977TIP3    H263347   1.166   5.028   6.429 -0.6139 -0.1523 -0.0534
13978TIP3   OH263348   0.034   6.298   1.387 -0.0440 -0.3971  0.1469
13978TIP3    H163349   0.059   6.206   1.386 -1.8232 -0.9090 -0.5592
13978TIP3    H263350  -0.059   6.298   1.412 -0.4073  1.1025 -1.0126
13979TIP3   OH263351   1.298   3.970  16.090  0.3016  0.4718 -0.2397
13979TIP3    H163352   1.228   3.988  16.152  0.3682 -0.4629  0.1220
13979TIP3    H263353   1.378   3.998  16.136  0.2501  0.8037 -0.3454
13980TIP3   OH263354   6.348   2.309   3.405  0.3400  0.2384  0.2968
13980TIP3    H163355   6.322   2.328   3.315  0.3097  1.1453  0.4846
13980TIP3    H263356   6.267   2.278   3.447  0.0415  1.0392  0.3340
13981TIP3   OH263357   0.739   1.875   4.237 -0.1288 -0.2667 -0.0822
13981TIP3    H163358   0.789   1.864   4.318  0.6858 -0.0664 -0.5426
13981TIP3    H263359   0.789   1.940   4.188  0.8283 -2.2618 -1.8722
13982TIP3   OH263360   3.340   4.086   1.526  0.2952 -0.0355  0.0546
13982TIP3    H163361   3.430   4.079   1.557  0.1199 -0.1989  0.5262
13982TIP3    H263362   3.313   4.175   1.548 -0.2971 -0.5852  1.6489
13983TIP3   OH263363   1.486   5.257   0.728  1.0660  0.5124 -0.1775
13983TIP3    H163364   1.519   5.183   0.676  0.8971 -0.5043  1.1062
13983TIP3    H263365   1.417   5.219   0.783 -0.4330  2.0614 -0.9064
13984TIP3   OH263366   1.114   3.468  14.203  0.0041 -0.4676 -0.4369
13984TIP3    H163367   1.091   3.473  14.110  2.0984 -0.3453 -1.0031
13984TIP3    H263368   1.196   3.419  14.204  1.9114  2.4909  0.9548
13985TIP3   OH263369   3.412   5.965   3.909 -0.1838 -0.2666  0.2285
13985TIP3    H163370   3.502   5.960   3.941 -0.5902  0.0611  1.5098
13985TIP3    H263371   3.361   5.990   3.987 -0.9607  3.0107 -1.1687
13986TIP3   OH263372   3.574   1.978   0.306  0.2781 -0.0079 -0.9893
13986TIP3    H163373   3.569   1.921   0.229 -2.1290  0.2342 -1.1053
13986TIP3    H263374   3.622   2.055   0.276 -1.5467  0.5738 -2.6785
13987TIP3   OH263375   3.930   2.300  13.251 -0.0648 -0.5558  0.2296
13987TIP3    H163376   3.844   2.340  13.260  0.3484  0.9949 -1.8310
13987TIP3    H263377   3.937   2.281  13.157  1.2080 -2.2111  0.6138
13988TIP3   OH263378   0.187   1.284   3.969  1.0158 -0.3936  0.3880
13988TIP3    H163379   0.257   1.310   4.028  2.3058 -2.1138 -0.3082
13988TIP3    H263380   0.107   1.287   4.022  1.5864  1.4987  1.2177
13989TIP3   OH263381   3.723   0.418  13.577 -0.3948  0.3789  0.2076
13989TIP3    H163382   3.747   0.414  13.669 -2.2908 -1.3815  0.6901
13989TIP3    H263383   3.702   0.510  13.561  1.7340  1.0578  0.9909
13990TIP3   OH263384   6.440   4.091  12.552  0.1444  0.1252  0.3958
13990TIP3    H163385   6.360   4.127  12.515  0.2337  1.4376  1.4013
13990TIP3    H263386   6.467   4.155  12.618  1.6012 -0.6690  0.6171
13991TIP3   OH263387   3.000   4.261   2.604  0.4308 -0.1804 -1.0385
13991TIP3    H163388   3.062   4.229   2.538  1.9243  1.0327 -0.2714
13991TIP3    H263389   3.019   4.208   2.682  0.7336  0.4165 -0.7035
13992TIP3   OH263390   2.947   1.631   5.496  0.3087  0.1592  0.3548
13992TIP3    H163391   3.007   1.580   5.551 -1.6779 -0.7645  1.7798
13992TIP3    H263392   3.003   1.694   5.452  2.2422 -0.2087  2.1322
13993TIP3   OH263393   2.556   6.608  14.131  0.1557 -0.0670 -0.2864
13993TIP3    H163394   2.533   6.537  14.072  2.1083  1.1044 -2.6120
13993TIP3    H263395   2.599   6.565  14.205  0.8421 -1.3702 -1.4098
13994TIP3   OH263396   0.670   2.003  11.296  0.2066  0.1770  0.0960
13994TIP3    H163397   0.608   2.043  11.235 -0.2964 -0.9606 -0.1600
13994TIP3    H263398   0.638   1.914  11.309  2.3391 -0.8007 -0.8538
13995TIP3   OH263399   2.772   2.250   1.031  0.2637  0.0562  0.7246
13995TIP3    H163400   2.707   2.246   1.100 -0.8809  0.5231 -0.2892
13995TIP3    H263401   2.729   2.211   0.955  0.6208  1.7080 -0.3775
13996TIP3   OH263402   6.597   1.209  14.171  0.0670  0.3494 -0.2440
13996TIP3    H163403   6.685   1.172  14.184  1.2664  2.2026 -2.3354
13996TIP3    H263404   6.588   1.272  14.243  1.8655  2.4037 -1.6846
13997TIP3   OH263405   3.470   6.508  11.976  0.4480  0.4128 -0.0734
13997TIP3    H163406   3.407   6.580  11.964  0.0984  0.3429  1.1893
13997TIP3    H263407   3.478   6.468  11.889 -0.7469  0.8535 -0.4041
13998TIP3   OH263408   4.716   0.560   5.921  0.7368  0.3702  0.0347
13998TIP3    H163409   4.622   0.545   5.906  0.8123 -3.0423  1.9235
13998TIP3    H263410   4.760   0.507   5.855  1.3165  0.4708  0.3369
13999TIP3   OH263411   4.767   2.694  16.160 -0.1439 -0.3318  0.3124
13999TIP3    H163412   4.723   2.740  16.089  0.4703 -1.9200 -1.1858
13999TIP3    H263413   4.700   2.637  16.197 -1.1642  2.2407  2.7885
14000TIP3   OH263414   5.120   3.220  13.866  0.2472 -0.1418 -0.0381
14000TIP3    H163415   5.154   3.206  13.778 -0.7341  3.3484 -1.1197
14000TIP3    H263416   5.027   3.200  13.860 -0.0138  1.0274 -0.0868
14001TIP3   OH263417   3.401   5.896   2.695 -0.0726  0.1814 -0.0095
14001TIP3    H163418   3.489   5.930   2.682  0.0829 -0.5236 -0.8568
14001TIP3    H263419   3.392   5.889   2.790  1.1032 -0.5257  0.0714
14002TIP3   OH263420   2.290   5.703   1.326  0.5445 -0.4170 -0.3703
14002TIP3    H163421   2.243   5.631   1.283  1.1334 -0.9682 -0.1023
14002TIP3    H263422   2.283   5.684   1.419  2.8211 -1.5279 -0.3469
14003TIP3   OH263423   6.583   0.734  15.770 -0.2519  0.0134 -0.4929
14003TIP3    H163424   6.679   0.729  15.771  0.0243  3.0131  2.1030
14003TIP3    H263425   6.561   0.751  15.678  1.5804 -1.2450 -1.2314
14004TIP3   OH263426   0.842   2.461  15.944  0.0202  0.1148 -0.0398
14004TIP3    H163427   0.846   2.411  16.025  2.1790  0.1249 -0.0769
14004TIP3    H263428   0.897   2.538  15.960  1.7565 -0.6258 -1.9576
14005TIP3   OH263429   0.296   5.105   3.796 -0.2086  0.0489  0.1166
14005TIP3    H163430   0.251   5.189   3.785  2.2347  1.4890  0.2601
14005TIP3    H263431   0.368   5.108   3.732 -0.0520 -1.9581  0.1285
14006TIP3   OH263432   0.732   6.495  11.785 -0.0281  0.1247 -0.0925
14006TIP3    H163433   0.678   6.574  11.776 -1.1955 -0.2596  2.7384
14006TIP3    H263434   0.795   6.502  11.713 -2.5721  1.5705 -2.3864
14007TIP3   OH263435   6.595   2.819  10.893  0.5062  0.1965 -0.6230
14007TIP3    H163436   6.593   2.914  10.904 -0.9555  0.1175  0.0328
14007TIP3    H263437   6.682   2.793  10.923  0.8306  1.2960 -0.5589
14008TIP3   OH263438   2.091   2.686  12.108 -0.5175 -0.1661  0.2935
14008TIP3    H163439   2.179   2.661  12.080  0.1580 -0.4223  2.3952
14008TIP3    H263440   2.039   2.606  12.099  0.3484 -1.0083  2.1075
14009TIP3   OH263441   0.384   1.370  15.171  0.0560 -0.1150 -0.1591
14009TIP3    H163442   0.344   1.356  15.257  1.0265  1.9336  0.6817
14009TIP3    H263443   0.338   1.447  15.136  0.6204 -0.0965 -0.8814
14010TIP3   OH263444   6.136   4.115  16.136  0.2201  0.5329 -0.3819
14010TIP3    H163445   6.211   4.166  16.168 -0.9813  2.1016  0.1027
14010TIP3    H263446   6.128   4.043  16.198  1.2129  0.4443 -0.3346
14011TIP3   OH263447   2.199   3.290   1.423 -0.2300  0.1902 -0.1833
14011TIP3    H163448   2.133   3.223   1.443  0.1696 -0.3063 -0.5047
14011TIP3    H263449   2.277   3.261   1.469 -0.0531  0.4383 -0.3263
14012TIP3   OH263450   6.300   0.717   0.928 -0.3577 -0.4481  0.5056
14012TIP3    H163451   6.385   0.757   0.947 -0.8550  2.1383 -2.0559
14012TIP3    H263452   6.321   0.645   0.868  0.0751  0.1826 -0.1244
14013TIP3   OH263453   6.660   4.864  11.980  0.7221  0.2004 -0.0433
14013TIP3    H163454   6.601   4.851  11.906  2.5087  1.1011 -1.7142
14013TIP3    H263455   6.626   4.806  12.048 -0.0295 -1.9700 -2.1226
14014TIP3   OH263456   2.244   3.581   2.070  0.2727 -0.1301 -0.2744
14014TIP3    H163457   2.162   3.556   2.028  0.4047 -0.3123 -0.4254
14014TIP3    H263458   2.311   3.564   2.004  0.3455  0.8486 -0.4648
14015TIP3   OH263459   4.498   0.099  11.261  0.1250  0.0388  0.1936
14015TIP3    H163460   4.534   0.187  11.272  1.5070  0.0194 -2.9817
14015TIP3    H263461   4.574   0.044  11.242 -1.0235 -0.9184 -2.1677
14016TIP3   OH263462   1.130   3.291  16.142  0.0156 -0.2026  0.8536
14016TIP3    H163463   1.211   3.342  16.129  0.5420 -0.8214  1.6226
14016TIP3    H263464   1.142   3.248  16.226 -0.5350 -1.3887  0.3418
14017TIP3   OH263465   0.029   4.840  12.312 -0.0070 -0.4258  0.1574
14017TIP3    H163466   0.112   4.816  12.270  0.8798  3.8830 -1.1252
14017TIP3    H263467   0.054   4.874  12.397  0.2106  3.5349 -1.2639
14018TIP3   OH263468   1.295   2.317   3.216 -0.4224  0.0060 -0.2231
14018TIP3    H163469   1.215   2.350   3.257 -1.1620 -1.3447 -0.5246
14018TIP3    H263470   1.313   2.378   3.145 -0.6321  0.8552  0.4350
14019TIP3   OH263471   5.400   5.708  11.090  0.0398 -0.3170  0.4021
14019TIP3    H163472   5.423   5.800  11.078 -1.2247 -0.3019 -3.3011
14019TIP3    H263473   5.356   5.683  11.008 -0.8673 -3.8765  1.7633
14020TIP3   OH263474   0.462   2.615  14.405 -0.3685 -0.1283  0.0875
14020TIP3    H163475   0.529   2.552  14.430 -0.3621 -0.0981  0.1479
14020TIP3    H263476   0.461   2.613  14.309  0.2753  0.4483  0.0655
14021TIP3   OH263477   3.201   1.667  13.283 -0.6805  0.3415 -0.1535
14021TIP3    H163478   3.132   1.614  13.323 -1.3648  1.4169  0.1409
14021TIP3    H263479   3.183   1.756  13.313  1.5025  0.5239  0.8698
14022TIP3   OH263480   1.028   3.280  10.621 -0.0409 -0.2612  0.0264
14022TIP3    H163481   0.948   3.332  10.632 -0.3452 -0.8938  0.8197
14022TIP3    H263482   1.042   3.279  10.526  0.4107  1.9110  0.0170
14023TIP3   OH263483   3.503   1.322   5.451 -0.0928  0.1227  0.4834
14023TIP3    H163484   3.593   1.332   5.481  1.4791 -1.0520 -3.2422
14023TIP3    H263485   3.479   1.233   5.479 -0.4073  0.6503  2.0048
14024TIP3   OH263486   0.186   0.434  14.461 -0.1364  0.3817 -0.2969
14024TIP3    H163487   0.224   0.521  14.445 -0.6564  0.7014  0.1941
14024TIP3    H263488   0.262   0.377  14.474  0.2033  0.8050 -0.4001
14025TIP3   OH263489   3.603   3.298   3.984 -0.1865  0.0157  0.0799
14025TIP3    H163490   3.699   3.292   3.982 -0.1690 -0.6048  1.4285
14025TIP3    H263491   3.584   3.337   4.069 -1.1700 -0.9446  0.3174
14026TIP3   OH263492   1.425   0.835  16.174  0.1589  0.2432  0.3081
14026TIP3    H163493   1.448   0.767  16.110 -0.9156  0.1352  0.0201
14026TIP3    H263494   1.509   0.871  16.201  0.6640  0.0575 -0.9186
14027TIP3   OH263495   0.860   3.847   0.427 -0.1046  0.1140  0.6946
14027TIP3    H163496   0.801   3.912   0.466 -0.7315 -1.1030  1.8257
14027TIP3    H263497   0.910   3.813   0.501  0.9125 -0.0062 -0.0339
14028TIP3   OH263498   3.909   6.321  17.422  0.1447  0.7611 -0.4508
14028TIP3    H163499   3.934   6.350  17.509 -0.3041 -1.4487  0.4928
14028TIP3    H263500   3.880   6.230  17.434  0.0638  0.3785 -2.9001
14029TIP3   OH263501   5.036   5.012  15.876  0.6446  0.0391 -0.0109
14029TIP3    H163502   5.093   4.992  15.802  1.7866 -0.8307  1.0507
14029TIP3    H263503   4.982   4.934  15.887  0.8883 -0.0683  0.4315
14030TIP3   OH263504   2.781   1.811  17.279  0.6810  0.1936  0.5131
14030TIP3    H163505   2.781   1.719  17.251 -0.0474  0.0918  0.8358
14030TIP3    H263506   2.746   1.859  17.204  0.9667  0.2062  0.3816
14031TIP3   OH263507   5.775   1.715  17.068 -1.0671 -0.2010  0.2327
14031TIP3    H163508   5.743   1.637  17.114 -2.7440  0.5108  0.3608
14031TIP3    H263509   5.729   1.712  16.984  0.4922 -0.4574 -0.6483
14032TIP3   OH263510   0.489   5.570  15.568 -0.0229  0.3648 -0.1863
14032TIP3    H163511   0.415   5.609  15.520  2.2448  1.4332 -3.1873
14032TIP3    H263512   0.500   5.484  15.529  0.4143  0.2923  0.0910
14033TIP3   OH263513   6.145   5.789  16.981 -0.2369  0.2066  0.2787
14033TIP3    H163514   6.079   5.803  16.914 -0.3679  0.6852  0.5017
14033TIP3    H263515   6.153   5.694  16.987  0.2268  0.1672 -0.8438
14034TIP3   OH263516   2.539   3.343   0.764 -0.0152 -0.8052 -0.3577
14034TIP3    H163517   2.589   3.345   0.845  2.3950 -0.9547 -1.7506
14034TIP3    H263518   2.559   3.427   0.722  0.8400 -1.7505 -1.9281
14035TIP3   OH263519   6.566   1.885  12.108  0.1768  0.1589  0.0573
14035TIP3    H163520   6.645   1.830  12.108 -0.2162 -0.4153  0.2676
14035TIP3    H263521   6.520   1.860  12.188  0.5039  1.5499  0.7058
14036TIP3   OH263522   0.304   3.578   0.940 -0.4881 -0.5006  0.1011
14036TIP3    H163523   0.307   3.550   0.849  1.5715 -3.1129  0.8198
14036TIP3    H263524   0.343   3.665   0.940 -0.0643 -0.6625 -1.4528
14037TIP3   OH263525   0.098   2.001   0.357 -0.0212 -0.3750 -0.3375
14037TIP3    H163526   0.119   1.942   0.430 -0.6816 -0.4024 -0.1569
14037TIP3    H263527   0.120   1.951   0.278 -0.5589 -0.8683 -0.1843
14038TIP3   OH263528   1.462   3.043  14.496 -0.2493 -0.3023 -0.1992
14038TIP3    H163529   1.480   3.069  14.406  1.4179 -0.3377  0.1021
14038TIP3    H263530   1.462   3.125  14.546  1.4944 -0.5006  0.1771
14039TIP3   OH263531   0.055   4.970  14.840  0.0270  0.6549 -0.0780
14039TIP3    H163532  -0.005   4.900  14.866  1.3479 -0.8479 -0.8744
14039TIP3    H263533   0.005   5.050  14.854 -1.6876 -0.4482  0.5406
14040TIP3   OH263534   6.047   4.980   4.922 -0.2710 -0.4577 -0.2649
14040TIP3    H163535   5.960   4.968   4.882 -0.9765  0.3447  0.9439
14040TIP3    H263536   6.029   4.988   5.016  1.1875 -0.8675  0.0757
14041TIP3   OH263537   5.433   5.487   3.381 -0.1670 -0.1998 -0.1873
14041TIP3    H163538   5.489   5.421   3.341 -1.9265 -1.1193 -1.2241
14041TIP3    H263539   5.443   5.564   3.324 -1.8008 -1.1477 -1.8314
14042TIP3   OH263540   0.548   6.694  12.013  0.2450  0.4189 -0.3634
14042TIP3    H163541   0.477   6.633  12.033 -0.0457  1.1232  0.8533
14042TIP3    H263542   0.557   6.746  12.092 -1.0396  3.4845 -2.0510
14043TIP3   OH263543   5.878   5.147   1.949 -0.5506 -0.2114 -0.4505
14043TIP3    H163544   5.832   5.190   2.021  0.5866 -1.9890  1.4549
14043TIP3    H263545   5.948   5.208   1.926 -0.2464 -0.0816  0.7492
14044TIP3   OH263546   6.365   3.598  16.922  0.0739 -0.1404  0.1661
14044TIP3    H163547   6.346   3.517  16.875  0.4670 -0.0203 -0.2150
14044TIP3    H263548   6.453   3.585  16.958  0.4153  0.3695 -0.4667
14045TIP3   OH263549   5.997   0.159   5.273 -0.3231 -0.0383  0.1152
14045TIP3    H163550   5.968   0.167   5.364  1.4615  4.7363  0.5682
14045TIP3    H263551   6.048   0.078   5.271 -2.1583 -1.4203  2.7129
14046TIP3   OH263552   0.898   4.001   2.337 -0.2934 -0.0770  0.5719
14046TIP3    H163553   0.897   4.097   2.338  0.7002 -0.0409 -0.4824
14046TIP3    H263554   0.906   3.977   2.429 -0.8741  0.8392  0.8810
14047TIP3   OH263555   2.380   3.195  11.668  0.0751  0.4226 -0.0214
14047TIP3    H163556   2.404   3.265  11.728 -0.7268 -0.9795  2.0495
14047TIP3    H263557   2.306   3.151  11.710 -0.1236 -1.0350 -1.7460
14048TIP3   OH263558   2.168   0.014  15.034 -0.2244  0.6796  0.0089
14048TIP3    H163559   2.090   0.008  15.089  0.5940  2.6082  1.5357
14048TIP3    H263560   2.224   0.078  15.080  2.2469 -0.6146 -1.0097
14049TIP3   OH263561   6.645   3.500   4.418  0.1277  0.4251 -0.0786
14049TIP3    H163562   6.622   3.516   4.509 -1.1516  0.4794 -0.3966
14049TIP3    H263563   6.732   3.460   4.422 -0.2194 -0.2476  1.2042
14050TIP3   OH263564   6.589   2.092   6.651 -0.2277 -0.7377 -0.3133
14050TIP3    H163565   6.651   2.032   6.693 -0.7476 -1.0091  0.0786
14050TIP3    H263566   6.551   2.141   6.724  1.8101  1.7080 -0.7269
14051TIP3   OH263567   6.016   0.379   0.370 -0.1043 -0.4168 -0.4432
14051TIP3    H163568   6.082   0.407   0.306 -0.5183  0.7365 -0.3934
14051TIP3    H263569   6.044   0.421   0.452 -1.3790  0.8465 -0.6214
14052TIP3   OH263570   4.323   1.755   0.721  0.4113 -0.2746 -0.7695
14052TIP3    H163571   4.257   1.784   0.658 -0.5020 -0.2586  0.1622
14052TIP3    H263572   4.302   1.663   0.739 -1.6499  0.6014  2.1616
14053TIP3   OH263573   3.015   2.227   4.110  0.3842 -0.4980 -0.7576
14053TIP3    H163574   3.099   2.198   4.144 -0.1353  1.1422  2.3164
14053TIP3    H263575   2.950   2.180   4.162 -0.5159  0.7704 -0.6737
14054TIP3   OH263576   0.658   2.321  17.345 -0.6130  0.2054  0.0394
14054TIP3    H163577   0.633   2.366  17.426  0.0538 -0.6779  0.7539
14054TIP3    H263578   0.608   2.240  17.347 -0.7894  0.2954 -0.5750
14055TIP3   OH263579   4.477   5.692   4.441 -0.1493 -0.3333  0.7012
14055TIP3    H163580   4.434   5.765   4.397  1.7730  0.2786 -0.2856
14055TIP3    H263581   4.418   5.618   4.429 -0.0691 -0.0193 -2.3276
14056TIP3   OH263582   1.312   1.804   5.345  0.4353  0.2085  0.0357
14056TIP3    H163583   1.383   1.802   5.409  2.5764  0.6898 -2.1814
14056TIP3    H263584   1.348   1.759   5.268 -2.1117 -0.5636 -0.8088
14057TIP3   OH263585   4.942   1.130   0.008 -0.3916  0.3306  0.4830
14057TIP3    H163586   4.867   1.116   0.065 -2.1653  2.0486 -1.2551
14057TIP3    H263587   4.991   1.201   0.051 -0.4713  0.1136  0.9449
14058TIP3   OH263588   6.376   2.609   4.004 -0.4058  0.3452  0.3196
14058TIP3    H163589   6.357   2.700   4.029  1.0630  0.0837  2.5673
14058TIP3    H263590   6.304   2.558   4.042 -0.7557  0.4432 -0.1917
14059TIP3   OH263591   5.764   1.685  15.320  0.6456  0.5816  0.4337
14059TIP3    H163592   5.843   1.665  15.269 -0.2482  1.3564 -1.3381
14059TIP3    H263593   5.749   1.778  15.304  0.1909  0.7976  1.9708
14060TIP3   OH263594   4.570   3.879  15.079 -0.5021 -0.6530  0.0964
14060TIP3    H163595   4.550   3.790  15.105 -1.6055 -0.3546  0.3180
14060TIP3    H263596   4.507   3.898  15.008 -0.9054  0.2447  0.6738
14061TIP3   OH263597   0.476   2.226  16.508 -0.1852 -0.4539 -0.4002
14061TIP3    H163598   0.421   2.173  16.450 -0.6142  1.2857 -1.6495
14061TIP3    H263599   0.552   2.249  16.455 -0.3568  0.7597 -0.1541
14062TIP3   OH263600   0.070   6.578  12.036  0.3275 -0.1332 -0.0366
14062TIP3    H163601  -0.014   6.539  12.012 -1.0671  1.4740  1.9153
14062TIP3    H263602   0.058   6.672  12.023  1.5386  0.1963  0.9939
14063TIP3   OH263603   5.824   1.845   4.175 -0.0218 -0.4825  0.8180
14063TIP3    H163604   5.762   1.877   4.110 -0.5329 -0.5043  1.2786
14063TIP3    H263605   5.824   1.750   4.163  0.7024 -0.4004  0.1417
14064TIP3   OH263606   1.243   3.523  16.600  0.6088  0.3857 -0.0983
14064TIP3    H163607   1.164   3.573  16.622 -0.2554 -0.9313 -0.0845
14064TIP3    H263608   1.302   3.587  16.562 -0.4831  1.4083 -0.1281
14065TIP3   OH263609   2.135   4.800   3.367 -1.1500  0.0504  0.9760
14065TIP3    H163610   2.092   4.753   3.439 -0.8221  1.8095  2.3808
14065TIP3    H263611   2.125   4.892   3.389  3.4070  0.6473  1.5040
14066TIP3   OH263612   5.212   3.110   5.111 -0.4811  0.2442 -0.8208
14066TIP3    H163613   5.294   3.137   5.069 -0.6723  1.9428 -0.1439
14066TIP3    H263614   5.145   3.167   5.074 -0.6967  1.6783  1.5221
14067TIP3   OH263615   4.615   5.446   0.818  0.7519  0.2265  0.1686
14067TIP3    H163616   4.545   5.407   0.870 -0.2404 -1.9793 -2.6203
14067TIP3    H263617   4.681   5.377   0.811  1.1151  0.6737 -1.0219
14068TIP3   OH263618   0.740   6.270  15.160  0.6003  0.3649 -0.4585
14068TIP3    H163619   0.678   6.313  15.219  0.8600  1.8746 -1.2479
14068TIP3    H263620   0.705   6.286  15.073  0.6045 -1.2395 -0.7859
14069TIP3   OH263621   6.016   0.203   0.934 -0.7006 -0.2011  0.6048
14069TIP3    H163622   6.097   0.153   0.932 -0.1967  0.5789  1.0839
14069TIP3    H263623   6.041   0.289   0.970 -1.8658 -0.2104  1.4947
14070TIP3   OH263624   0.708   1.547  13.053 -0.6771 -0.1558 -0.9280
14070TIP3    H163625   0.709   1.633  13.094 -1.6159 -0.3232 -0.5292
14070TIP3    H263626   0.677   1.564  12.964  1.4985  0.2266 -1.6758
14071TIP3   OH263627   5.702   4.406   1.569 -0.0094  0.5137 -0.4789
14071TIP3    H163628   5.721   4.423   1.662  0.1053  1.5372 -0.6817
14071TIP3    H263629   5.607   4.413   1.562 -0.0921 -0.3069 -0.3055
14072TIP3   OH263630   1.529   1.574  15.018 -0.2986 -0.0429  0.7609
14072TIP3    H163631   1.542   1.615  15.103 -0.2046 -3.1222  2.3675
14072TIP3    H263632   1.435   1.584  15.000 -0.3229  0.5869  1.2383
14073TIP3   OH263633   1.131   1.957   6.343 -0.6018 -0.0706 -0.8715
14073TIP3    H163634   1.198   1.979   6.279 -0.5902 -1.0354 -1.1991
14073TIP3    H263635   1.053   2.003   6.313 -0.6677 -0.7185 -1.7406
14074TIP3   OH263636   5.158   5.877  13.954  0.9357  0.4637  0.1762
14074TIP3    H163637   5.215   5.800  13.960  0.1098 -0.2322 -0.6226
14074TIP3    H263638   5.167   5.920  14.039  1.9694 -0.1144  0.3754
14075TIP3   OH263639   6.342   2.139   4.758 -0.2841 -0.2555  0.3148
14075TIP3    H163640   6.293   2.219   4.743 -0.7011 -0.7147 -0.9071
14075TIP3    H263641   6.290   2.090   4.822 -1.3720 -0.6505 -0.8241
14076TIP3   OH263642   4.025   3.559   1.325 -0.0906  0.0474  0.2496
14076TIP3    H163643   4.107   3.524   1.291  2.1428  2.2480  2.9125
14076TIP3    H263644   3.989   3.610   1.251  0.7129 -1.2047 -1.0615
14077TIP3   OH263645   3.599   4.821   6.426  0.0019  0.1156 -0.1723
14077TIP3    H163646   3.683   4.823   6.472  0.5826  0.4254 -1.2329
14077TIP3    H263647   3.555   4.744   6.461  1.8136 -1.5848 -1.4838
14078TIP3   OH263648   3.463   0.488  14.252 -1.0844  0.0600 -0.2669
14078TIP3    H163649   3.518   0.469  14.328 -0.3178  1.1831 -0.5226
14078TIP3    H263650   3.412   0.407  14.239 -2.8221  0.5229  2.7249
14079TIP3   OH263651   3.058   4.156  17.004  0.0475  0.1585 -0.0766
14079TIP3    H163652   3.120   4.162  17.076 -0.1318  0.6535  0.0374
14079TIP3    H263653   3.113   4.154  16.925  0.2012  0.8951  0.0056
14080TIP3   OH263654   0.875   5.600  14.935  0.0533  0.1960 -0.6070
14080TIP3    H163655   0.895   5.624  15.026 -1.4530 -0.7224  0.0136
14080TIP3    H263656   0.912   5.513  14.925  0.9590  0.6346 -1.1692
14081TIP3   OH263657   4.971   2.145   0.995 -0.5080  0.0669  0.1812
14081TIP3    H163658   5.065   2.159   1.013 -0.3538 -0.1757 -0.4196
14081TIP3    H263659   4.967   2.128   0.901 -0.8704 -2.3021  0.5688
14082TIP3   OH263660   1.055   5.091   1.472 -0.0634 -0.3448  0.1995
14082TIP3    H163661   1.046   5.101   1.377  0.0487  0.1068  0.2336
14082TIP3    H263662   1.030   5.176   1.508 -1.6123 -0.9620  0.6855
14083TIP3   OH263663   3.344   1.983   3.954  0.3473  0.1799 -0.0143
14083TIP3    H163664   3.295   1.965   3.873  0.8090  0.7335 -0.4225
14083TIP3    H263665   3.288   2.043   4.003  0.1010 -0.0963  0.0448
14084TIP3   OH263666   2.528   5.776  13.752 -0.0610  0.0214 -0.2611
14084TIP3    H163667   2.478   5.805  13.828  0.0693  0.0916 -0.2020
14084TIP3    H263668   2.556   5.857  13.709  0.8306 -0.0055  0.2485
14085TIP3   OH263669   1.816   4.403   1.288 -0.3829 -0.4376  0.0723
14085TIP3    H163670   1.780   4.452   1.362 -1.2120  0.0879 -0.6565
14085TIP3    H263671   1.743   4.351   1.256  0.4625 -2.1641  0.7927
14086TIP3   OH263672   0.978   6.474  12.699  0.9597 -0.2658 -0.5493
14086TIP3    H163673   0.942   6.386  12.698 -1.6952  0.6669  0.9888
14086TIP3    H263674   0.904   6.530  12.676  2.1570  1.6440  0.0237
14087TIP3   OH263675   6.074   4.915   2.340 -0.1949  0.3185  0.1199
14087TIP3    H163676   5.999   4.862   2.315  0.7063 -1.3131  0.7572
14087TIP3    H263677   6.068   4.923   2.435 -0.7495  2.0956 -0.0153
14088TIP3   OH263678   2.948   0.638   2.515  0.1454  0.0100  0.5803
14088TIP3    H163679   2.903   0.644   2.431  0.8245  0.2914  0.2393
14088TIP3    H263680   2.924   0.718   2.561 -1.2722 -0.7177  1.1905
14089TIP3   OH263681   2.946   1.418  16.430 -0.5127 -0.1068 -0.1698
14089TIP3    H163682   3.033   1.429  16.467 -0.9314  0.1654  0.7548
14089TIP3    H263683   2.943   1.326  16.402 -0.1344 -0.2758  0.3338
14090TIP3   OH263684   2.083   4.067  12.992  0.0432 -0.2803 -0.2409
14090TIP3    H163685   2.073   4.007  12.918 -1.0214 -0.8396  0.3424
14090TIP3    H263686   2.063   4.014  13.069 -1.8085  1.0130  0.2343
14091TIP3   OH263687   0.018   3.934  15.087 -0.1740 -0.1994  0.1070
14091TIP3    H163688   0.100   3.944  15.038 -0.2298 -0.2912 -0.0063
14091TIP3    H263689   0.024   3.847  15.127  0.0869  0.0769  0.6711
14092TIP3   OH263690   6.492   1.242  17.411 -0.0823  0.8172 -0.2849
14092TIP3    H163691   6.399   1.222  17.396 -0.1186 -1.3482  2.1453
14092TIP3    H263692   6.520   1.286  17.330 -2.1546 -2.2620 -2.9502
14093TIP3   OH263693   5.392   5.537  16.337 -0.3067 -0.0486 -0.4819
14093TIP3    H163694   5.392   5.598  16.264  0.0220 -0.2695 -0.6722
14093TIP3    H263695   5.307   5.494  16.333 -0.9981  1.1765  0.3290
14094TIP3   OH263696   2.635   0.697  11.425 -0.1782 -0.0529 -0.3493
14094TIP3    H163697   2.629   0.604  11.447  0.9358  0.1575  1.0372
14094TIP3    H263698   2.584   0.742  11.493 -0.9798  0.3485 -1.1923
14095TIP3   OH263699   0.115   5.636   3.230 -0.3729  0.3629  0.8699
14095TIP3    H163700   0.170   5.573   3.183 -0.4101 -0.1153  1.4567
14095TIP3    H263701   0.163   5.654   3.311 -1.0192  0.0227  1.3412
14096TIP3   OH263702   0.488   0.187  16.369 -0.5021  0.4334 -0.2254
14096TIP3    H163703   0.562   0.161  16.314  1.0454 -0.4989  2.1140
14096TIP3    H263704   0.523   0.258  16.423 -0.9066 -0.7410  1.6744
14097TIP3   OH263705   6.511   5.589   3.659 -0.6877 -0.4779 -0.4779
14097TIP3    H163706   6.576   5.528   3.695 -0.4795  1.1938  2.2733
14097TIP3    H263707   6.562   5.645   3.600  0.8538  1.6103  2.5638
14098TIP3   OH263708   4.734   5.648  12.682  0.2639 -0.0722  0.0635
14098TIP3    H163709   4.739   5.674  12.590 -0.7675 -2.2112 -0.6609
14098TIP3    H263710   4.657   5.693  12.716  1.2715  1.5963  0.2289
14099TIP3   OH263711   3.667   5.750   0.455  0.2986 -0.0904 -0.0883
14099TIP3    H163712   3.630   5.681   0.400 -3.2086 -0.1224  2.0020
14099TIP3    H263713   3.690   5.820   0.392 -3.3864 -0.1577 -1.7894
14100TIP3   OH263714   0.084   3.817  17.411 -0.7338 -0.0423  0.1385
14100TIP3    H163715  -0.010   3.833  17.404 -0.8220 -0.0435  1.1551
14100TIP3    H263716   0.094   3.767  17.492  0.2638  1.0441  0.7177
14101TIP3   OH263717   3.553   1.580  16.773  0.0468  0.2489  0.7832
14101TIP3    H163718   3.597   1.498  16.796  1.3320  0.2207 -1.4947
14101TIP3    H263719   3.614   1.625  16.715 -1.2968  2.1151  0.7129
14102TIP3   OH263720   5.695   2.507   5.103 -0.2707  0.1946  0.2333
14102TIP3    H163721   5.769   2.516   5.164  2.5574 -1.8892 -2.5328
14102TIP3    H263722   5.653   2.425   5.129  0.0663  0.0108  0.2048
14103TIP3   OH263723   1.765   2.597   5.950  0.1949 -0.2852  0.1246
14103TIP3    H163724   1.715   2.517   5.933 -1.6919  0.8770  0.0378
14103TIP3    H263725   1.852   2.565   5.976 -0.8903 -2.4050  1.4109
14104TIP3   OH263726   3.517   3.263   1.983  0.2290 -0.2185  0.0840
14104TIP3    H163727   3.551   3.333   1.928  0.6024 -0.9550 -0.6322
14104TIP3    H263728   3.551   3.282   2.071  2.2835 -0.7639 -0.5370
14105TIP3   OH263729   5.464   3.621  17.243  0.6886  0.1718  0.3658
14105TIP3    H163730   5.411   3.569  17.303 -1.3374 -1.9107 -2.9198
14105TIP3    H263731   5.518   3.558  17.196  2.9819  1.8289  0.5752
14106TIP3   OH263732   0.433   3.092  11.313 -0.7635 -0.1592 -0.5372
14106TIP3    H163733   0.515   3.053  11.343 -0.6731  0.1704 -0.3439
14106TIP3    H263734   0.461   3.168  11.261 -0.9526  0.4021  0.1534
14107TIP3   OH263735   1.906   2.606   1.607 -0.2347 -0.2139  0.4274
14107TIP3    H163736   1.848   2.570   1.673 -2.3192  1.1113 -0.5906
14107TIP3    H263737   1.850   2.619   1.530  0.9333  2.8693 -0.0220
14108TIP3   OH263738   6.595   0.519   1.246  0.2774 -0.3840  0.1627
14108TIP3    H163739   6.583   0.424   1.242  1.3042 -0.5706  1.1043
14108TIP3    H263740   6.516   0.551   1.290 -0.4307 -0.6956 -0.8242
14109TIP3   OH263741   2.574   0.476  13.154  0.5360 -0.2596 -0.4479
14109TIP3    H163742   2.511   0.413  13.190  1.3658 -1.1704 -0.5390
14109TIP3    H263743   2.657   0.427  13.151  0.6344 -0.0573 -3.0508
14110TIP3   OH263744   0.817   0.950  16.944  0.1903  0.4425  0.3739
14110TIP3    H163745   0.849   0.906  17.023 -0.5043 -0.3374  0.2391
14110TIP3    H263746   0.742   0.897  16.916  1.5823 -0.4592 -1.8974
14111TIP3   OH263747   4.974   4.851  17.327  0.0922 -0.2574  0.4544
14111TIP3    H163748   4.920   4.780  17.292 -0.9384  0.9978 -0.6253
14111TIP3    H263749   4.992   4.907  17.252  0.0731  1.1160  1.4230
14112TIP3   OH263750   2.634   4.268  14.892  1.0415  0.2071  0.2276
14112TIP3    H163751   2.702   4.293  14.955  1.7368 -1.6168  0.2726
14112TIP3    H263752   2.662   4.182  14.860 -1.6990 -1.0132  0.8918
14113TIP3   OH263753   3.967   5.468   4.042 -0.4975 -0.2213 -0.4218
14113TIP3    H163754   4.018   5.542   4.009 -1.1296  0.9927  1.1481
14113TIP3    H263755   3.894   5.460   3.981  0.5736 -0.7938 -1.6598
14114TIP3   OH263756   3.357   0.911   0.229 -0.0127  0.2152 -0.1500
14114TIP3    H163757   3.356   0.816   0.226 -3.1844  0.1460 -0.8177
14114TIP3    H263758   3.399   0.938   0.147  0.1553 -0.6374 -0.3479
14115TIP3   OH263759   6.175   0.689  16.870  0.4445  0.6319  0.4429
14115TIP3    H163760   6.154   0.724  16.956 -1.6220  0.3113  0.1103
14115TIP3    H263761   6.106   0.625  16.852  1.0977  0.3505 -1.2603
14116TIP3   OH263762   1.249   0.383   4.622 -0.8158  0.7214 -0.0095
14116TIP3    H163763   1.243   0.290   4.599  0.4593  1.1733 -2.5665
14116TIP3    H263764   1.334   0.392   4.665 -1.2645  0.5983  0.9147
14117TIP3   OH263765   5.898   3.009   3.581 -0.2123  0.2554 -0.0367
14117TIP3    H163766   5.853   3.078   3.533  0.4607  1.3492  0.8523
14117TIP3    H263767   5.988   3.040   3.589 -0.2322  0.0016  1.6521
14118TIP3   OH263768   6.474   3.076  14.615 -0.5819  0.7011 -0.1386
14118TIP3    H163769   6.451   3.010  14.550  1.4204  0.1562 -0.3752
14118TIP3    H263770   6.541   3.034  14.668 -0.4078  2.0104  0.7127
14119TIP3   OH263771   1.904   2.025  14.912 -0.2236  0.4871  0.2585
14119TIP3    H163772   1.959   2.086  14.863 -0.3328 -0.6433 -1.3619
14119TIP3    H263773   1.964   1.954  14.937 -0.4674  0.3501  0.4529
14120TIP3   OH263774   2.272   2.203   0.002 -0.2311 -0.7984  0.4298
14120TIP3    H163775   2.197   2.150  -0.025 -0.5485 -0.8600  1.3909
14120TIP3    H263776   2.248   2.292  -0.022  0.7486 -1.1510 -2.1626
14121TIP3   OH263777   4.283   6.526  11.546 -0.1494  0.1477 -0.8198
14121TIP3    H163778   4.356   6.587  11.534  0.7867 -0.9979 -1.1343
14121TIP3    H263779   4.225   6.569  11.609  1.3503  0.6022  0.2851
14122TIP3   OH263780   5.577   3.493  12.535  0.2861 -0.4152 -0.3159
14122TIP3    H163781   5.618   3.466  12.617 -0.1302  1.1989  0.4703
14122TIP3    H263782   5.496   3.442  12.531  0.6944 -1.0851 -0.1246
14123TIP3   OH263783   0.548   2.910  13.091  0.0683 -0.2116  0.5352
14123TIP3    H163784   0.579   2.832  13.045 -0.3893 -0.1923  0.1893
14123TIP3    H263785   0.628   2.953  13.122  0.2939 -1.1146  1.2269
14124TIP3   OH263786   1.182   2.731  17.371  0.2144 -0.2598 -0.0826
14124TIP3    H163787   1.248   2.724  17.302 -0.3288 -0.0755 -0.6261
14124TIP3    H263788   1.110   2.677  17.341  0.7810 -1.8905  1.3150
14125TIP3   OH263789   5.787   6.417  13.442  0.1064  0.2996 -0.0599
14125TIP3    H163790   5.798   6.358  13.368 -0.1767  1.7056 -1.2841
14125TIP3    H263791   5.751   6.497  13.404 -0.8060  0.8070  1.7207
14126TIP3   OH263792   0.377   2.222   3.923 -0.2240  0.1528 -0.9409
14126TIP3    H163793   0.304   2.277   3.893 -1.6343 -0.8736  0.4765
14126TIP3    H263794   0.345   2.181   4.004  1.6614 -0.9115 -0.6793
14127TIP3   OH263795   1.647   4.100   3.541  0.0917 -0.5320 -0.2319
14127TIP3    H163796   1.557   4.099   3.508  0.3751 -0.1897 -1.0463
14127TIP3    H263797   1.694   4.157   3.480  0.2467  1.7267  1.8152
14128TIP3   OH263798   2.567   2.316   3.199 -0.8141  0.1665 -0.3678
14128TIP3    H163799   2.506   2.384   3.170 -0.5909  1.1502  1.3688
14128TIP3    H263800   2.535   2.290   3.286 -0.1489 -1.0434 -0.4631
14129TIP3   OH263801   2.061   6.391  11.777  0.1221 -0.3673 -0.3978
14129TIP3    H163802   2.081   6.334  11.851 -0.7417  0.4030  0.4741
14129TIP3    H263803   2.081   6.339  11.700  3.1882 -0.4609  0.3232
14130TIP3   OH263804   6.210   4.144   4.934  0.7166  0.2097 -0.1975
14130TIP3    H163805   6.297   4.185   4.938  1.6395 -1.6038 -0.3047
14130TIP3    H263806   6.156   4.195   4.994  2.4854  0.0022  1.6864
14131TIP3   OH263807   6.014   3.183  11.916 -0.4385 -0.1313 -0.5050
14131TIP3    H163808   6.076   3.192  11.844 -1.1880  0.5757 -1.0801
14131TIP3    H263809   6.027   3.093  11.948 -0.0330 -0.4221 -1.4640
14132TIP3   OH263810   0.039   4.834   0.078  0.1186 -0.2512  0.1651
14132TIP3    H163811   0.117   4.886   0.097  0.2450 -0.0825 -0.7603
14132TIP3    H263812  -0.028   4.869   0.137  0.0846  1.3024 -0.7260
14133TIP3   OH263813   4.744   0.692   3.047 -0.3013  0.0120  0.1655
14133TIP3    H163814   4.669   0.653   3.003 -1.0464  0.3342  1.1245
14133TIP3    H263815   4.811   0.623   3.045 -1.0454 -0.7319  0.3988
14134TIP3   OH263816   2.968   4.561   4.303  0.1323  0.0940  0.5467
14134TIP3    H163817   2.998   4.481   4.347  1.8261 -1.3783 -2.9522
14134TIP3    H263818   3.048   4.613   4.292 -0.7802  1.8563  1.8153
14135TIP3   OH263819   4.431   5.029  11.486 -0.3997 -0.4078 -0.2682
14135TIP3    H163820   4.461   5.068  11.405  0.0045 -0.2584 -0.0498
14135TIP3    H263821   4.430   4.935  11.468  1.5307 -0.5415  0.1309
14136TIP3   OH263822   0.407   3.816  16.050  0.2095 -0.3637  0.0002
14136TIP3    H163823   0.499   3.824  16.075  0.1748  0.0297  0.0008
14136TIP3    H263824   0.410   3.777  15.963  0.4293  0.8681 -0.5636
14137TIP3   OH263825   1.436   1.818   0.329  0.3885 -0.4937  0.0776
14137TIP3    H163826   1.525   1.794   0.304 -0.8050 -2.9245 -2.3719
14137TIP3    H263827   1.432   1.913   0.318  2.4715 -0.4295 -0.3869
14138TIP3   OH263828   1.138   3.932   1.947 -0.0251 -0.2601  0.1376
14138TIP3    H163829   1.080   3.946   2.022  1.5167 -0.0493  1.3414
14138TIP3    H263830   1.097   3.862   1.897 -1.1218 -0.3628  1.1490
14139TIP3   OH263831   4.669   5.293   0.003 -0.4501 -0.4342 -0.4912
14139TIP3    H163832   4.763   5.311   0.004 -0.3012 -1.1813  0.8068
14139TIP3    H263833   4.636   5.342  -0.073  0.5071  2.2119  0.6872
14140TIP3   OH263834   5.399   0.275   3.293 -0.7061  0.4443  0.2762
14140TIP3    H163835   5.401   0.304   3.384 -0.9850  0.7140  0.1980
14140TIP3    H263836   5.311   0.298   3.262 -1.0504 -0.7343  0.2922
14141TIP3   OH263837   2.659   6.492  11.141  0.0347 -0.5006  0.2447
14141TIP3    H163838   2.629   6.401  11.142  0.0664 -0.5132 -0.0083
14141TIP3    H263839   2.582   6.542  11.168  0.2759 -0.6744  1.3200
14142TIP3   OH263840   5.145   4.360  13.979  0.2390 -0.1326 -0.1353
14142TIP3    H163841   5.064   4.407  13.959 -0.4273 -0.8633  0.7717
14142TIP3    H263842   5.198   4.424  14.027 -0.8683 -0.4103  1.5452
14143TIP3   OH263843   3.385   3.887  17.234 -0.1734 -0.1888  0.1817
14143TIP3    H163844   3.396   3.843  17.149 -0.7533 -0.2844  0.1504
14143TIP3    H263845   3.364   3.816  17.295  0.7776 -0.1880  0.5159
14144TIP3   OH263846   1.468   4.768   5.627  0.3736  0.6048 -0.5713
14144TIP3    H163847   1.409   4.833   5.664  0.2755  1.4652 -2.1373
14144TIP3    H263848   1.443   4.686   5.669 -2.0923  0.9024 -1.3276
14145TIP3   OH263849   1.417   1.435   1.051 -0.3422 -0.1720 -0.1334
14145TIP3    H163850   1.452   1.347   1.042  0.8658  0.2235  0.5422
14145TIP3    H263851   1.376   1.453   0.966  0.5557 -0.8825 -0.7304
14146TIP3   OH263852   2.266   0.783   0.251  0.1705  0.2319  0.3682
14146TIP3    H163853   2.190   0.833   0.220  0.3569  0.4616  0.2865
14146TIP3    H263854   2.334   0.848   0.266  1.5637 -0.2528 -2.9344
14147TIP3   OH263855   6.309   1.702   5.711  0.4067  0.3873  0.4493
14147TIP3    H163856   6.240   1.697   5.645  0.2922 -2.2255  0.6658
14147TIP3    H263857   6.265   1.730   5.791  0.0616  1.0172  0.0450
14148TIP3   OH263858   2.576   0.399  14.473 -0.2250 -0.2472 -0.2654
14148TIP3    H163859   2.553   0.312  14.505 -0.4464 -0.4229 -0.8973
14148TIP3    H263860   2.493   0.437  14.444 -0.0147 -0.1308 -0.7213
14149TIP3   OH263861   6.022   1.751   5.527  0.1012  0.0637  0.7390
14149TIP3    H163862   5.976   1.801   5.595  2.5818  0.2257  2.4364
14149TIP3    H263863   6.074   1.816   5.481 -1.7361 -0.0008 -1.6444
14150TIP3   OH263864   3.865   1.569   0.215  0.3055  0.8078  0.1846
14150TIP3    H163865   3.898   1.639   0.159 -0.6416  0.1203 -1.3008
14150TIP3    H263866   3.861   1.493   0.158 -2.8122  0.5933  0.4978
14151TIP3   OH263867   4.491   2.800  14.701 -0.6319 -0.2043 -0.0133
14151TIP3    H163868   4.471   2.762  14.787  1.9877 -0.7104  0.4593
14151TIP3    H263869   4.552   2.871  14.720 -0.6301  0.1966 -1.4230
14152TIP3   OH263870   6.585   6.004   1.927  0.1829 -0.6177 -0.4214
14152TIP3    H163871   6.536   6.020   1.846  0.1717  0.6179 -0.1971
14152TIP3    H263872   6.653   5.941   1.902 -0.5093 -1.0998 -1.1192
14153TIP3   OH263873   5.970   0.000  16.683 -0.1293 -0.1706  0.3112
14153TIP3    H163874   5.972   0.024  16.776 -1.0984 -0.1637  0.3432
14153TIP3    H263875   5.943  -0.091  16.683  0.9600 -0.4995  0.0753
14154TIP3   OH263876   2.099   4.646  15.141  0.8510  0.0535  0.6681
14154TIP3    H163877   2.074   4.569  15.192  1.1673  0.7342  1.8769
14154TIP3    H263878   2.037   4.714  15.169 -1.6374 -0.5158 -2.7681
14155TIP3   OH263879   5.842   5.083  11.197  0.3662 -0.3205  0.1392
14155TIP3    H163880   5.869   5.171  11.225 -0.9565  0.4797 -0.9777
14155TIP3    H263881   5.897   5.065  11.120  0.1392 -0.1513 -0.0653
14156TIP3   OH263882   2.628   0.979  17.432  0.0258  0.0383 -0.1428
14156TIP3    H163883   2.604   0.892  17.398  0.6303 -0.0047 -0.4714
14156TIP3    H263884   2.571   1.039  17.384  2.0889  0.1611 -2.6682
14157TIP3   OH263885   3.224   5.219   3.901 -0.0164 -0.3756 -0.1966
14157TIP3    H163886   3.141   5.181   3.873 -1.0334  1.9203 -0.5577
14157TIP3    H263887   3.266   5.246   3.819 -0.2455  0.9946  0.1117
14158TIP3   OH263888   2.328   4.750   1.314 -0.2511 -0.0070 -0.1433
14158TIP3    H163889   2.301   4.737   1.406  1.4403 -2.9701  0.0734
14158TIP3    H263890   2.367   4.837   1.313  0.3115 -0.1582  2.1327
14159TIP3   OH263891   0.418   2.448   4.775 -0.0778  0.3527  0.1969
14159TIP3    H163892   0.452   2.529   4.739  0.5358  1.5636  3.1865
14159TIP3    H263893   0.486   2.383   4.758 -0.1059  0.6649 -1.2661
14160TIP3   OH263894   5.092   4.107   0.725  0.0081 -0.9661  0.5604
14160TIP3    H163895   5.023   4.063   0.775 -2.1014 -0.2677 -1.5170
14160TIP3    H263896   5.068   4.199   0.726 -0.2557 -0.9385 -1.7721
14161TIP3   OH263897   6.430   4.837   4.155 -0.2744  0.6736  0.2075
14161TIP3    H163898   6.421   4.805   4.066  0.8559 -0.1052  0.3522
14161TIP3    H263899   6.439   4.757   4.208 -1.1648  1.1102  1.0535
14162TIP3   OH263900   2.221   2.820  13.477 -0.2349 -0.1851  0.1138
14162TIP3    H163901   2.272   2.807  13.557 -0.6347 -2.0148  0.1213
14162TIP3    H263902   2.282   2.861  13.416  0.5278 -0.1425  0.8844
14163TIP3   OH263903   2.940   1.004  15.619 -0.5665  0.0186  0.1223
14163TIP3    H163904   2.864   1.016  15.675 -0.2824  1.4181  0.2403
14163TIP3    H263905   2.991   1.084  15.629  0.9450 -0.8922  0.0623
14164TIP3   OH263906   4.738   0.297  16.840  0.2831 -0.1309 -0.5124
14164TIP3    H163907   4.773   0.322  16.755 -0.4179 -1.7139 -1.3010
14164TIP3    H263908   4.761   0.370  16.898  2.0271  0.3309 -1.7153
14165TIP3   OH263909   0.396   4.927   1.503 -0.3663 -0.0514 -0.0771
14165TIP3    H163910   0.430   4.861   1.564 -1.7337 -0.6101  0.1035
14165TIP3    H263911   0.339   4.878   1.444 -0.6673  0.8230 -0.5164
14166TIP3   OH263912   3.574   5.122   2.339  0.1465 -0.2462 -0.0490
14166TIP3    H163913   3.567   5.201   2.393  1.3656  0.5926 -1.0521
14166TIP3    H263914   3.569   5.050   2.401 -1.1246  0.5918  0.8912
14167TIP3   OH263915   2.369   6.606  11.132 -0.2926 -0.4351  0.2696
14167TIP3    H163916   2.297   6.631  11.190 -2.0710  0.5610 -2.2068
14167TIP3    H263917   2.326   6.562  11.059  1.6144  0.2327 -1.3259
14168TIP3   OH263918   3.953   1.940   3.738 -0.4072 -0.1131  0.2752
14168TIP3    H163919   4.024   1.999   3.760  0.5943 -0.8028 -0.9958
14168TIP3    H263920   3.878   1.973   3.788  0.1047  2.2114 -0.3809
14169TIP3   OH263921   5.080   0.376  14.222 -0.3317  0.0248  0.0609
14169TIP3    H163922   5.001   0.391  14.170  0.6578  0.0382 -1.4817
14169TIP3    H263923   5.124   0.461  14.224  1.1722 -0.6548 -1.7458
14170TIP3   OH263924   1.307   5.409   2.959  0.3986  0.7248  0.0524
14170TIP3    H163925   1.343   5.327   2.925  0.2752  0.4286  0.6130
14170TIP3    H263926   1.329   5.475   2.893  1.9387  0.5479  0.3602
14171TIP3   OH263927   2.747   3.640   5.804  0.1686  0.0668 -0.1440
14171TIP3    H163928   2.766   3.731   5.826  1.5202 -0.5315  1.4396
14171TIP3    H263929   2.796   3.624   5.723  2.0735  0.0877  0.9429
14172TIP3   OH263930   3.101   3.411   2.622  0.0611 -0.4997  0.1078
14172TIP3    H163931   3.033   3.361   2.668  0.0967  0.4336  1.2149
14172TIP3    H263932   3.058   3.493   2.600  0.7554  0.0011  0.6018
14173TIP3   OH263933   4.749   1.151  13.415 -0.1976 -0.4109 -0.4748
14173TIP3    H163934   4.700   1.069  13.409  0.5821 -0.8569 -0.8616
14173TIP3    H263935   4.688   1.217  13.383 -0.1452 -1.1311 -2.1882
14174TIP3   OH263936   4.649   5.342  16.019  0.0928 -0.4839  0.0743
14174TIP3    H163937   4.584   5.364  15.952  0.6034  0.8618 -0.0148
14174TIP3    H263938   4.730   5.381  15.988  0.3886 -0.0226  1.3472
14175TIP3   OH263939   3.467   3.812   2.861  0.3572 -0.1046  0.4389
14175TIP3    H163940   3.491   3.794   2.770 -1.4486  0.6910 -0.2585
14175TIP3    H263941   3.540   3.779   2.913  2.0679  0.6557 -1.3761
14176TIP3   OH263942   2.330   3.522  15.506 -0.0071 -0.1984 -0.3673
14176TIP3    H163943   2.278   3.500  15.428  0.3306  0.4649 -0.7885
14176TIP3    H263944   2.377   3.601  15.481 -1.9924  1.7000  1.4479
14177TIP3   OH263945   1.429   0.977  11.724  0.0083 -0.5841 -0.9082
14177TIP3    H163946   1.358   0.918  11.747  0.1073 -1.1420 -1.9866
14177TIP3    H263947   1.390   1.064  11.728 -0.7036 -0.8734 -1.3298
14178TIP3   OH263948   1.348   2.218   5.826 -0.1889 -0.3817 -0.1829
14178TIP3    H163949   1.424   2.161   5.809 -0.1588 -0.5684  0.5284
14178TIP3    H263950   1.275   2.157   5.836 -0.0967 -0.3382  0.9162
14179TIP3   OH263951   1.234   6.505  14.394  0.4151  0.4295  0.2359
14179TIP3    H163952   1.304   6.566  14.419  0.4659  0.4471  0.0526
14179TIP3    H263953   1.169   6.514  14.463  1.4537 -1.0097  1.4457
14180TIP3   OH263954   3.137   1.120   5.942 -0.8405  0.2077  0.3089
14180TIP3    H163955   3.097   1.190   5.994  1.6729  1.6246  0.4637
14180TIP3    H263956   3.169   1.057   6.008 -2.6784 -0.9489  0.1832
14181TIP3   OH263957   0.502   0.950   0.464  0.2085 -0.3475  0.4020
14181TIP3    H163958   0.465   1.010   0.399 -0.0232  0.1314  0.9624
14181TIP3    H263959   0.484   0.863   0.429  0.1638 -0.0926 -0.2169
14182TIP3   OH263960   5.145   4.372   1.259  0.0052  0.0300  0.1557
14182TIP3    H163961   5.158   4.437   1.329  2.5713 -0.0699 -0.1019
14182TIP3    H263962   5.231   4.366   1.217 -0.9845 -1.3025 -1.8168
14183TIP3   OH263963   4.482   5.140   0.438  0.3004  0.3360  0.6903
14183TIP3    H163964   4.433   5.058   0.438  0.8714 -0.1387 -2.4535
14183TIP3    H263965   4.571   5.116   0.461  0.4645  0.0368 -0.2185
14184TIP3   OH263966   1.004   2.047   0.747 -0.2774 -0.3319  0.4135
14184TIP3    H163967   0.988   2.137   0.776 -0.8888  0.2475 -1.5565
14184TIP3    H263968   0.918   2.016   0.718  0.1473 -1.1328 -0.0125
14185TIP3   OH263969   2.748   2.318  14.601  0.5339  0.0167  0.1418
14185TIP3    H163970   2.786   2.380  14.663 -1.3628  2.1235 -0.6590
14185TIP3    H263971   2.805   2.323  14.524 -0.1919  1.7089 -0.3417
14186TIP3   OH263972   5.011   4.084  17.396  0.0495 -0.1233 -0.0214
14186TIP3    H163973   4.930   4.074  17.448 -1.0915 -0.7060 -1.8309
14186TIP3    H263974   5.015   4.005  17.343  2.4718 -0.6478  0.8068
14187TIP3   OH263975   3.654   5.631   4.108  0.4404  0.0922  0.2195
14187TIP3    H163976   3.597   5.582   4.048 -0.7957  0.7173  0.8371
14187TIP3    H263977   3.698   5.694   4.052 -0.6555  0.6284 -0.0782
14188TIP3   OH263978   3.085   1.259  13.642  0.2721  0.3362  0.0117
14188TIP3    H163979   3.031   1.270  13.721 -0.4648  0.1125 -0.4466
14188TIP3    H263980   3.098   1.165  13.635 -0.3354  0.2823 -0.5564
14189TIP3   OH263981   5.986   3.973   1.659  0.1954  0.6987 -0.5193
14189TIP3    H163982   5.909   3.921   1.681  0.7428 -0.0519 -0.3203
14189TIP3    H263983   5.974   3.997   1.567  0.5176 -0.8438 -0.9860
14190TIP3   OH263984   2.170   6.643  11.306  0.0509  0.3867  0.3958
14190TIP3    H163985   2.200   6.714  11.363 -0.9319  0.5616  0.7036
14190TIP3    H263986   2.078   6.662  11.288 -0.0503 -0.4536 -0.0599
14191TIP3   OH263987   4.485   0.676  12.258 -0.5387 -0.3829 -0.3698
14191TIP3    H163988   4.486   0.756  12.206  0.6675 -0.7892 -1.0178
14191TIP3    H263989   4.492   0.606  12.193  0.1117 -0.9369  0.2898
14192TIP3   OH263990   3.258   6.470  15.773  0.2130 -0.3763 -0.4707
14192TIP3    H163991   3.291   6.447  15.861 -3.0069 -0.0695  0.9631
14192TIP3    H263992   3.287   6.560  15.759  0.7538 -0.4225  0.2895
14193TIP3   OH263993   5.618   1.906   1.439 -0.3365 -0.2171  0.0362
14193TIP3    H163994   5.547   1.937   1.383  0.3782 -0.9331 -1.3033
14193TIP3    H263995   5.677   1.980   1.446 -0.9493  0.2243  0.7640
14194TIP3   OH263996   2.321   1.128   2.790 -0.2622 -0.1474 -1.1369
14194TIP3    H163997   2.322   1.154   2.883 -1.5118 -4.0171  0.1384
14194TIP3    H263998   2.239   1.163   2.756 -1.7410 -1.8708  0.4164
14195TIP3   OH263999   6.081   2.001  14.362  0.9762 -0.2815  0.0458
14195TIP3    H164000   6.137   1.933  14.399  1.1944  0.3934  1.0220
14195TIP3    H264001   6.068   1.975  14.271 -1.1546 -3.0452  1.0128
14196TIP3   OH264002   0.057   2.871  11.863 -0.4458  0.4009 -0.4054
14196TIP3    H164003   0.128   2.810  11.882 -0.5763  0.7745  1.3833
14196TIP3    H264004   0.102   2.949  11.830  0.0832  0.9569  1.5238
14197TIP3   OH264005   4.592   6.480   1.443  0.0767 -0.2174  0.6178
14197TIP3    H164006   4.556   6.558   1.400 -0.7331 -1.6763 -1.5162
14197TIP3    H264007   4.515   6.433   1.475  0.5760 -0.0842  2.0938
14198TIP3   OH264008   2.014   3.765  12.560 -0.8160 -0.3098  0.3805
14198TIP3    H164009   2.044   3.692  12.613  0.0033  0.2195  0.6600
14198TIP3    H264010   1.953   3.726  12.498  0.1191 -1.3478  0.0856
14199TIP3   OH264011   5.253   4.854  16.348  0.3151 -0.3117  0.4233
14199TIP3    H164012   5.254   4.933  16.403 -0.3932  0.8033 -1.0856
14199TIP3    H264013   5.179   4.867  16.288  1.7309 -0.8915 -1.5653
14200TIP3   OH264014   4.776   5.492   0.498 -0.5372 -0.0110 -0.1102
14200TIP3    H164015   4.871   5.488   0.486 -0.4008  0.1571  0.8874
14200TIP3    H264016   4.741   5.439   0.426  0.2650  0.6357 -1.0029
14201TIP3   OH264017   2.120   3.379   4.743 -0.6340 -0.4907  0.5408
14201TIP3    H164018   2.180   3.365   4.817  1.1874 -2.2091 -1.1158
14201TIP3    H264019   2.069   3.456   4.767  0.5533 -0.4074  3.1344
14202TIP3   OH264020   0.645   3.497  12.743  0.5192  0.0952  0.0797
14202TIP3    H164021   0.554   3.474  12.727  0.0531  2.2645 -0.6293
14202TIP3    H264022   0.678   3.425  12.798 -0.8665 -2.0006 -1.6553
14203TIP3   OH264023   6.188   2.478   4.162 -0.0893  0.3972 -0.5122
14203TIP3    H164024   6.207   2.428   4.241  1.0769  0.4446 -0.7448
14203TIP3    H264025   6.104   2.521   4.180 -0.0959 -0.0156  0.4853
14204TIP3   OH264026   4.800   5.971   1.257  0.2045  0.2635  0.3259
14204TIP3    H164027   4.799   5.899   1.321  0.1402 -1.0059 -1.0639
14204TIP3    H264028   4.762   6.046   1.305  0.7035 -0.4765  1.9461
14205TIP3   OH264029   1.431   5.263  13.956 -0.1334 -0.5231  0.1132
14205TIP3    H164030   1.372   5.326  13.915  0.8945 -0.6224 -1.6229
14205TIP3    H264031   1.514   5.310  13.963  0.0624 -0.9671  0.8454
14206TIP3   OH264032   2.771   2.541  13.357 -1.0817  0.1004 -0.2057
14206TIP3    H164033   2.822   2.499  13.426 -0.0487  1.5347 -0.0541
14206TIP3    H264034   2.710   2.599  13.404 -0.6666  0.7586 -0.4568
14207TIP3   OH264035   1.121   5.296   5.900 -0.3097  0.0325 -0.1698
14207TIP3    H164036   1.202   5.302   5.849 -0.4121  0.3875 -0.2894
14207TIP3    H264037   1.093   5.205   5.890  0.8752 -0.5117  1.1000
14208TIP3   OH264038   6.324   5.060   0.073 -0.4019 -0.0514 -0.2242
14208TIP3    H164039   6.389   5.009   0.121  0.5147 -0.7972 -2.1172
14208TIP3    H264040   6.320   5.017  -0.013 -2.3561  0.8622 -0.6424
14209TIP3   OH264041   3.796   3.569  12.096  0.1275 -0.3699  0.4835
14209TIP3    H164042   3.775   3.624  12.021 -0.9658 -0.1908  0.9107
14209TIP3    H264043   3.845   3.626  12.155 -1.1142  0.2227  0.9858
14210TIP3   OH264044   1.896   5.875  12.449 -0.1789 -0.1194  0.5042
14210TIP3    H164045   1.953   5.919  12.386 -0.8742 -0.2831 -0.2664
14210TIP3    H264046   1.899   5.782  12.424 -1.1538 -0.0634  0.1333
14211TIP3   OH264047   0.267   6.208  10.610 -0.5361 -0.3521 -0.3253
14211TIP3    H164048   0.181   6.244  10.632 -0.2090  1.0120 -1.1042
14211TIP3    H264049   0.328   6.277  10.635  0.0436  0.1671 -2.8423
14212TIP3   OH264050   1.627   5.241  14.215  0.3480  0.4762 -0.3686
14212TIP3    H164051   1.646   5.296  14.139 -3.8099  2.7049 -0.1067
14212TIP3    H264052   1.646   5.296  14.291  0.0974 -0.0095  0.0543
14213TIP3   OH264053   0.755   1.149  14.339  0.1614 -0.3756 -0.5397
14213TIP3    H164054   0.765   1.113  14.427  1.4325 -1.1056 -0.9580
14213TIP3    H264055   0.844   1.158  14.306 -0.2959 -0.3092 -1.8361
14214TIP3   OH264056   3.177   1.914  11.715 -0.1440  0.1537 -0.2349
14214TIP3    H164057   3.118   1.897  11.641 -0.3669 -0.5503  0.0962
14214TIP3    H264058   3.253   1.956  11.675 -0.3792  0.0246 -0.8301
14215TIP3   OH264059   0.871   5.822   6.867  0.1726 -0.5300  0.4631
14215TIP3    H164060   0.936   5.813   6.938 -0.4307 -0.4601  1.0376
14215TIP3    H264061   0.797   5.770   6.897  0.3176 -1.4101 -0.6363
14216TIP3   OH264062   5.021   4.114   4.128 -0.2406  0.5340  0.4564
14216TIP3    H164063   5.087   4.173   4.090  0.6026 -1.2047 -0.9252
14216TIP3    H264064   4.940   4.165   4.123  0.5079  1.7313 -0.3617
14217TIP3   OH264065   0.935   5.536  12.505 -0.3683  0.4245  0.0252
14217TIP3    H164066   0.984   5.465  12.463  0.7400 -0.5130  2.6912
14217TIP3    H264067   1.002   5.602  12.526 -0.3286 -0.3393  2.6266
14218TIP3   OH264068   5.299   3.135   4.339  0.5094 -0.1714 -0.0838
14218TIP3    H164069   5.293   3.188   4.259  0.3365  0.6746  0.4773
14218TIP3    H264070   5.263   3.050   4.313 -0.9562  0.5405 -0.5349
14219TIP3   OH264071   2.842   3.278   1.563  0.0791  0.1679 -0.0257
14219TIP3    H164072   2.846   3.190   1.525  1.5521 -0.5265  1.5378
14219TIP3    H264073   2.879   3.335   1.496  1.8009 -0.8767 -0.0307
14220TIP3   OH264074   0.392   2.324   1.245  0.2617 -0.3236 -0.8189
14220TIP3    H164075   0.462   2.307   1.181  0.0683  2.0796 -1.7454
14220TIP3    H264076   0.351   2.405   1.215  0.1762  0.9479  2.3849
14221TIP3   OH264077   4.091   3.242   5.220  0.4266  0.5081  0.0273
14221TIP3    H164078   4.054   3.318   5.175 -1.1692 -0.9750 -1.2938
14221TIP3    H264079   4.094   3.173   5.153  1.6291 -0.6741  1.2289
14222TIP3   OH264080   6.364   2.278   2.162  0.1744 -0.1361 -0.1955
14222TIP3    H164081   6.370   2.295   2.068 -0.5846 -1.5663 -0.5393
14222TIP3    H264082   6.392   2.187   2.172  0.1288 -0.0428  0.9500
14223TIP3   OH264083   3.926   5.915   5.315  0.1507 -0.2346  1.0078
14223TIP3    H164084   3.920   6.000   5.271  2.0077 -0.0118  1.0981
14223TIP3    H264085   3.836   5.895   5.341 -0.3582  1.6237  0.8290
14224TIP3   OH264086   1.445   6.549   3.786 -0.1793 -0.0303 -0.0206
14224TIP3    H164087   1.486   6.496   3.718 -0.6466 -0.1447 -0.2225
14224TIP3    H264088   1.516   6.599   3.825  0.3651 -1.1999  0.5311
14225TIP3   OH264089   6.140   4.807   0.541 -0.0586 -0.2847  0.2506
14225TIP3    H164090   6.048   4.819   0.564  0.0576  0.5543  0.3233
14225TIP3    H264091   6.159   4.716   0.564 -0.3637  0.0714  2.0156
14226TIP3   OH264092   3.864   3.799   3.394  0.6198  0.4254 -0.2013
14226TIP3    H164093   3.787   3.847   3.426 -0.3753 -0.7124 -0.7984
14226TIP3    H264094   3.918   3.866   3.352 -0.3041  1.1818 -0.2330
14227TIP3   OH264095   2.515   4.146   4.752 -0.1832  0.5206  0.3360
14227TIP3    H164096   2.442   4.087   4.731 -0.9219  1.2674  0.7457
14227TIP3    H264097   2.591   4.105   4.712 -0.9718  0.1651 -0.8464
14228TIP3   OH264098   1.182   5.396  11.744  0.2146  0.1152  0.2270
14228TIP3    H164099   1.112   5.333  11.730  0.3368 -0.0709  0.4388
14228TIP3    H264100   1.262   5.344  11.740  0.2994  0.1990  0.7329
14229TIP3   OH264101   3.959   3.482   5.092  0.2709 -0.0852  0.3365
14229TIP3    H164102   3.875   3.479   5.047 -0.3820 -2.8036  1.5747
14229TIP3    H264103   3.950   3.555   5.154 -1.4538 -0.6791  0.8608
14230TIP3   OH264104   5.157   4.980  12.380  0.3306  0.3776 -0.4565
14230TIP3    H164105   5.201   4.896  12.362 -0.2036  0.4584 -2.3395
14230TIP3    H264106   5.229   5.040  12.400  0.8185 -0.2341 -0.3260
14231TIP3   OH264107   4.692   3.918  16.201 -0.0199  0.0851  0.0408
14231TIP3    H164108   4.785   3.900  16.214 -0.2257  0.0891  1.8221
14231TIP3    H264109   4.690   3.988  16.136  1.1004 -1.3701 -1.6403
14232TIP3   OH264110   3.488   3.414   3.725 -0.0480  0.1452  0.4273
14232TIP3    H164111   3.537   3.350   3.777  0.1237  1.3538  1.8066
14232TIP3    H264112   3.406   3.427   3.773 -0.5176  0.2238 -0.3759
14233TIP3   OH264113   1.169   3.648  16.294 -0.0740 -0.2715 -0.0951
14233TIP3    H164114   1.199   3.673  16.207  1.9580 -0.1058  0.6080
14233TIP3    H264115   1.205   3.561  16.308 -1.9072 -1.0832 -0.0812
14234TIP3   OH264116   5.875   3.779  15.810 -0.4223  0.1288 -0.0009
14234TIP3    H164117   5.957   3.730  15.810  0.7694  1.9732  1.3397
14234TIP3    H264118   5.878   3.831  15.729 -0.9365 -0.8130 -0.6338
14235TIP3   OH264119   3.352   1.918  14.247  0.4135 -0.9326 -0.0710
14235TIP3    H164120   3.345   1.856  14.319 -2.0097 -0.6400  0.0379
14235TIP3    H264121   3.311   1.998  14.280  1.8005  0.1265 -0.8441
14236TIP3   OH264122   0.257   3.854  13.916 -0.3500  0.2898  0.5402
14236TIP3    H164123   0.315   3.778  13.916  0.1331  0.6453  0.0528
14236TIP3    H264124   0.209   3.848  13.833  0.1133  0.8190  0.2246
14237TIP3   OH264125   0.303   1.915  17.286 -0.0269 -0.3509  0.3097
14237TIP3    H164126   0.231   1.944  17.230  0.6996 -1.3224 -1.1947
14237TIP3    H264127   0.260   1.880  17.364 -1.2147 -1.1316 -0.6573
14238TIP3   OH264128   1.061   5.781   0.271  0.6606 -0.3093  0.0211
14238TIP3    H164129   0.990   5.846   0.263  0.5232 -0.6172 -1.6510
14238TIP3    H264130   1.038   5.730   0.348 -0.3249  0.3339  0.1783
14239TIP3   OH264131   6.704   3.040  11.223  0.5160 -0.1380  0.6404
14239TIP3    H164132   6.645   2.996  11.284 -1.1841 -0.1471 -0.9435
14239TIP3    H264133   6.671   3.017  11.136  1.8087  1.2874 -0.2781
14240TIP3   OH264134   0.653   1.055   3.152  0.1022  0.5087  0.6680
14240TIP3    H164135   0.630   1.023   3.065 -0.6453 -0.6911  1.2744
14240TIP3    H264136   0.695   1.140   3.137 -0.1513  0.3861 -0.8363
14241TIP3   OH264137   2.953   5.337   2.523  0.1266  0.8587  0.2793
14241TIP3    H164138   2.965   5.309   2.432  1.4038 -0.0417  0.6994
14241TIP3    H264139   2.960   5.432   2.520  1.2079  0.7743 -0.4305
14242TIP3   OH264140   5.737   4.756   1.084  0.2933  0.1289 -0.1527
14242TIP3    H164141   5.778   4.786   1.166 -2.5789 -2.0326  2.3070
14242TIP3    H264142   5.775   4.670   1.068 -0.0974 -0.0085 -0.3492
14243TIP3   OH264143   4.261   2.735  14.558  0.1736  0.2022  0.1308
14243TIP3    H164144   4.347   2.762  14.589 -0.3148  0.7207  1.0676
14243TIP3    H264145   4.231   2.807  14.504 -1.0220  1.5459  2.4277
14244TIP3   OH264146   4.323   1.018   0.077 -0.4173  0.1726 -0.2872
14244TIP3    H164147   4.296   0.996  -0.013  0.9303  0.0842 -0.6883
14244TIP3    H264148   4.409   1.059   0.067  0.0889 -0.5179  1.0325
14245TIP3   OH264149   0.621   6.630  17.330 -0.1443  0.6192  0.3041
14245TIP3    H164150   0.636   6.582  17.248 -0.1216 -1.1061  1.2741
14245TIP3    H264151   0.527   6.619  17.347  0.0724 -0.0600  1.1103
14246TIP3   OH264152   2.573   4.069   3.062 -0.6381  0.3085 -0.2845
14246TIP3    H164153   2.543   4.131   3.129  0.5186  0.3722  0.2017
14246TIP3    H264154   2.552   4.112   2.979  1.0421  1.8740  0.0205
14247TIP3   OH264155   6.353   1.251   0.551 -0.1793  0.1622 -0.6242
14247TIP3    H164156   6.262   1.245   0.523  0.1222  0.2937 -1.6912
14247TIP3    H264157   6.386   1.330   0.509  0.6646 -0.3575 -0.9793
14248TIP3   OH264158   1.676   6.113  13.822 -0.2442  0.2397 -0.1016
14248TIP3    H164159   1.674   6.124  13.726 -0.4547  0.2198 -0.1004
14248TIP3    H264160   1.588   6.084  13.844 -0.8190  2.1826  0.3215
14249TIP3   OH264161   5.772   0.776   3.348  0.1725 -0.6452  0.3358
14249TIP3    H164162   5.799   0.868   3.347  0.1364 -0.5817  2.0315
14249TIP3    H264163   5.812   0.738   3.270 -0.5576  1.0015 -0.8983
14250TIP3   OH264164   4.397   3.904   4.763 -0.7099  0.1955  0.3425
14250TIP3    H164165   4.347   3.823   4.753  0.9015 -0.5986 -2.1644
14250TIP3    H264166   4.486   3.876   4.783 -0.5650  1.4531  1.6152
14251TIP3   OH264167   6.387   6.624   2.788  0.4434  0.3560  0.0706
14251TIP3    H164168   6.349   6.710   2.807 -0.3935  0.1328 -0.5350
14251TIP3    H264169   6.470   6.643   2.746 -0.5690  0.9173 -1.7745
14252TIP3   OH264170   6.291   5.233  14.678  0.3776  0.0389 -0.3870
14252TIP3    H164171   6.257   5.265  14.762  0.6337 -1.1048  0.1631
14252TIP3    H264172   6.375   5.278  14.668 -0.1523  1.0151 -0.5754
14253TIP3   OH264173   6.008   3.400   0.994  0.1403  0.3528  0.1760
14253TIP3    H164174   5.972   3.382   0.907 -2.4083  1.4286  0.9080
14253TIP3    H264175   5.958   3.475   1.026  0.6243 -0.3150  2.7713
14254TIP3   OH264176   5.733   5.280  14.981 -0.2294 -0.1119 -0.8084
14254TIP3    H164177   5.735   5.184  14.985 -1.5575 -0.1197  1.1042
14254TIP3    H264178   5.643   5.301  14.956  0.5732  0.6679 -3.3481
14255TIP3   OH264179   4.651   2.115   4.674  0.0833 -0.3792 -0.3422
14255TIP3    H164180   4.595   2.070   4.738 -0.4282  0.9225  0.1507
14255TIP3    H264181   4.593   2.176   4.629  1.0708  1.0139  0.1838
14256TIP3   OH264182   4.514   0.331  11.476 -0.6084  0.4172 -0.1216
14256TIP3    H164183   4.456   0.362  11.407 -1.2113  0.0518  0.2161
14256TIP3    H264184   4.598   0.317  11.432 -0.0719  3.2116 -0.1375
14257TIP3   OH264185   0.710   6.502  14.685 -0.4061  0.1238  0.0748
14257TIP3    H164186   0.778   6.478  14.621 -0.3513  2.3242 -0.7782
14257TIP3    H264187   0.641   6.438  14.670  0.3001 -0.4172 -1.0762
14258TIP3   OH264188   2.674   4.188  13.934 -0.4634  0.2660 -0.2433
14258TIP3    H164189   2.766   4.211  13.945 -0.8145  1.3050  0.5683
14258TIP3    H264190   2.657   4.122  14.001 -0.7657  1.4001  0.8150
14259TIP3   OH264191   4.499   4.144  11.575 -0.2218 -0.4439 -0.3158
14259TIP3    H164192   4.435   4.199  11.619 -0.2654 -1.3449  0.7941
14259TIP3    H264193   4.528   4.082  11.642  1.0378 -0.7200 -1.0778
14260TIP3   OH264194   1.081   4.863   1.034  0.1865 -0.6252 -0.0961
14260TIP3    H164195   0.995   4.832   1.008  0.0134 -0.9640  0.8787
14260TIP3    H264196   1.125   4.787   1.072  0.9417 -0.4740 -0.6245
14261TIP3   OH264197   2.086   0.611   1.131  0.5012 -0.2602  0.2460
14261TIP3    H164198   2.164   0.630   1.183 -0.3199  0.5617  1.2160
14261TIP3    H264199   2.032   0.555   1.187 -0.2698  0.4006  0.1799
14262TIP3   OH264200   0.407   5.046   5.468  0.6751 -0.0238 -0.0490
14262TIP3    H164201   0.353   5.052   5.389 -0.2219 -0.2973  0.5243
14262TIP3    H264202   0.411   4.953   5.488  0.7080  0.0625  0.3590
14263TIP3   OH264203   5.294   6.596  13.970 -0.2851  0.3297 -0.1453
14263TIP3    H164204   5.259   6.507  13.976  0.3556  0.1224  0.6575
14263TIP3    H264205   5.249   6.634  13.894 -2.0899  0.0120  0.7002
14264TIP3   OH264206   3.971   5.393  11.903 -0.2213 -0.0702  0.3136
14264TIP3    H164207   3.888   5.365  11.864  0.1477 -0.6049 -0.1155
14264TIP3    H264208   3.980   5.338  11.981  0.2388 -0.7836 -0.2288
14265TIP3   OH264209   3.007   5.303   5.351  0.1726 -0.4727  0.2736
14265TIP3    H164210   2.980   5.383   5.397  1.7169  0.3383 -0.1626
14265TIP3    H264211   3.070   5.333   5.286 -2.1991 -1.5208 -2.7603
14266TIP3   OH264212   6.181   4.907   1.129  0.4708  0.5495  0.5567
14266TIP3    H164213   6.151   4.987   1.173 -0.0417  1.0999 -0.7393
14266TIP3    H264214   6.120   4.839   1.158 -1.1326  1.3284 -0.8086
14267TIP3   OH264215   2.203   6.342  13.748  0.4700 -0.2374 -0.3197
14267TIP3    H164216   2.149   6.266  13.726  1.6710 -1.2713  0.1857
14267TIP3    H264217   2.145   6.417  13.735 -1.4482 -1.3452  1.2378
14268TIP3   OH264218   4.366   1.925   0.425  0.0504 -0.0378  0.7868
14268TIP3    H164219   4.456   1.926   0.392 -0.5448  1.2627 -0.9390
14268TIP3    H264220   4.320   1.866   0.365 -0.3477 -0.3357  1.3842
14269TIP3   OH264221   2.374   0.037  14.818  0.2900  0.5680 -0.1016
14269TIP3    H164222   2.338  -0.041  14.776 -0.5429  0.9818 -0.1837
14269TIP3    H264223   2.431   0.003  14.888 -0.5987 -0.1170  0.3120
14270TIP3   OH264224   5.098   6.164  10.899 -0.4020  0.4224 -0.2604
14270TIP3    H164225   5.078   6.106  10.971  0.2759 -1.0978 -1.2515
14270TIP3    H264226   5.013   6.191  10.865 -0.7195  0.3551  0.4806
14271TIP3   OH264227   1.339   1.794  16.856  0.1049  0.8631  0.1605
14271TIP3    H164228   1.320   1.725  16.920  1.9198  1.0898  1.0274
14271TIP3    H264229   1.304   1.873  16.896 -1.6285  0.5464 -0.6538
14272TIP3   OH264230   0.329   2.277  16.182 -0.1343 -0.6075  0.2067
14272TIP3    H164231   0.330   2.189  16.219 -0.4503 -0.4660  0.5501
14272TIP3    H264232   0.334   2.263  16.087 -1.1235 -1.0261  0.2102
14273TIP3   OH264233   1.917   3.461   6.679 -0.2594 -0.2129  0.3958
14273TIP3    H164234   1.831   3.440   6.714 -1.0211 -0.2999 -1.4065
14273TIP3    H264235   1.947   3.381   6.637  0.6665 -0.1556  0.9251
14274TIP3   OH264236   0.661   2.956   1.363  0.5568  0.4727 -0.0318
14274TIP3    H164237   0.623   2.874   1.333  1.7144  0.2255 -0.9052
14274TIP3    H264238   0.752   2.954   1.331  0.6220  2.0669 -0.0585
14275TIP3   OH264239   0.052   1.831   5.674  0.1923  0.6010 -0.3555
14275TIP3    H164240   0.114   1.860   5.741  0.8567  0.7287 -1.0137
14275TIP3    H264241  -0.018   1.897   5.676 -0.4294 -0.0496  1.0419
14276TIP3   OH264242   5.242   1.473  12.229  0.8928 -0.0285  0.1382
14276TIP3    H164243   5.297   1.550  12.242  0.9088 -0.4427  3.4038
14276TIP3    H264244   5.290   1.402  12.271 -0.3171 -1.2716 -0.4990
14277TIP3   OH264245   2.131   2.901   3.600 -0.2977 -0.2481  0.3019
14277TIP3    H164246   2.191   2.975   3.599 -0.3779 -0.1589  1.3654
14277TIP3    H264247   2.161   2.847   3.673  0.1172 -1.5734 -0.8058
14278TIP3   OH264248   2.826   2.751  11.431 -0.6896 -0.1918 -0.1984
14278TIP3    H164249   2.762   2.776  11.498 -1.6936  0.1713 -1.2666
14278TIP3    H264250   2.892   2.821  11.434  0.4093 -1.2054  1.7760
14279TIP3   OH264251   3.720   6.179  14.801  0.0118 -0.5828  0.3019
14279TIP3    H164252   3.803   6.138  14.775 -0.7446 -2.2424  0.3855
14279TIP3    H264253   3.746   6.264  14.836  1.7794 -1.3769  1.0817
14280TIP3   OH264254   0.781   3.730   1.796  0.6386  0.0186 -0.4135
14280TIP3    H164255   0.714   3.728   1.865  0.9805 -0.2968 -0.0839
14280TIP3    H264256   0.738   3.691   1.720  0.8353 -1.4103  0.1686
14281TIP3   OH264257   2.279   4.840  12.754 -0.0442  0.2246  0.0868
14281TIP3    H164258   2.316   4.764  12.710  1.0984 -0.7176  2.4973
14281TIP3    H264259   2.195   4.809  12.788  0.6265 -0.1759  1.4678
14282TIP3   OH264260   6.351   2.954  17.037  0.3262  0.1469  0.6853
14282TIP3    H164261   6.363   3.028  16.977  3.7669  0.6760  1.7981
14282TIP3    H264262   6.339   2.995  17.123 -1.1016 -0.6273  0.8855
14283TIP3   OH264263   0.799   6.657  15.903  0.4788  0.2028 -0.3599
14283TIP3    H164264   0.832   6.569  15.924  0.7403 -0.1250 -2.0225
14283TIP3    H264265   0.776   6.694  15.988  1.3653 -1.0730  0.4825
14284TIP3   OH264266   0.215   4.819   3.732 -0.3872 -0.1176  0.2476
14284TIP3    H164267   0.209   4.767   3.652  0.1461 -0.1545  0.2258
14284TIP3    H264268   0.296   4.869   3.721 -0.3665 -0.0461  0.7185
14285TIP3   OH264269   1.430   0.429   0.367  0.7353 -0.0433  0.8323
14285TIP3    H164270   1.378   0.473   0.299  1.2849 -0.6829 -0.0310
14285TIP3    H264271   1.371   0.362   0.402  0.7988 -0.4412  0.2003
14286TIP3   OH264272   0.342   3.912   2.157  0.7253 -0.5646  0.4999
14286TIP3    H164273   0.404   3.925   2.084  0.4165  1.9693  0.6058
14286TIP3    H264274   0.302   3.827   2.139  1.0944 -0.2937 -1.9761
14287TIP3   OH264275   0.702   4.672  14.930 -0.2350  0.1315  0.1621
14287TIP3    H164276   0.633   4.730  14.898  2.2718  2.0757 -2.2669
14287TIP3    H264277   0.696   4.676  15.025  0.0272  4.9037  0.1902
14288TIP3   OH264278   4.032   3.368   3.422  0.6341 -0.3781  0.3587
14288TIP3    H164279   3.988   3.300   3.372  0.4652  2.0762 -3.2289
14288TIP3    H264280   4.115   3.329   3.449 -0.2484 -2.5385  0.1010
14289TIP3   OH264281   1.480   4.496   5.317 -0.6186  0.6683  0.3957
14289TIP3    H164282   1.403   4.517   5.370 -1.9897 -0.1363 -1.1909
14289TIP3    H264283   1.518   4.419   5.360 -1.1726  0.5798  0.7372
14290TIP3   OH264284   3.238   1.381  10.865 -0.4367  0.3048 -0.0285
14290TIP3    H164285   3.304   1.443  10.833 -1.0724  1.7336  1.3100
14290TIP3    H264286   3.263   1.297  10.826  1.5230  1.0246 -0.4283
14291TIP3   OH264287   5.924   5.644   2.204  0.1320  0.2544  0.4207
14291TIP3    H164288   5.918   5.731   2.244  1.5759  1.4659 -1.7386
14291TIP3    H264289   5.911   5.661   2.111 -1.7529 -2.2212  0.1484
14292TIP3   OH264290   3.211   1.423   2.921 -0.6683 -0.1568 -0.3008
14292TIP3    H164291   3.237   1.387   2.836  0.0895 -1.8878  0.6207
14292TIP3    H264292   3.120   1.450   2.909 -0.2301  0.7290 -1.9699
14293TIP3   OH264293   1.152   5.490   0.002 -0.2578 -0.8728 -0.4698
14293TIP3    H164294   1.247   5.498   0.015 -0.0703 -3.5992  0.5062
14293TIP3    H264295   1.118   5.473   0.090 -1.3595 -2.0247 -1.0941
14294TIP3   OH264296   5.115   2.202   2.180  0.0230 -0.1853  0.1973
14294TIP3    H164297   5.118   2.228   2.088 -0.0094  2.4150  0.8527
14294TIP3    H264298   5.202   2.224   2.213 -0.3696  0.1059  1.0578
14295TIP3   OH264299   3.060   1.498  12.286 -0.1516 -0.2750  0.6520
14295TIP3    H164300   3.004   1.424  12.310 -1.8925  0.9151  0.4172
14295TIP3    H264301   3.147   1.472  12.316 -0.9158 -1.9253  1.6109
14296TIP3   OH264302   2.329   0.497  14.504  0.2647 -0.4016 -0.5252
14296TIP3    H164303   2.284   0.447  14.437 -1.6392 -0.1749  0.5352
14296TIP3    H264304   2.303   0.588  14.488 -2.5157 -0.5722  2.0519
14297TIP3   OH264305   0.082   5.169   5.915 -0.6965 -0.1420  0.5201
14297TIP3    H164306  -0.007   5.136   5.912 -1.0402  0.4801  2.2591
14297TIP3    H264307   0.073   5.261   5.940  0.4449 -0.2632  1.5012
14298TIP3   OH264308   6.119   4.066  14.016 -0.0631  0.2756  0.3865
14298TIP3    H164309   6.085   3.980  13.991  1.9203 -0.4821  0.0650
14298TIP3    H264310   6.078   4.084  14.101 -1.9121 -0.1060 -0.3783
14299TIP3   OH264311   6.394   2.760   2.706 -0.1186  0.1862  0.5112
14299TIP3    H164312   6.359   2.797   2.625 -1.8639  0.4705  1.3499
14299TIP3    H264313   6.403   2.667   2.688 -1.0223  0.1581  0.1413
14300TIP3   OH264314   6.068   0.749   0.021  0.2015 -0.1684  0.0940
14300TIP3    H164315   6.109   0.834   0.006 -0.6467 -0.0510 -1.8541
14300TIP3    H264316   6.064   0.709  -0.065 -4.4954  0.2009 -0.1395
14301TIP3   OH264317   1.801   6.534   3.964 -0.1453 -0.7046 -0.3732
14301TIP3    H164318   1.748   6.613   3.952 -0.1652 -0.6197  0.2466
14301TIP3    H264319   1.864   6.537   3.893 -0.5161 -0.4325 -0.6960
14302TIP3   OH264320   0.575   1.672   3.830  0.3402 -0.4401 -0.5474
14302TIP3    H164321   0.513   1.614   3.786 -0.5377  0.6973 -0.8489
14302TIP3    H264322   0.534   1.692   3.914 -0.5354  1.6214 -1.4040
14303TIP3   OH264323   1.315   3.132   2.807 -0.0219 -0.2551  0.0155
14303TIP3    H164324   1.253   3.064   2.782 -0.6106  0.1876  0.2554
14303TIP3    H264325   1.282   3.166   2.890  0.6864 -0.1927  0.2832
14304TIP3   OH264326   1.867   1.820   3.062 -0.1248 -0.5886  0.2199
14304TIP3    H164327   1.814   1.894   3.032 -0.2092 -0.5998  0.3411
14304TIP3    H264328   1.948   1.827   3.012 -0.7135 -1.2758 -0.8425
14305TIP3   OH264329   5.808   2.687  17.092 -0.2028 -0.1560 -0.6795
14305TIP3    H164330   5.830   2.769  17.048 -0.8047  0.4422  0.1049
14305TIP3    H264331   5.772   2.632  17.022 -0.7871  0.6396 -1.0232
14306TIP3   OH264332   5.163   0.740  15.181 -0.0342 -0.1180  0.2859
14306TIP3    H164333   5.228   0.810  15.189  0.0064 -0.2840  1.7645
14306TIP3    H264334   5.213   0.659  15.197 -0.6322 -0.2161  1.8153
14307TIP3   OH264335   1.723   2.329   1.106 -0.5657 -0.5288  0.2925
14307TIP3    H164336   1.726   2.359   1.015 -0.9238 -1.9355 -0.2056
14307TIP3    H264337   1.815   2.325   1.132 -0.5023  2.4324  0.9259
14308TIP3   OH264338   4.183   2.699   0.057 -0.0686 -0.2377  0.0878
14308TIP3    H164339   4.192   2.765  -0.013  0.5415 -0.6261 -0.2066
14308TIP3    H264340   4.261   2.711   0.111 -0.7575  0.3711  0.9923
14309TIP3   OH264341   5.150   1.744  16.238 -0.4563 -0.1881  0.7266
14309TIP3    H164342   5.107   1.801  16.301  1.0546  1.3927  0.3917
14309TIP3    H264343   5.183   1.671  16.291 -0.9693  0.0781  1.4312
14310TIP3   OH264344   5.184   3.440  12.427  0.7604  0.0872  0.3978
14310TIP3    H164345   5.259   3.390  12.457  0.1731 -2.2285 -1.6354
14310TIP3    H264346   5.114   3.376  12.417 -0.2027  1.3422 -1.8898
14311TIP3   OH264347   6.509   5.163   0.526  0.3245  0.5411  0.5000
14311TIP3    H164348   6.556   5.187   0.607  0.8501 -0.9018  0.6390
14311TIP3    H264349   6.447   5.095   0.554  0.2276  0.3209 -0.2474
14312TIP3   OH264350   4.739   6.011   3.930  0.0449  0.3670 -0.5343
14312TIP3    H164351   4.715   6.003   4.022  3.6669 -1.0853  0.4480
14312TIP3    H264352   4.655   6.020   3.884 -1.9716 -0.1127  2.7484
14313TIP3   OH264353   0.519   1.744   0.629 -0.0657  0.1697  0.0784
14313TIP3    H164354   0.480   1.788   0.553 -0.6173  0.9897  0.8174
14313TIP3    H264355   0.469   1.776   0.704  1.8242  1.0548  1.0414
14314TIP3   OH264356   3.388   2.227  13.478  0.2764 -0.3236 -0.5579
14314TIP3    H164357   3.328   2.298  13.503 -1.5544 -2.1262  0.4277
14314TIP3    H264358   3.426   2.198  13.561  2.8385  0.9576 -1.1842
14315TIP3   OH264359   5.862   6.550   5.294 -0.3448  0.2545  0.1065
14315TIP3    H164360   5.933   6.565   5.231  1.9942 -0.0583  2.4878
14315TIP3    H264361   5.836   6.459   5.280  0.7429 -0.0733  0.0943
14316TIP3   OH264362   0.241   3.674  16.248 -0.2354  0.2871 -0.5787
14316TIP3    H164363   0.184   3.731  16.300 -2.1141 -0.5642 -1.6000
14316TIP3    H264364   0.289   3.733  16.190 -0.0010  1.0301  0.3432
14317TIP3   OH264365   0.364   2.431  11.759 -0.0066 -0.5628 -0.2433
14317TIP3    H164366   0.429   2.368  11.790  0.4935  0.1700  0.2440
14317TIP3    H264367   0.327   2.392  11.680  1.1520 -0.9113 -0.6250
14318TIP3   OH264368   0.445   5.224   4.442 -0.3964 -0.0260  0.3082
14318TIP3    H164369   0.471   5.257   4.356  1.4873  0.9649  1.1752
14318TIP3    H264370   0.524   5.182   4.476 -0.7552  0.5400  1.9578
14319TIP3   OH264371   5.128   3.033   3.746 -0.2507 -0.2780  0.0192
14319TIP3    H164372   5.055   3.093   3.761 -1.8067 -1.7824 -1.1615
14319TIP3    H264373   5.117   2.965   3.812  0.3148 -0.3386  0.0602
14320TIP3   OH264374   6.259   4.903  15.361  0.6460  0.1135  0.0924
14320TIP3    H164375   6.299   4.940  15.282 -0.0494  0.2867 -0.1847
14320TIP3    H264376   6.198   4.970  15.390 -1.5894 -1.2639 -1.1350
14321TIP3   OH264377   4.126   1.099  14.871  0.7399 -0.3087 -0.0164
14321TIP3    H164378   4.066   1.084  14.797  0.2396 -0.4762  0.4142
14321TIP3    H264379   4.098   1.035  14.937  1.0243  0.0067  0.4078
14322TIP3   OH264380   3.941   4.497   5.903  0.0772 -0.1071 -0.1463
14322TIP3    H164381   3.872   4.434   5.925 -0.2170  0.5545  0.8877
14322TIP3    H264382   3.896   4.581   5.899  0.5875  0.1391 -0.8596
14323TIP3   OH264383   0.422   2.529   0.353  0.3041  0.7240 -0.3339
14323TIP3    H164384   0.353   2.521   0.287  0.0368 -0.8181  0.1004
14323TIP3    H264385   0.384   2.585   0.421 -0.8986 -0.8177  0.3237
14324TIP3   OH264386   2.974   2.047   0.718 -0.0045  0.5593 -0.0071
14324TIP3    H164387   3.017   1.993   0.651 -2.7112 -1.5700 -0.2038
14324TIP3    H264388   2.981   1.994   0.798 -2.1462  0.1223 -0.0563
14325TIP3   OH264389   4.549   6.225  12.707  0.0751 -0.1943 -0.4206
14325TIP3    H164390   4.517   6.144  12.747 -0.7221  0.1234 -0.3961
14325TIP3    H264391   4.644   6.220  12.717 -0.0381 -0.6001  0.6013
14326TIP3   OH264392   6.714   2.894  13.166  0.6193  0.2252  0.0311
14326TIP3    H164393   6.691   2.809  13.129  2.6474 -0.8244  1.0354
14326TIP3    H264394   6.721   2.879  13.260  0.2279  1.7006  0.3257
14327TIP3   OH264395   0.021   6.658  13.958 -0.3964  0.0262 -0.0765
14327TIP3    H164396   0.044   6.576  14.001 -2.4103 -0.0766  0.9518
14327TIP3    H264397   0.061   6.726  14.011 -0.0721 -0.2259  0.0060
14328TIP3   OH264398   2.307   4.354  17.421  0.0575 -0.0243 -0.2427
14328TIP3    H164399   2.400   4.336  17.435  0.2804 -0.2447 -1.7650
14328TIP3    H264400   2.291   4.438  17.465  0.7976 -0.3428  0.6476
14329TIP3   OH264401   1.995   1.954  16.726  0.3848  0.2263  0.4049
14329TIP3    H164402   2.090   1.959  16.718  0.3688  0.0807  0.1250
14329TIP3    H264403   1.975   1.861  16.728  0.0651  0.1695 -1.9119
14330TIP3   OH264404   1.913   5.848   3.252  0.1700  0.3112 -0.0889
14330TIP3    H164405   1.888   5.755   3.253 -1.0350  0.6064 -0.8734
14330TIP3    H264406   1.898   5.875   3.161 -0.8159  1.6100  0.4377
14331TIP3   OH264407   4.348   4.012   2.821 -0.3423 -0.3169  0.0309
14331TIP3    H164408   4.314   3.973   2.740  0.6241  0.0371 -0.5623
14331TIP3    H264409   4.360   4.104   2.799  3.3752 -0.8148 -0.6680
14332TIP3   OH264410   0.054   0.410  17.376  0.1727 -0.4249  0.5149
14332TIP3    H164411  -0.022   0.397  17.432 -1.0046  1.6460 -0.4796
14332TIP3    H264412   0.044   0.346  17.306 -0.3907 -0.4988  0.6650
14333TIP3   OH264413   0.326   2.816  10.605 -0.1208  0.4406 -0.0354
14333TIP3    H164414   0.368   2.859  10.530  2.2135 -1.4861  0.0353
14333TIP3    H264415   0.271   2.749  10.566  1.1653 -0.6237 -0.0964
14334TIP3   OH264416   6.539   6.033   1.325 -0.3798  0.5397 -0.2257
14334TIP3    H164417   6.593   5.967   1.282 -0.0376  1.1288 -0.7263
14334TIP3    H264418   6.487   5.985   1.388 -0.8254 -0.3445 -1.2370
14335TIP3   OH264419   5.377   5.624  13.365  0.0544  0.1830  0.5086
14335TIP3    H164420   5.389   5.643  13.458 -0.5996  0.2279  0.5873
14335TIP3    H264421   5.444   5.676  13.321  0.3260  0.2086  0.9513
14336TIP3   OH264422   2.875   6.722  13.114 -0.1104  0.3145  0.1137
14336TIP3    H164423   2.789   6.763  13.100 -0.1534  0.7107  1.4087
14336TIP3    H264424   2.860   6.630  13.093 -1.1288  0.1933  1.2045
14337TIP3   OH264425   4.065   1.357  12.712  0.3845 -0.0796 -0.1348
14337TIP3    H164426   4.012   1.311  12.647  1.1013 -0.3081 -0.5758
14337TIP3    H264427   4.128   1.408  12.660  0.8479 -0.1189  0.3729
14338TIP3   OH264428   1.915   5.555   1.541 -0.2387  0.1467 -0.3119
14338TIP3    H164429   2.008   5.549   1.564  0.0908 -2.4044 -1.8524
14338TIP3    H264430   1.869   5.536   1.622  0.6389  0.2248  0.2200
14339TIP3   OH264431   3.975   3.562   2.528  0.4313 -1.0231  0.4995
14339TIP3    H164432   3.999   3.495   2.592  0.6153 -0.1918  1.3351
14339TIP3    H264433   4.039   3.553   2.458 -0.6223 -2.8843 -0.2984
14340TIP3   OH264434   3.437   0.753  16.424 -0.5091  0.0298  0.2421
14340TIP3    H164435   3.506   0.731  16.362  0.4238  1.5801  0.6767
14340TIP3    H264436   3.474   0.732  16.510 -1.1246 -0.4393  0.4007
14341TIP3   OH264437   4.301   5.802   4.715  0.0812 -0.2542  0.1908
14341TIP3    H164438   4.233   5.786   4.649  0.1447  0.3227 -0.0171
14341TIP3    H264439   4.323   5.894   4.705  0.9318 -0.4492  0.2324
14342TIP3   OH264440   1.065   1.532  12.535  0.4111 -0.2846 -0.0124
14342TIP3    H164441   1.160   1.529  12.528  0.3606 -0.4601 -0.7138
14342TIP3    H264442   1.034   1.527  12.445 -0.2475  0.8245  0.1375
14343TIP3   OH264443   1.853   1.386   2.374  0.0976  0.1064  0.3233
14343TIP3    H164444   1.804   1.380   2.292 -0.4455  0.5417  0.6091
14343TIP3    H264445   1.917   1.456   2.359 -0.3373  0.5358  0.4336
14344TIP3   OH264446   5.704   0.029   3.497 -0.0280  0.3223  0.0936
14344TIP3    H164447   5.623   0.016   3.447 -1.4120  0.7717  2.1017
14344TIP3    H264448   5.764   0.069   3.435 -0.7827 -1.4330 -1.9059
14345TIP3   OH264449   6.533   3.980  17.457 -0.6588 -0.2605  0.0309
14345TIP3    H164450   6.461   4.027  17.499 -1.3949 -0.6283 -0.7993
14345TIP3    H264451   6.595   4.049  17.433  1.1637 -0.2016  4.1176
14346TIP3   OH264452   4.096   5.345  17.220  0.5562 -0.0691 -0.5503
14346TIP3    H164453   4.109   5.324  17.312  0.2253  0.2512 -0.4309
14346TIP3    H264454   4.123   5.266  17.173 -2.1916 -1.4022 -0.0511
14347TIP3   OH264455   6.353   2.581   0.279  0.3149 -0.2811 -0.9361
14347TIP3    H164456   6.270   2.534   0.264  0.7848 -1.3446 -0.3617
14347TIP3    H264457   6.372   2.566   0.371  0.4430  1.1647 -0.7100
14348TIP3   OH264458   3.210   6.731  14.744 -0.0079  0.7444  0.0035
14348TIP3    H164459   3.214   6.669  14.670 -0.6439  1.0539 -0.2978
14348TIP3    H264460   3.157   6.686  14.810 -1.0252  1.2134 -0.4711
14349TIP3   OH264461   6.104   1.789  16.868 -0.1279 -0.6673  1.1011
14349TIP3    H164462   6.065   1.762  16.951  0.3296 -1.5713  1.0320
14349TIP3    H264463   6.123   1.707  16.823 -2.9175 -0.2537 -1.1368
14350TIP3   OH264464   5.451   0.567  13.882  0.3265 -0.3511  0.4453
14350TIP3    H164465   5.411   0.649  13.852 -0.0825 -0.9431 -0.7102
14350TIP3    H264466   5.393   0.499  13.847  1.0478 -1.1537  0.7930
14351TIP3   OH264467   3.521   0.996   4.344 -0.4634  0.0752 -0.0096
14351TIP3    H164468   3.585   0.963   4.407 -2.0366 -0.4509  1.3661
14351TIP3    H264469   3.482   1.072   4.385 -0.7367  0.3974 -0.8332
14352TIP3   OH264470   1.329   6.522  15.907  0.4013 -0.5307  0.3603
14352TIP3    H164471   1.370   6.449  15.953  0.1093 -1.0065 -0.1377
14352TIP3    H264472   1.402   6.581  15.886  0.6566 -0.7533  0.6043
14353TIP3   OH264473   5.184   2.326   3.795 -0.1429 -0.1226 -0.1800
14353TIP3    H164474   5.138   2.334   3.711  1.0308  0.4345 -0.7830
14353TIP3    H264475   5.276   2.339   3.773  0.2214 -0.3966  1.1418
14354TIP3   OH264476   5.702   4.514  12.850  0.4928 -0.0333  0.2024
14354TIP3    H164477   5.662   4.435  12.885  1.2852 -1.3962 -1.7809
14354TIP3    H264478   5.786   4.485  12.814  0.7912  1.6951 -0.6055
14355TIP3   OH264479   0.074   6.194  14.561  0.1023  0.2892 -0.0921
14355TIP3    H164480   0.105   6.128  14.622  0.8065 -0.1042 -0.8522
14355TIP3    H264481   0.109   6.276  14.594  0.7731  0.0338 -0.1534
14356TIP3   OH264482   6.165   4.825   3.059  0.9068  0.3757  0.1687
14356TIP3    H164483   6.211   4.753   3.015  2.6833  0.9961  0.9449
14356TIP3    H264484   6.077   4.791   3.073  0.8349 -0.5810 -2.0529
14357TIP3   OH264485   5.972   1.295  15.176 -0.3459 -0.2733 -0.1262
14357TIP3    H164486   5.904   1.268  15.115 -1.0265  1.3167 -0.1164
14357TIP3    H264487   6.037   1.225  15.172 -0.9604 -0.7941 -1.7392
14358TIP3   OH264488   5.538   3.440  13.935 -0.0614 -0.6076  0.1833
14358TIP3    H164489   5.517   3.458  13.844 -0.5186 -0.3775  0.3267
14358TIP3    H264490   5.467   3.384  13.966  0.0417 -0.6100  0.4217
14359TIP3   OH264491   3.690   5.351  14.686  0.0160 -0.5501 -0.2781
14359TIP3    H164492   3.609   5.322  14.645 -0.5580  0.7161 -0.0765
14359TIP3    H264493   3.664   5.421  14.746  0.7567 -2.5656  2.6205
14360TIP3   OH264494   2.037   3.212   3.278 -0.3541 -0.3217  0.7139
14360TIP3    H164495   2.017   3.281   3.215  0.7770 -0.8000 -0.2130
14360TIP3    H264496   2.129   3.191   3.262  0.3198  0.3079  3.2990
14361TIP3   OH264497   1.174   4.634   1.169  0.4965  0.2111  0.7200
14361TIP3    H164498   1.099   4.634   1.228  0.5651 -0.9974  0.8497
14361TIP3    H264499   1.249   4.615   1.226  0.4596 -1.8222  0.1871
14362TIP3   OH264500   0.163   1.930  15.709 -0.2816  0.0809  0.3542
14362TIP3    H164501   0.098   1.914  15.641 -1.3271  0.1041  1.3151
14362TIP3    H264502   0.145   1.863  15.775 -0.0965  0.8200  1.1777
14363TIP3   OH264503   5.112   2.897  16.317  0.3838  0.1309 -0.4094
14363TIP3    H164504   5.135   2.980  16.358 -1.3515 -0.1331  1.2896
14363TIP3    H264505   5.110   2.915  16.223 -0.1798  2.0788 -0.0634
14364TIP3   OH264506   1.319   5.645  14.488 -0.2283 -0.6059  0.5932
14364TIP3    H164507   1.257   5.699  14.440  0.3821 -0.8586 -0.5151
14364TIP3    H264508   1.383   5.618  14.422  1.8518  0.7548  1.9615
14365TIP3   OH264509   6.010   6.724  12.482 -0.9060  0.2544  0.3066
14365TIP3    H164510   6.061   6.785  12.536 -1.5938  0.5392  0.6555
14365TIP3    H264511   6.069   6.700  12.411 -0.7929  1.7672 -0.1416
14366TIP3   OH264512   5.862   2.195   2.526 -0.5843 -0.3353  0.5897
14366TIP3    H164513   5.834   2.212   2.436 -3.2889 -0.2380  1.3830
14366TIP3    H264514   5.892   2.104   2.524  3.3485  0.7650 -1.1912
14367TIP3   OH264515   0.013   1.499  16.954 -0.0389 -0.2101  0.2321
14367TIP3    H164516  -0.007   1.546  16.873  1.1009  0.4589  0.3303
14367TIP3    H264517   0.042   1.413  16.924  4.0321  1.1955 -0.3834
14368TIP3   OH264518   0.172   5.104   0.461 -0.1760 -0.1519 -0.1400
14368TIP3    H164519   0.239   5.076   0.522  0.4327  1.4813 -0.0012
14368TIP3    H264520   0.124   5.173   0.508 -1.1121 -0.4047 -0.7036
14369TIP3   OH264521   1.260   0.290  16.921  0.1575  0.0507 -0.0803
14369TIP3    H164522   1.330   0.229  16.902  0.1665 -0.0462  0.2526
14369TIP3    H264523   1.274   0.364  16.861 -0.0534 -0.4236 -0.7208
14370TIP3   OH264524   1.661   1.900  15.447  0.1907  0.6974  0.3558
14370TIP3    H164525   1.670   1.943  15.362  0.3640 -0.2493 -0.1211
14370TIP3    H264526   1.751   1.877  15.472  0.1120  0.7161  0.6660
14371TIP3   OH264527   4.832   3.780  15.092  0.1143  0.0831 -0.2356
14371TIP3    H164528   4.842   3.775  14.996  2.4379  1.7824 -0.1458
14371TIP3    H264529   4.760   3.841  15.105  1.6447  2.1506 -0.9538
14372TIP3   OH264530   0.806   1.460  16.355  0.1733 -0.5167  0.1206
14372TIP3    H164531   0.792   1.421  16.269  0.8806 -0.8921  0.1644
14372TIP3    H264532   0.751   1.538  16.355  0.2823 -0.4258 -0.7307
14373TIP3   OH264533   4.198   1.838   4.599  0.3694 -0.0511  1.0233
14373TIP3    H164534   4.197   1.926   4.560  0.3225 -0.8595 -0.8924
14373TIP3    H264535   4.290   1.820   4.615  1.0061 -1.4378 -3.0627
14374TIP3   OH264536   0.188   2.236   1.947 -0.6882  0.0470 -0.3617
14374TIP3    H164537   0.175   2.262   1.856 -1.6990  3.1231  0.5328
14374TIP3    H264538   0.114   2.178   1.966 -0.5090 -0.5664 -1.4071
14375TIP3   OH264539   0.632   5.932  15.629 -0.4050 -0.7258 -0.0274
14375TIP3    H164540   0.641   6.023  15.659 -2.2055 -0.2209 -0.8999
14375TIP3    H264541   0.722   5.902  15.621  0.2659  1.1493 -0.1854
14376TIP3   OH264542   1.888   4.799  15.210 -0.0459  0.4225 -0.3584
14376TIP3    H164543   1.857   4.884  15.181 -1.2152 -0.5726 -2.1843
14376TIP3    H264544   1.843   4.785  15.294  1.1078  2.0767  0.5894
14377TIP3   OH264545   1.251   2.196  12.364  0.3675 -0.2773 -0.1069
14377TIP3    H164546   1.166   2.223  12.329  0.4218  0.8269  0.5621
14377TIP3    H264547   1.303   2.175  12.287 -0.3820 -0.5591 -0.5432
14378TIP3   OH264548   1.695   1.553  15.589  0.1482 -0.5679 -0.7681
14378TIP3    H164549   1.721   1.609  15.663 -0.3453  2.1167 -2.4798
14378TIP3    H264550   1.770   1.496  15.574  1.2331  0.5196  0.2659
14379TIP3   OH264551   5.674   4.946   5.364 -0.2648 -0.0287  0.2838
14379TIP3    H164552   5.722   5.030   5.364  2.5103 -1.4887 -0.0418
14379TIP3    H264553   5.607   4.957   5.431  1.0479  1.9431  1.3770
14380TIP3   OH264554   6.073   2.179   4.503 -0.1352 -0.0727  0.3724
14380TIP3    H164555   6.165   2.165   4.478 -0.0689 -0.8192  0.9662
14380TIP3    H264556   6.023   2.130   4.439 -0.1122  0.2054  0.1404
14381TIP3   OH264557   4.703   3.893  12.212  0.0741  0.2015  0.0047
14381TIP3    H164558   4.627   3.937  12.250 -1.1888 -0.5635 -1.5460
14381TIP3    H264559   4.727   3.947  12.137  0.3091 -0.1985 -0.2102
14382TIP3   OH264560   3.856   0.309  11.351 -0.5656  0.5911  0.0668
14382TIP3    H164561   3.872   0.289  11.259  1.9243 -1.1351  0.7879
14382TIP3    H264562   3.885   0.399  11.361 -0.7318  0.7506 -0.7892
14383TIP3   OH264563   2.645   1.219   4.609 -0.1466 -1.3022 -0.2543
14383TIP3    H164564   2.724   1.166   4.602 -0.7729 -2.1828 -0.8506
14383TIP3    H264565   2.596   1.201   4.528  0.2520  1.2550 -1.1617
14384TIP3   OH264566   1.824   2.499   4.763 -0.5071  0.5264  0.0348
14384TIP3    H164567   1.756   2.567   4.765  0.9380  2.0652 -0.4758
14384TIP3    H264568   1.891   2.534   4.703 -0.3006 -1.9836 -1.3034
14385TIP3   OH264569   6.182   0.851   4.126  0.2541 -0.1473  0.4553
14385TIP3    H164570   6.185   0.773   4.071  0.5279  0.6498 -0.6937
14385TIP3    H264571   6.269   0.855   4.166  0.2560 -0.4046  0.4768
14386TIP3   OH264572   2.014   3.283  15.071 -0.6247  0.0036 -0.2426
14386TIP3    H164573   1.974   3.224  15.136 -1.5847  2.0761  1.1526
14386TIP3    H264574   1.951   3.286  14.999 -0.1334 -1.3329 -0.7709
14387TIP3   OH264575   0.876   0.860  15.126  0.0272 -0.1890  0.2547
14387TIP3    H164576   0.924   0.900  15.054  0.5512  0.1123  0.7666
14387TIP3    H264577   0.879   0.766  15.107  1.2918 -0.2325  0.5475
14388TIP3   OH264578   2.394   5.499   0.717 -0.4785 -0.0475 -0.1490
14388TIP3    H164579   2.397   5.558   0.792 -0.6427 -0.3931  0.1322
14388TIP3    H264580   2.347   5.422   0.749  1.7682 -1.3602  0.2328
14389TIP3   OH264581   5.033   1.329  16.385  0.0459  0.6603 -0.1729
14389TIP3    H164582   5.079   1.389  16.444  2.2305 -0.0967 -1.0347
14389TIP3    H264583   5.056   1.242  16.417 -1.4582  0.2191 -0.1825
14390TIP3   OH264584   1.948   0.097  16.909 -0.0655 -0.1714  0.2627
14390TIP3    H164585   2.005   0.024  16.885  0.0549  0.2796 -0.8743
14390TIP3    H264586   1.873   0.090  16.850 -0.5865 -0.0179  0.8926
14391TIP3   OH264587   5.503   3.614  14.707 -0.0330 -0.4439  0.4299
14391TIP3    H164588   5.423   3.662  14.687  0.2518 -0.1480 -0.0193
14391TIP3    H264589   5.566   3.643  14.641 -0.3308 -2.6895 -0.9415
14392TIP3   OH264590   3.052   1.309   3.378 -0.0995 -0.0081 -0.1879
14392TIP3    H164591   2.986   1.374   3.402  0.1993  1.7664 -3.6152
14392TIP3    H264592   3.015   1.263   3.302  1.9110 -0.0343 -1.2316
14393TIP3   OH264593   5.880   6.143   2.470 -0.1648 -0.0634  0.0512
14393TIP3    H164594   5.953   6.106   2.420 -0.0047  0.8256 -0.3855
14393TIP3    H264595   5.802   6.109   2.426 -0.0210 -0.3956  0.0476
14394TIP3   OH264596   2.201   0.970  12.878 -0.3091  0.0627 -0.3089
14394TIP3    H164597   2.203   0.876  12.893  1.3057  0.2761  1.1830
14394TIP3    H264598   2.264   0.984  12.807  1.0890  0.1689  0.8934
14395TIP3   OH264599   5.424   3.360   5.369  0.4158 -0.0900  0.2153
14395TIP3    H164600   5.404   3.341   5.277  0.7004 -0.0418  0.1438
14395TIP3    H264601   5.376   3.293   5.418 -0.4526  0.4192  0.0785
14396TIP3   OH264602   5.583   2.105   4.012  0.1948 -0.1407  0.0912
14396TIP3    H164603   5.619   2.071   3.929  1.4944  3.5430 -1.0174
14396TIP3    H264604   5.489   2.098   4.000  0.2888  1.4036 -2.3265
14397TIP3   OH264605   2.152   4.509  16.248  0.0383 -0.1231  0.6575
14397TIP3    H164606   2.179   4.600  16.259  1.2275 -0.2944 -0.5311
14397TIP3    H264607   2.229   4.458  16.275  0.9403 -0.6451 -2.4960
14398TIP3   OH264608   6.638   1.825  14.929  0.0111  0.0545 -0.0852
14398TIP3    H164609   6.651   1.837  14.835 -2.8641  0.3323 -0.5374
14398TIP3    H264610   6.718   1.860  14.969  0.7788  1.0919 -2.3394
14399TIP3   OH264611   0.181   1.827  16.834  0.1714  0.4659  0.3540
14399TIP3    H164612   0.221   1.914  16.832 -0.6851  0.9523 -3.5009
14399TIP3    H264613   0.244   1.773  16.883  0.9556  3.0618  2.4491
14400TIP3   OH264614   6.298   4.051  17.231 -0.0515 -0.0161 -0.0803
14400TIP3    H164615   6.231   3.993  17.195 -0.5000  1.0215 -0.9893
14400TIP3    H264616   6.330   4.101  17.155  0.3528  0.8791  0.6605
14401TIP3   OH264617   1.593   4.918   3.239 -0.7559  0.2072  0.5611
14401TIP3    H164618   1.665   4.947   3.296 -1.7365  0.4665  1.6979
14401TIP3    H264619   1.637   4.872   3.168  0.6488  1.6011  0.4515
14402TIP3   OH264620   4.784   2.208  11.966  0.0115 -0.0286  0.4015
14402TIP3    H164621   4.710   2.163  11.924 -0.4054  0.4189  0.6373
14402TIP3    H264622   4.831   2.140  12.012 -0.7109 -0.2032  0.9002
14403TIP3   OH264623   6.411   1.527   4.454 -0.0328  0.2467 -0.0794
14403TIP3    H164624   6.316   1.526   4.444  0.0601 -0.5915 -1.0243
14403TIP3    H264625   6.425   1.530   4.549 -0.9646  2.9671  0.0576
14404TIP3   OH264626   6.155   2.328  14.527  0.1389  0.5574 -0.4034
14404TIP3    H164627   6.160   2.296  14.437 -1.0200  0.6846 -0.5206
14404TIP3    H264628   6.199   2.260  14.579 -0.9645 -0.5222 -0.8277
14405TIP3   OH264629   3.505   3.462   5.868  0.2210  0.5916 -0.4499
14405TIP3    H164630   3.541   3.545   5.900 -0.2416  0.9065 -0.7302
14405TIP3    H264631   3.411   3.477   5.865 -0.0231 -0.4381  0.9068
14406TIP3   OH264632   2.760   5.274  13.695  0.3058 -0.0330 -0.0495
14406TIP3    H164633   2.743   5.355  13.742  1.3492  0.0329  0.2470
14406TIP3    H264634   2.674   5.232  13.687 -0.1247  0.7278  0.4781
14407TIP3   OH264635   3.667   2.519  14.577  0.4550 -0.3857 -0.1636
14407TIP3    H164636   3.615   2.443  14.602 -0.8518  0.6416  0.3937
14407TIP3    H264637   3.706   2.550  14.658 -1.8158  1.5148  0.2990
14408TIP3   OH264638   3.580   2.981   3.014 -0.1376 -0.0898  0.0882
14408TIP3    H164639   3.525   2.907   2.989  0.4163 -0.1636 -0.9600
14408TIP3    H264640   3.519   3.055   3.017 -0.7490 -0.6230  1.4481
14409TIP3   OH264641   4.078   1.274   4.018 -0.5815 -0.2478  0.2615
14409TIP3    H164642   4.138   1.326   4.072 -1.3872  1.1313 -0.1021
14409TIP3    H264643   4.134   1.211   3.973  0.6841  1.2280 -0.3387
14410TIP3   OH264644   1.429   2.970  15.653  1.8138 -0.3459 -0.0664
14410TIP3    H164645   1.393   2.884  15.674 -0.6349  0.4859 -0.6298
14410TIP3    H264646   1.452   2.964  15.561  2.1118 -0.5299  0.0166
14411TIP3   OH264647   6.379   0.616   0.522 -0.3623  0.1195  0.1567
14411TIP3    H164648   6.378   0.681   0.592  1.7245 -1.1245  1.4574
14411TIP3    H264649   6.327   0.656   0.451  1.2071  3.4204  0.6645
14412TIP3   OH264650   3.856   0.764   2.587  0.0111  0.6344 -0.1463
14412TIP3    H164651   3.950   0.746   2.592 -0.2510 -1.5146 -1.4881
14412TIP3    H264652   3.850   0.844   2.535  1.1317  2.0897  1.8457
14413TIP3   OH264653   5.546   5.619  12.546  0.8933 -0.5255 -0.0223
14413TIP3    H164654   5.587   5.704  12.531  1.2005 -0.6235  0.2356
14413TIP3    H264655   5.540   5.579  12.460  0.5928 -0.1756 -0.1679
14414TIP3   OH264656   4.694   6.435   2.379  0.1795  0.1436 -0.3934
14414TIP3    H164657   4.754   6.505   2.356  0.5006  0.4827  1.3590
14414TIP3    H264658   4.751   6.360   2.400  0.0756  0.5625  1.5945
14415TIP3   OH264659   5.824   0.368   5.206  0.3428  0.3662 -0.2680
14415TIP3    H164660   5.775   0.326   5.276 -0.1181 -0.7964 -1.2574
14415TIP3    H264661   5.907   0.320   5.202  0.6169  0.8208 -0.1291
14416TIP3   OH264662   2.348   4.324   3.974 -0.1345  0.1228 -0.2985
14416TIP3    H164663   2.295   4.397   3.942 -1.6773 -0.4454  0.8031
14416TIP3    H264664   2.438   4.349   3.955 -0.7710  1.1419 -2.2706
14417TIP3   OH264665   1.776   6.261   3.220  0.2785  0.4395  1.0380
14417TIP3    H164666   1.701   6.241   3.165  0.1064  2.2151  0.5611
14417TIP3    H264667   1.775   6.194   3.289 -3.0060  1.6036  2.3006
14418TIP3   OH264668   2.054   4.370   4.533 -0.4504  0.0382 -0.5487
14418TIP3    H164669   1.988   4.402   4.595  0.0237  0.1507 -0.0902
14418TIP3    H264670   2.084   4.448   4.487  1.4807  0.5082  1.3166
14419TIP3   OH264671   2.032   4.996  14.325  0.2890 -0.3678  0.0387
14419TIP3    H164672   1.947   5.014  14.285  0.6277 -2.2448 -1.7264
14419TIP3    H264673   2.093   5.054  14.280  0.0293  0.8317  1.1625
14420TIP3   OH264674   2.706   2.390   4.924  0.9256  0.2922  0.1779
14420TIP3    H164675   2.758   2.424   4.997 -0.8852 -0.6821  2.0055
14420TIP3    H264676   2.652   2.465   4.897  0.9490  0.4153  0.4622
14421TIP3   OH264677   1.636   1.289   4.931  0.0206 -0.1131 -0.2042
14421TIP3    H164678   1.650   1.344   5.008  1.6301 -2.2788  1.1725
14421TIP3    H264679   1.622   1.351   4.860 -1.6256  1.9968  1.7811
14422TIP3   OH264680   4.159   4.590  13.695 -0.8606  0.3588  0.1202
14422TIP3    H164681   4.219   4.515  13.696 -0.7740  0.4206 -0.3260
14422TIP3    H264682   4.204   4.656  13.644 -1.4916  0.2524 -0.5876
14423TIP3   OH264683   0.333   2.702   5.828  0.3914 -0.2398 -0.0970
14423TIP3    H164684   0.248   2.695   5.784  0.0905  1.5554  0.1506
14423TIP3    H264685   0.393   2.733   5.760  1.4362 -3.5269 -0.8734
14424TIP3   OH264686   0.123   2.786   6.677  0.1410  0.7260 -0.4692
14424TIP3    H164687   0.080   2.790   6.763  0.4737  2.2102 -0.3588
14424TIP3    H264688   0.097   2.867   6.633 -0.1081 -0.0572 -1.8315
14425TIP3   OH264689   5.758   3.186   4.376 -0.3240 -0.1099  0.4224
14425TIP3    H164690   5.700   3.246   4.424  0.0554 -0.7307  1.7061
14425TIP3    H264691   5.764   3.109   4.432 -2.1459 -2.1283 -1.9198
14426TIP3   OH264692   4.074   5.206  15.307 -0.4970  0.2568  0.4004
14426TIP3    H164693   4.164   5.233  15.287 -0.3252  1.1594  2.1229
14426TIP3    H264694   4.053   5.141  15.241  2.5122 -2.2474  1.6084
14427TIP3   OH264695   1.406   0.282   5.220  0.4741  0.3320  0.2387
14427TIP3    H164696   1.359   0.302   5.301 -0.8916 -1.2780 -0.0882
14427TIP3    H264697   1.470   0.215   5.246 -0.1710 -0.4073 -0.0442
14428TIP3   OH264698   0.657   0.861  15.915 -0.4158  0.2157  0.6820
14428TIP3    H164699   0.639   0.792  15.979 -1.8659  0.8975  1.0461
14428TIP3    H264700   0.750   0.883  15.928  0.1205 -1.7599  0.4271
14429TIP3   OH264701   0.879   2.221  15.205  1.0107 -0.1944  0.3335
14429TIP3    H164702   0.818   2.160  15.244  0.3085  0.7274  0.7108
14429TIP3    H264703   0.911   2.176  15.126 -0.2114 -0.6595  0.0835
14430TIP3   OH264704   0.043   1.272  15.292  0.0196 -0.3696 -0.0720
14430TIP3    H164705   0.028   1.205  15.225 -0.7021 -0.1083 -0.1846
14430TIP3    H264706   0.005   1.235  15.372 -2.7355  0.8637 -0.6567
14431TIP3   OH264707   3.190   5.175  15.744 -0.7152  0.3324  0.5058
14431TIP3    H164708   3.120   5.188  15.679 -0.2016 -0.8387 -0.3123
14431TIP3    H264709   3.233   5.261  15.750 -0.1943  0.2524 -1.4227
14432TIP3   OH264710   1.701   5.022  15.644  0.4900  0.7924  0.0075
14432TIP3    H164711   1.638   4.995  15.710 -0.1093  1.1697 -0.4100
14432TIP3    H264712   1.760   5.082  15.690  0.2901  0.7763  0.2830
14433TIP3   OH264713   5.985   4.776  16.312 -0.6155  0.1135  0.1540
14433TIP3    H164714   5.904   4.826  16.327  0.4298  2.6498 -1.8861
14433TIP3    H264715   6.000   4.730  16.394 -2.4286  2.1444  1.7549
14434TIP3   OH264716   1.247   0.958  14.933  0.4415 -0.2134  0.3948
14434TIP3    H164717   1.293   0.888  14.889 -1.7832 -1.9166  0.6005
14434TIP3    H264718   1.277   0.954  15.024  2.7596  1.3334 -0.2200
14435TIP3   OH264719   0.276   0.985  10.600 -0.2780 -0.1803 -0.2198
14435TIP3    H164720   0.189   0.981  10.561  0.3960  0.0130 -1.8286
14435TIP3    H264721   0.288   1.077  10.623  0.5383  0.3801 -2.6156
14436TIP3   OH264722   2.185   6.625   5.706  0.5785  0.4148  0.7878
14436TIP3    H164723   2.229   6.661   5.629 -0.0862 -0.6497 -0.1234
14436TIP3    H264724   2.257   6.591   5.761  0.9643 -0.7834 -0.4081
14437TIP3   OH264725   5.546   3.116  13.549 -0.3724  0.0027  0.1809
14437TIP3    H164726   5.564   3.114  13.643 -0.4193  1.1308  0.2259
14437TIP3    H264727   5.549   3.209  13.526 -0.9050 -0.2193 -0.8309
14438TIP3   OH264728   4.979   3.392   3.489 -0.0157 -0.1251 -0.1172
14438TIP3    H164729   4.940   3.436   3.564  0.8640 -1.1663  1.0054
14438TIP3    H264730   4.987   3.459   3.422  2.0030  1.6959  1.7828
14439TIP3   OH264731   5.472   6.685   3.047 -0.0853 -0.2308  0.9364
14439TIP3    H164732   5.557   6.652   3.019 -0.5983 -3.3995  2.7060
14439TIP3    H264733   5.491   6.736   3.126  0.2569 -0.0580  0.7452
14440TIP3   OH264734   5.312   4.161   3.841  0.4917  0.2646 -0.3099
14440TIP3    H164735   5.278   4.245   3.874  1.5539  0.7007 -0.2713
14440TIP3    H264736   5.359   4.185   3.760 -1.1341 -0.6282 -1.5770
14441TIP3   OH264737   0.888   4.939   2.992  0.2496  0.3183  0.2834
14441TIP3    H164738   0.963   4.999   2.989  1.2293 -0.8939 -0.7790
14441TIP3    H264739   0.816   4.988   2.953  0.4416  1.5342  1.3831
14442TIP3   OH264740   3.291   6.149   6.297 -0.5568 -0.1584  0.1878
14442TIP3    H164741   3.329   6.111   6.218  0.2439 -0.8004  0.8680
14442TIP3    H264742   3.335   6.234   6.306 -0.4257 -0.2169  0.1062
14443TIP3   OH264743   0.333   5.508  17.485  0.9152 -0.3278  0.2998
14443TIP3    H164744   0.324   5.413  17.496  2.4490 -0.5620 -0.1866
14443TIP3    H264745   0.281   5.545  17.556 -1.5110 -1.4535 -0.7923
14444TIP3   OH264746   0.037   0.555   3.209  0.2529  0.0008 -0.5780
14444TIP3    H164747  -0.022   0.537   3.282  2.1831  0.1952  1.1190
14444TIP3    H264748   0.071   0.643   3.226  0.4131  0.2281 -1.9643
14445TIP3   OH264749   6.013   5.669   1.819  0.1701  0.6068 -0.8151
14445TIP3    H164750   6.064   5.594   1.848 -1.9380 -0.0663  1.3965
14445TIP3    H264751   6.058   5.745   1.858 -0.8063 -0.0288  1.7336
14446TIP3   OH264752   2.557   6.317   3.501  0.2575  0.1304  0.1566
14446TIP3    H164753   2.476   6.367   3.507 -0.7822 -1.4073 -0.4847
14446TIP3    H264754   2.536   6.232   3.539  1.3601 -0.5217 -0.6339
14447TIP3   OH264755   3.011   0.379   3.662 -0.1478 -0.3806  0.5659
14447TIP3    H164756   2.968   0.432   3.594 -1.1693  0.0738  1.5348
14447TIP3    H264757   3.094   0.352   3.622  1.2048  3.2626  0.5064
14448TIP3   OH264758   3.896   2.931   0.862 -0.6675  0.1820  0.8737
14448TIP3    H164759   3.901   3.025   0.877 -0.0984  0.3616 -0.3240
14448TIP3    H264760   3.967   2.895   0.916 -1.1097  0.3918  1.6084
14449TIP3   OH264761   6.323   5.689   5.547 -0.5089  0.1031  0.0177
14449TIP3    H164762   6.272   5.617   5.511 -0.0053 -0.2025 -0.0911
14449TIP3    H264763   6.394   5.647   5.595 -0.3015  0.5235  0.0829
14450TIP3   OH264764   1.502   2.046   5.049  0.6932 -0.2004  0.1288
14450TIP3    H164765   1.579   2.016   5.001  0.2311 -0.9344 -0.1837
14450TIP3    H264766   1.510   2.005   5.135  0.6593 -0.2655  0.1010
14451TIP3   OH264767   1.551   0.618   0.571  0.5745  0.5174  0.1837
14451TIP3    H164768   1.534   0.531   0.535  1.1781  0.0822  0.9325
14451TIP3    H264769   1.560   0.674   0.494  0.3597 -0.1176 -0.3104
14452TIP3   OH264770   3.122   0.261   1.279  0.2953  0.3427 -0.1989
14452TIP3    H164771   3.084   0.225   1.198  0.2014 -0.9614  0.4136
14452TIP3    H264772   3.046   0.290   1.329  0.4108  2.3604 -1.0926
14453TIP3   OH264773   5.081   4.507   6.470  0.0085  0.1007  0.4975
14453TIP3    H164774   5.133   4.584   6.449  1.6669 -0.7465  1.2828
14453TIP3    H264775   5.031   4.489   6.389  2.8688 -0.4901 -1.2972
14454TIP3   OH264776   3.332   1.218   0.554  0.5375 -0.5870 -0.6064
14454TIP3    H164777   3.425   1.203   0.539  0.6375 -0.1389 -0.4498
14454TIP3    H264778   3.329   1.292   0.615  0.0739 -0.3292 -0.9364
14455TIP3   OH264779   4.233   3.806  16.852  0.1584  0.6685 -0.1367
14455TIP3    H164780   4.325   3.814  16.825  0.6314 -1.5853  0.5567
14455TIP3    H264781   4.183   3.813  16.770  1.1328 -0.2684 -0.8448
14456TIP3   OH264782   2.414   1.928   3.315 -0.2456 -0.2596 -0.0756
14456TIP3    H164783   2.503   1.915   3.282  0.0292  1.2783 -0.0166
14456TIP3    H264784   2.365   1.962   3.240 -0.3440  0.5178  0.3338
14457TIP3   OH264785   1.380   1.646   3.952  0.6295 -0.4176  0.0306
14457TIP3    H164786   1.439   1.699   3.899  0.4670 -0.2284  0.0353
14457TIP3    H264787   1.376   1.691   4.037 -0.8017  0.5126 -0.4900
14458TIP3   OH264788   2.098   2.172   2.183 -0.2560  0.5138  0.4755
14458TIP3    H164789   2.070   2.140   2.097  0.2344 -3.7131  1.6611
14458TIP3    H264790   2.194   2.167   2.181 -0.2496 -0.0238  1.3405
14459TIP3   OH264791   1.090   1.214   5.799  0.5054  0.7562  0.0130
14459TIP3    H164792   1.110   1.286   5.858  2.3118 -0.2274  0.7072
14459TIP3    H264793   1.017   1.245   5.745 -1.1014  1.7692  2.5965
14460TIP3   OH264794   4.371   5.701  12.284 -0.0617 -0.5013  0.1363
14460TIP3    H164795   4.346   5.787  12.251  1.0215 -0.3525 -0.3254
14460TIP3    H264796   4.368   5.711  12.379 -0.4893 -0.1183  0.0888
14461TIP3   OH264797   6.248   5.003   2.861  0.5650  0.1351  0.0085
14461TIP3    H164798   6.339   5.001   2.891  0.6358  0.5170 -0.1698
14461TIP3    H264799   6.199   4.953   2.926  0.7957  0.5144  0.4710
14462TIP3   OH264800   5.401   5.896  14.804  0.2241 -0.3270  0.0911
14462TIP3    H164801   5.426   5.804  14.797 -0.6497 -0.6171  0.6207
14462TIP3    H264802   5.327   5.906  14.744 -0.2820 -0.2068  0.7154
14463TIP3   OH264803   3.486   4.683   3.297  0.1912  0.5380  0.0186
14463TIP3    H164804   3.455   4.615   3.236  0.2088 -0.7018  1.3311
14463TIP3    H264805   3.542   4.636   3.359  2.2114  2.1992 -0.4362
14464TIP3   OH264806   5.867   5.937  13.375 -0.9012 -0.2790 -0.2682
14464TIP3    H164807   5.811   5.896  13.309 -0.6514 -2.6266  0.8697
14464TIP3    H264808   5.948   5.887  13.373 -1.3639 -1.3671  2.6731
14465TIP3   OH264809   2.800   0.102   4.662 -0.0882  0.0184  0.3202
14465TIP3    H164810   2.738   0.167   4.629  0.2562 -0.0488 -0.4950
14465TIP3    H264811   2.755   0.060   4.736 -0.2531  1.2829  0.9603
14466TIP3   OH264812   3.178   3.864   2.393  0.3391 -0.5180  0.2765
14466TIP3    H164813   3.184   3.787   2.337 -0.2522 -0.9106  0.7413
14466TIP3    H264814   3.195   3.831   2.481 -1.0096 -0.3244  0.6243
14467TIP3   OH264815   6.472   2.154   3.060  0.0695 -0.3579 -0.2144
14467TIP3    H164816   6.413   2.083   3.085 -1.6038  0.9788 -0.1887
14467TIP3    H264817   6.555   2.131   3.102 -0.7468 -1.6913  0.7643
14468TIP3   OH264818   2.176   2.338   2.800  0.7408  0.1937 -0.2463
14468TIP3    H164819   2.103   2.369   2.853 -2.4645 -1.3214 -3.3564
14468TIP3    H264820   2.180   2.399   2.726  2.4143  0.0042 -0.3662
14469TIP3   OH264821   5.371   1.341   5.137  0.3710 -0.3312 -0.2549
14469TIP3    H164822   5.460   1.365   5.110 -0.7733  1.1360 -3.1493
14469TIP3    H264823   5.354   1.397   5.213  1.5569  0.1623 -0.3238
14470TIP3   OH264824   4.027   2.380   1.228 -0.0869 -0.0710  0.1317
14470TIP3    H164825   4.031   2.383   1.324  2.3554  1.2389  0.0589
14470TIP3    H264826   4.009   2.288   1.207 -1.3551 -0.2571  1.8161
14471TIP3   OH264827   2.739   2.084   4.252 -0.1083 -0.5631 -0.1810
14471TIP3    H164828   2.784   2.000   4.257 -1.3311 -1.3316 -1.2427
14471TIP3    H264829   2.750   2.112   4.161 -2.4651 -1.2469 -0.7521
14472TIP3   OH264830   5.009   4.738   2.172  0.2076 -0.2199 -0.0428
14472TIP3    H164831   4.930   4.782   2.140 -0.2626 -1.6828 -1.0069
14472TIP3    H264832   5.029   4.674   2.104  0.9451 -1.3904  1.2363
14473TIP3   OH264833   4.539   5.503   4.208 -0.1103  0.3930 -0.5041
14473TIP3    H164834   4.630   5.533   4.217 -0.9236  2.7705  0.5398
14473TIP3    H264835   4.497   5.570   4.153 -1.4056 -0.2987 -0.3953
14474TIP3   OH264836   1.738   4.447  13.153  0.3620  0.1240  0.3600
14474TIP3    H164837   1.658   4.395  13.148 -0.3509  1.2791 -2.7624
14474TIP3    H264838   1.718   4.517  13.215 -0.7458 -0.0730  0.2405
14475TIP3   OH264839   5.200   0.069  14.882  0.0497  0.0184  0.1703
14475TIP3    H164840   5.285   0.026  14.895 -0.2414 -0.8025 -0.5306
14475TIP3    H264841   5.159   0.065  14.969  0.9337  0.9225  0.6514
14476TIP3   OH264842   2.926   3.190  16.003  0.3748  0.1751  0.2256
14476TIP3    H164843   2.968   3.146  15.929  3.8660  0.7299  1.6820
14476TIP3    H264844   2.935   3.129  16.076 -1.1277  0.4686  0.6781
14477TIP3   OH264845   1.512   3.969   1.731 -0.0334  0.0337 -0.1451
14477TIP3    H164846   1.485   3.886   1.691 -0.2852  0.8448 -1.7259
14477TIP3    H264847   1.593   3.948   1.777 -0.6886 -1.3322  0.4416
14478TIP3   OH264848   6.028   0.768  10.927 -0.8852 -0.1659  0.6654
14478TIP3    H164849   6.007   0.851  10.883 -1.3498 -0.5415  0.1696
14478TIP3    H264850   6.122   0.776  10.947 -0.7815  0.2261  0.0654
14479TIP3   OH264851   4.425   3.163   4.937 -0.3583 -0.6511  0.3300
14479TIP3    H164852   4.379   3.218   5.001 -0.4519 -0.5496  0.1754
14479TIP3    H264853   4.517   3.183   4.950 -0.3056 -1.2913  1.0560
14480TIP3   OH264854   5.267   2.381  12.097 -0.3555 -0.3158  0.1901
14480TIP3    H164855   5.238   2.292  12.119  1.9922 -1.6557 -1.6915
14480TIP3    H264856   5.350   2.391  12.143 -0.4568  0.8154  0.1469
14481TIP3   OH264857   1.460   0.306   1.453  0.3346  0.2783  0.0205
14481TIP3    H164858   1.495   0.361   1.523 -0.8316  1.2443 -0.1399
14481TIP3    H264859   1.408   0.240   1.498 -0.6441  1.0658  0.0766
14482TIP3   OH264860   1.265   2.402  12.535  0.3263  0.1791  0.5534
14482TIP3    H164861   1.279   2.322  12.484  1.0477  0.3559  0.4649
14482TIP3    H264862   1.171   2.404  12.552  0.4395 -1.1991  1.4066
14483TIP3   OH264863   1.318   4.257   1.390  0.2296 -0.2083 -0.2567
14483TIP3    H164864   1.326   4.187   1.325 -2.3231 -0.7748 -0.0882
14483TIP3    H264865   1.313   4.211   1.474  0.3488  0.2950  0.0301
14484TIP3   OH264866   5.489   3.256   2.427 -0.2989 -0.3855 -0.5247
14484TIP3    H164867   5.433   3.332   2.410  0.4361  0.3409  0.2290
14484TIP3    H264868   5.485   3.205   2.345 -0.8231  0.4411 -1.0305
14485TIP3   OH264869   4.024   5.210   1.488  0.1820  0.1996  0.3523
14485TIP3    H164870   4.014   5.246   1.400 -0.1561 -0.3976  0.1395
14485TIP3    H264871   3.981   5.275   1.545  0.0223  0.3788  0.0324
14486TIP3   OH264872   6.047   6.336   5.860  0.4895  0.1165 -0.2278
14486TIP3    H164873   6.023   6.244   5.855  2.6542 -0.7501  2.6072
14486TIP3    H264874   6.088   6.346   5.946  3.3289  2.9661 -1.6623
14487TIP3   OH264875   6.266   2.764   0.734  0.0647 -0.3302  0.3008
14487TIP3    H164876   6.314   2.844   0.758  0.7006 -1.1978  2.1504
14487TIP3    H264877   6.269   2.711   0.813  0.2340 -2.4742 -1.0765
14488TIP3   OH264878   0.183   6.529  11.304 -0.0842 -0.9596  0.9522
14488TIP3    H164879   0.217   6.440  11.307 -1.7225 -1.7279 -0.9436
14488TIP3    H264880   0.145   6.537  11.217  0.3823  1.7663  0.9113
14489TIP3   OH264881   2.754   4.693   0.624 -0.3615 -0.2431  0.1375
14489TIP3    H164882   2.727   4.753   0.554  1.3276 -1.6007 -1.7981
14489TIP3    H264883   2.672   4.654   0.655 -1.0896 -0.4201 -1.8935
14490TIP3   OH264884   0.371   5.403   6.862  0.2607 -0.0568 -0.2146
14490TIP3    H164885   0.377   5.421   6.768 -1.0952  1.1950 -0.0969
14490TIP3    H264886   0.380   5.308   6.869 -2.4554 -0.5411 -1.9244
14491TIP3   OH264887   2.789   6.071   0.570  0.1889  0.0169 -0.7325
14491TIP3    H164888   2.790   6.159   0.532 -0.3933 -0.0789 -0.9949
14491TIP3    H264889   2.789   6.085   0.664  1.0353  0.2728 -0.7611
14492TIP3   OH264890   3.283   2.423   3.199  0.2189  0.2018  0.1183
14492TIP3    H164891   3.188   2.412   3.188 -0.1697  1.6871  1.5489
14492TIP3    H264892   3.314   2.336   3.225 -0.3751 -0.8079 -2.2836
14493TIP3   OH264893   2.574   1.804   5.441  0.1678  0.5200 -0.6990
14493TIP3    H164894   2.518   1.881   5.434  1.4312  1.6513  1.1134
14493TIP3    H264895   2.663   1.838   5.439  0.7592 -0.6313  2.0611
14494TIP3   OH264896   0.263   3.759   5.030 -0.2051  0.6761  0.2307
14494TIP3    H164897   0.217   3.696   5.085  0.9987  1.0194  1.7121
14494TIP3    H264898   0.265   3.719   4.944  0.4535 -1.2869  1.0946
14495TIP3   OH264899   5.108   6.462   2.357  0.4700  0.1964 -0.1916
14495TIP3    H164900   5.129   6.512   2.278 -1.7548 -2.3601 -2.6050
14495TIP3    H264901   5.023   6.496   2.385  0.5475  0.0668  0.2081
14496TIP3   OH264902   3.444   0.139  14.827  0.6856  0.0042  0.3839
14496TIP3    H164903   3.354   0.108  14.818  1.2176 -1.2279 -1.0825
14496TIP3    H264904   3.438   0.213  14.888 -1.4343  0.5798 -0.4493
14497TIP3   OH264905   5.229   6.062   1.745 -0.7593  0.5175 -0.0761
14497TIP3    H164906   5.208   6.136   1.802 -1.6990  0.3891 -0.2528
14497TIP3    H264907   5.203   6.091   1.658 -0.5160  0.2252 -0.2469
14498TIP3   OH264908   0.868   1.337   0.368 -0.2760  0.4083 -0.0668
14498TIP3    H164909   0.938   1.272   0.374 -0.4363  0.1912 -0.5065
14498TIP3    H264910   0.788   1.286   0.362 -0.5899  0.6523  1.5128
14499TIP3   OH264911   2.054   4.993   2.291  0.1500 -0.5076  0.5914
14499TIP3    H164912   2.027   4.926   2.228  1.0481 -1.2145  0.9274
14499TIP3    H264913   2.137   5.026   2.256 -0.3851  0.5870  0.3252
14500TIP3   OH264914   2.822   5.956  11.667 -0.3718 -0.5328 -0.0076
14500TIP3    H164915   2.861   6.011  11.599 -1.5842  0.5612  0.1333
14500TIP3    H264916   2.801   5.874  11.623 -0.5110 -0.0839 -0.7980
14501TIP3   OH264917   2.929   3.436   0.880 -0.5643 -0.4283 -0.0940
14501TIP3    H164918   2.860   3.389   0.833 -0.9768  0.5694 -0.5195
14501TIP3    H264919   3.004   3.436   0.821 -0.8670  0.2385 -0.4946
14502TIP3   OH264920   4.224   3.671  15.294  0.0065 -0.1190  0.0833
14502TIP3    H164921   4.316   3.646  15.280 -0.2145 -0.5248 -0.6978
14502TIP3    H264922   4.177   3.587  15.299 -0.3707  0.0938  0.1303
14503TIP3   OH264923   5.435   2.689   3.404  0.2342  0.2812  0.1303
14503TIP3    H164924   5.502   2.753   3.381 -0.3667  1.1455  0.7526
14503TIP3    H264925   5.472   2.642   3.479  0.6677 -0.0992 -0.3170
14504TIP3   OH264926   3.587   0.583   4.486 -0.6268  0.2079 -0.3793
14504TIP3    H164927   3.589   0.488   4.498 -0.6850  0.3424  0.9356
14504TIP3    H264928   3.607   0.596   4.394  0.0112 -1.0619 -0.4552
14505TIP3   OH264929   1.942   1.989  12.588 -0.7846  0.2392  0.4224
14505TIP3    H164930   2.012   2.020  12.646  0.2695  0.6064 -0.9830
14505TIP3    H264931   1.880   1.945  12.646  0.8128 -0.4519  1.6637
14506TIP3   OH264932   0.191   0.752  12.339  0.5124  0.1655  0.1000
14506TIP3    H164933   0.178   0.836  12.295  2.2076 -0.8096 -2.5411
14506TIP3    H264934   0.105   0.711  12.340 -0.2927  1.7743  1.2239
14507TIP3   OH264935   1.350   3.189   6.135 -0.2761  0.0507  0.0363
14507TIP3    H164936   1.374   3.110   6.087  0.6177  0.6424 -0.5323
14507TIP3    H264937   1.380   3.173   6.224  2.1215  0.6655 -0.5969
14508TIP3   OH264938   2.322   0.155  11.661  0.1283 -0.3479  0.3293
14508TIP3    H164939   2.348   0.079  11.610  1.0716 -1.1197  1.8785
14508TIP3    H264940   2.261   0.203  11.605  0.8240 -1.3450 -1.3278
14509TIP3   OH264941   3.491   3.440  12.496  0.0578 -0.0329  0.1986
14509TIP3    H164942   3.467   3.355  12.459  0.2374 -0.5473  1.2238
14509TIP3    H264943   3.583   3.452  12.470  1.1118 -1.7289  2.7734
14510TIP3   OH264944   4.641   2.769   1.294 -0.0063 -0.5946  0.3657
14510TIP3    H164945   4.696   2.700   1.259  0.5240  0.5263 -1.0882
14510TIP3    H264946   4.687   2.850   1.273 -0.5683  0.2246  2.1020
14511TIP3   OH264947   2.252   1.581  13.309 -0.5012  0.3068 -0.3529
14511TIP3    H164948   2.259   1.619  13.397 -0.9677  1.5698 -0.8395
14511TIP3    H264949   2.343   1.569  13.281 -0.0827 -4.3872  1.9744
14512TIP3   OH264950   3.919   1.810   5.731 -0.2205 -0.2157 -0.4386
14512TIP3    H164951   4.011   1.815   5.756  0.0811  0.1166 -1.5368
14512TIP3    H264952   3.894   1.720   5.750  0.3176 -0.2974 -0.0905
14513TIP3   OH264953   6.535   0.153  15.581 -0.2260 -0.4672  0.3702
14513TIP3    H164954   6.504   0.229  15.530  0.8805 -0.4597 -0.3150
14513TIP3    H264955   6.460   0.093  15.582 -0.7805  0.2019  0.0650
14514TIP3   OH264956   3.727   1.543   5.725  0.3736  0.4503 -0.1850
14514TIP3    H164957   3.687   1.540   5.811 -2.1080 -0.4681 -1.2648
14514TIP3    H264958   3.768   1.457   5.714 -1.0982 -0.2385 -0.6296
14515TIP3   OH264959   6.012   0.107   0.567 -0.0925 -0.4013  0.3140
14515TIP3    H164960   6.069   0.121   0.491  0.1160 -0.1366  0.5191
14515TIP3    H264961   5.980   0.194   0.590  1.4554 -0.1692  1.7867
14516TIP3   OH264962   1.409   3.724  14.226 -0.0186  0.0514 -0.4306
14516TIP3    H164963   1.427   3.763  14.312 -1.7403  1.7489 -0.7742
14516TIP3    H264964   1.387   3.633  14.245 -1.3479  0.6382  1.0944
14517TIP3   OH264965   4.553   3.924   2.431 -0.2298 -0.5080  0.3216
14517TIP3    H164966   4.595   4.010   2.434  2.6276 -1.6215 -2.2939
14517TIP3    H264967   4.583   3.879   2.511  0.8733 -0.1318  0.1269
14518TIP3   OH264968   6.203   1.865   2.524  0.1187  0.4320  0.7036
14518TIP3    H164969   6.222   1.958   2.538  1.3520  0.8310 -2.7208
14518TIP3    H264970   6.289   1.824   2.517 -0.4154 -0.7135  0.6685
14519TIP3   OH264971   4.569   4.343   0.621  0.0468 -0.2097 -0.1837
14519TIP3    H164972   4.488   4.359   0.670  1.2278 -1.4283  2.3488
14519TIP3    H264973   4.561   4.398   0.543 -2.3610  1.1651  0.9209
14520TIP3   OH264974   3.119   0.262  10.930  0.2362 -1.0033 -0.0645
14520TIP3    H164975   3.070   0.344  10.932  1.2659 -0.2729  3.5903
14520TIP3    H264976   3.063   0.202  10.881 -1.4670  1.3216 -1.1750
14521TIP3   OH264977   2.148   2.989   2.539  0.6584  0.4721 -0.3244
14521TIP3    H164978   2.095   2.926   2.588  0.6944  1.0135  0.4274
14521TIP3    H264979   2.162   3.061   2.600  0.6365  1.2034 -1.1639
14522TIP3   OH264980   6.047   0.192  11.982 -0.1167  0.1264 -0.4863
14522TIP3    H164981   6.127   0.245  11.988  0.6718 -0.9020 -1.3986
14522TIP3    H264982   6.034   0.158  12.071 -0.9606  2.2460  0.2506
14523TIP3   OH264983   4.071   2.776  12.894  0.0949 -0.4463  0.1678
14523TIP3    H164984   3.980   2.777  12.925  0.0309 -1.1844  0.0280
14523TIP3    H264985   4.110   2.700  12.937  0.2984 -0.8724 -0.7463
14524TIP3   OH264986   3.033   1.858  14.337 -0.0497 -0.1938 -0.2430
14524TIP3    H164987   3.027   1.927  14.270 -1.9490  1.4420  1.4605
14524TIP3    H264988   3.100   1.798  14.304  1.4432  2.2529 -2.0079
14525TIP3   OH264989   5.211   6.475  13.519  0.7994 -0.5062  0.1964
14525TIP3    H164990   5.230   6.388  13.555 -2.4765 -1.9324 -1.1321
14525TIP3    H264991   5.227   6.535  13.592 -0.9541 -2.7309  2.5868
14526TIP3   OH264992   1.861   0.114  16.061 -0.4202  0.5023 -0.1449
14526TIP3    H164993   1.848   0.064  16.141  0.8121  0.2578 -0.0754
14526TIP3    H264994   1.774   0.145  16.037 -1.0449 -0.7774  0.3909
14527TIP3   OH264995   1.771   1.052   0.868  0.0677 -0.6407  0.4490
14527TIP3    H164996   1.834   1.108   0.822  0.0299 -0.4240  0.6534
14527TIP3    H264997   1.807   0.964   0.862  0.5561 -0.4731  0.8340
14528TIP3   OH264998   3.471   5.462  15.541 -0.0342 -0.3678  0.2217
14528TIP3    H164999   3.481   5.406  15.465  0.2821  0.4083 -0.3153
14528TIP3    H265000   3.377   5.464  15.557 -0.1070 -0.4939 -0.1813
14529TIP3   OH265001   3.545   1.453   1.291  0.5535  0.3011 -0.1489
14529TIP3    H165002   3.493   1.527   1.322  0.0160  0.5174 -1.5044
14529TIP3    H265003   3.575   1.479   1.204 -1.2042 -1.7896 -1.4712
14530TIP3   OH265004   2.304   2.770   2.023  0.0561 -0.0597 -0.4973
14530TIP3    H165005   2.350   2.700   2.070  1.1996  0.2146 -1.1720
14530TIP3    H265006   2.346   2.772   1.937 -0.4446  0.9856 -0.7265
14531TIP3   OH265007   1.340   4.199   0.556  0.3342  0.2718 -0.4125
14531TIP3    H165008   1.329   4.292   0.573 -0.4194 -0.0877  1.3243
14531TIP3    H265009   1.307   4.156   0.635 -0.0373 -1.4965 -1.4656
14532TIP3   OH265010   1.862   0.130  12.897  0.4961  0.0022 -0.1914
14532TIP3    H165011   1.876   0.061  12.832 -1.6025  0.9777 -1.8232
14532TIP3    H265012   1.784   0.101  12.945  0.6021  0.4366  0.2397
14533TIP3   OH265013   4.632   1.703   4.860 -0.5884 -0.3573 -0.2290
14533TIP3    H165014   4.672   1.763   4.797 -1.0685 -0.3162 -0.4966
14533TIP3    H265015   4.630   1.752   4.942  2.9488 -1.4895  0.6864
14534TIP3   OH265016   5.467   0.676  17.416  0.1149  0.0493  0.2939
14534TIP3    H165017   5.499   0.590  17.443 -0.3838  0.2915  1.7266
14534TIP3    H265018   5.534   0.708  17.356 -0.0525 -1.6258 -0.8412
14535TIP3   OH265019   6.663   5.108   6.442 -0.4165 -0.5341 -0.2109
14535TIP3    H165020   6.572   5.122   6.416 -0.5730  1.5984  1.2248
14535TIP3    H265021   6.714   5.162   6.382 -0.5137  1.6669  1.5505
14536TIP3   OH265022   3.060   4.226   1.130  0.3911  0.3683 -0.0126
14536TIP3    H165023   3.023   4.184   1.052  1.3156 -0.1441 -0.1938
14536TIP3    H265024   2.993   4.216   1.197  0.2850 -0.7401 -0.2665
14537TIP3   OH265025   3.466   2.858   6.787  0.0549  0.0989 -0.2998
14537TIP3    H165026   3.556   2.828   6.796 -0.0912 -0.3883 -0.4180
14537TIP3    H265027   3.438   2.824   6.702 -0.2716  0.1520 -0.2149
14538TIP3   OH265028   5.855   0.892  12.575  0.1706  0.0589 -1.1250
14538TIP3    H165029   5.853   0.941  12.657 -1.6397 -0.4948 -0.8100
14538TIP3    H265030   5.797   0.941  12.517  0.6136 -0.1401 -1.7423
14539TIP3   OH265031   1.581   5.661   2.748 -0.2160 -0.4526  0.0775
14539TIP3    H165032   1.486   5.671   2.752 -0.0425  1.2284  1.2026
14539TIP3    H265033   1.610   5.663   2.839  1.0677  1.4214 -0.3035
14540TIP3   OH265034   3.737   2.579   3.476  0.6071 -0.1228  0.3214
14540TIP3    H165035   3.818   2.618   3.442  1.3722 -0.4630  1.7087
14540TIP3    H265036   3.672   2.599   3.409  1.8903 -0.0993 -0.9736
14541TIP3   OH265037   4.611   1.370   2.054  0.2099 -0.3022  0.0449
14541TIP3    H165038   4.525   1.366   2.012  1.1594 -1.0392 -1.9303
14541TIP3    H265039   4.650   1.284   2.039  1.5407  0.2118  0.3832
14542TIP3   OH265040   3.415   4.393  16.713  0.2764 -0.2790  0.8488
14542TIP3    H165041   3.478   4.463  16.726 -0.1414 -0.1342  2.2474
14542TIP3    H265042   3.377   4.410  16.627  3.7719 -1.7116 -1.2414
14543TIP3   OH265043   0.144   6.506  14.168  0.1168 -0.5488 -0.1429
14543TIP3    H165044   0.226   6.536  14.208 -0.6040  1.1828  0.1184
14543TIP3    H265045   0.161   6.415  14.146  1.9360 -0.3913  0.3903
14544TIP3   OH265046   5.411   5.809  14.499  0.0993  0.2212 -0.4093
14544TIP3    H165047   5.364   5.890  14.517 -1.2920 -0.3953 -1.1367
14544TIP3    H265048   5.495   5.820  14.545  0.1739  2.2717 -0.9337
14545TIP3   OH265049   3.489   4.347  12.595 -0.0911 -0.2913 -0.2741
14545TIP3    H165050   3.471   4.372  12.685  1.7902 -3.1240  1.0386
14545TIP3    H265051   3.405   4.315  12.562 -0.7869  0.7096  0.4816
14546TIP3   OH265052   3.851   5.660  17.189  0.3395 -0.1969 -0.0625
14546TIP3    H165053   3.794   5.644  17.113  0.8250 -2.2975 -0.0390
14546TIP3    H265054   3.939   5.667  17.152  0.8039 -2.7735  0.3398
14547TIP3   OH265055   2.895   1.330  12.804  0.6349 -0.1743  1.1404
14547TIP3    H165056   2.988   1.307  12.809  0.7493  0.4601  2.6018
14547TIP3    H265057   2.893   1.414  12.759  0.5602 -1.0921 -0.6668
14548TIP3   OH265058   5.909   4.276  13.082  0.0404 -0.0171  0.5416
14548TIP3    H165059   5.896   4.308  12.993  0.8248  0.2688  0.5262
14548TIP3    H265060   5.990   4.226  13.079 -0.1302 -0.3270  1.0105
14549TIP3   OH265061   4.677   2.682  11.687 -0.1431 -0.1862 -0.3406
14549TIP3    H165062   4.769   2.704  11.703 -0.1571  0.8106 -1.4814
14549TIP3    H265063   4.676   2.587  11.682  0.6155 -0.2764  0.8384
14550TIP3   OH265064   3.975   2.748  16.607 -0.5378 -0.8689 -0.7185
14550TIP3    H165065   4.043   2.685  16.584  0.0454 -0.9628  1.1388
14550TIP3    H265066   3.950   2.725  16.697 -0.8854  1.0348 -0.2811
14551TIP3   OH265067   6.691   1.952  15.470  0.1497 -0.0626 -0.1023
14551TIP3    H165068   6.700   2.004  15.390 -1.3905  0.2413 -0.1104
14551TIP3    H265069   6.610   1.982  15.510  0.3518 -0.9426  1.0436
14552TIP3   OH265070   3.269   3.772   4.251  0.1161  0.0438 -0.1997
14552TIP3    H165071   3.243   3.808   4.336 -0.0925  0.6614 -0.5155
14552TIP3    H265072   3.352   3.814   4.232 -0.4934  0.9591 -0.9211
14553TIP3   OH265073   4.591   4.993  12.867 -0.7766 -0.0419 -0.2516
14553TIP3    H165074   4.545   5.005  12.783  0.0837 -0.3207 -0.7710
14553TIP3    H265075   4.679   4.965  12.842 -0.5678 -0.2991  0.7594
14554TIP3   OH265076   3.005   4.070   3.164 -0.3629  0.0114  0.1822
14554TIP3    H165077   3.063   4.056   3.239  1.0253  3.3360 -0.1180
14554TIP3    H265078   2.985   4.163   3.167 -1.4232 -0.0333 -2.8040
14555TIP3   OH265079   1.824   1.469   0.172  0.4866 -0.3083  0.0683
14555TIP3    H165080   1.774   1.440   0.248  2.2748  2.2457  2.4126
14555TIP3    H265081   1.915   1.449   0.194  1.0372  0.1276 -1.6096
14556TIP3   OH265082   4.338   4.497  10.885 -0.0541 -0.0708 -0.0434
14556TIP3    H165083   4.318   4.414  10.928  0.4371 -0.8470 -1.2661
14556TIP3    H265084   4.362   4.556  10.956 -0.2119 -1.0285  0.8248
14557TIP3   OH265085   6.421   4.535   0.895 -0.2023 -0.6493  0.2030
14557TIP3    H165086   6.436   4.560   0.986  0.4493  0.3159 -0.1609
14557TIP3    H265087   6.503   4.495   0.867  0.6524  1.6866 -0.8122
14558TIP3   OH265088   2.742   0.514  15.233 -0.4072  0.5282 -0.5053
14558TIP3    H165089   2.810   0.569  15.272  0.2552 -0.7126  0.1490
14558TIP3    H265090   2.771   0.500  15.143  1.9265 -2.4742  0.5421
14559TIP3   OH265091   1.286   5.333   6.252 -0.7217 -0.2111  0.4409
14559TIP3    H165092   1.213   5.358   6.195 -1.2056 -0.4700  0.9307
14559TIP3    H265093   1.251   5.261   6.304  0.3502 -1.3022 -0.3051
14560TIP3   OH265094   5.490   0.999  17.397  0.1141 -0.3072 -0.5687
14560TIP3    H165095   5.551   1.026  17.329  1.5215 -0.4014  0.6134
14560TIP3    H265096   5.420   0.953  17.350  0.6821  0.2468 -1.9968
14561TIP3   OH265097   6.440   3.504  12.830  0.2808 -0.3182  0.2658
14561TIP3    H165098   6.365   3.447  12.840  1.6069 -2.4987 -1.4208
14561TIP3    H265099   6.490   3.492  12.911  0.6438 -1.7480 -0.1498
14562TIP3   OH265100   1.779   0.088   4.998 -0.4039 -0.6654  0.7939
14562TIP3    H165101   1.765   0.071   4.905 -1.3736  0.4357  0.7079
14562TIP3    H265102   1.831   0.013   5.029  1.2117 -0.3305 -0.9244
14563TIP3   OH265103   5.279   6.473   5.383  0.2010 -0.4369 -0.6171
14563TIP3    H165104   5.372   6.479   5.405 -0.0824  0.7092  0.3998
14563TIP3    H265105   5.255   6.383   5.407  0.1541  0.4040  3.1109
14564TIP3   OH265106   4.480   6.661   3.941  0.3587 -0.4397  0.9055
14564TIP3    H165107   4.486   6.631   3.851 -0.9685  0.2493  0.5631
14564TIP3    H265108   4.566   6.700   3.960  0.3064  0.3854 -0.4364
14565TIP3   OH265109   1.910   0.439   0.976  0.3039  0.0634  0.2506
14565TIP3    H165110   1.885   0.492   0.900 -0.0997  2.1915  1.7748
14565TIP3    H265111   1.999   0.410   0.956  0.5216  1.2838 -0.6949
14566TIP3   OH265112   6.274   2.474   5.905  0.3334  0.0708  0.4405
14566TIP3    H165113   6.260   2.445   5.995 -0.0640  1.5001  0.8679
14566TIP3    H265114   6.340   2.542   5.912 -0.5639  1.0345 -0.1798
14567TIP3   OH265115   3.306   3.274  15.671  0.2618 -0.0407  0.5084
14567TIP3    H165116   3.287   3.259  15.578  2.4192  0.4901 -0.0818
14567TIP3    H265117   3.322   3.187  15.707  2.8581 -0.0983 -0.5251
14568TIP3   OH265118   5.636   0.732   2.106 -0.1427 -0.3269 -0.1312
14568TIP3    H165119   5.610   0.662   2.167 -0.7927 -1.2178 -1.3724
14568TIP3    H265120   5.708   0.694   2.057  0.5396  0.4785  0.2411
14569TIP3   OH265121   2.365   6.146  11.975  0.3589 -0.2426  0.7368
14569TIP3    H165122   2.449   6.174  12.011  0.8749  2.7064 -2.1513
14569TIP3    H265123   2.388   6.104  11.892 -0.9544  1.1677 -0.3988
14570TIP3   OH265124   0.793   3.496  14.264 -0.1290  0.0725 -0.3783
14570TIP3    H165125   0.774   3.584  14.232  1.1915  0.5763  0.1710
14570TIP3    H265126   0.862   3.464  14.206  1.1967  0.4028  0.9802
14571TIP3   OH265127   6.201   5.871   5.380  0.3906 -0.0126 -0.5517
14571TIP3    H165128   6.187   5.958   5.419 -0.0104  0.2028 -1.1607
14571TIP3    H265129   6.244   5.821   5.449  1.3130  0.8950 -0.4346
14572TIP3   OH265130   5.579   3.959   4.122 -0.3937  0.0531  0.3232
14572TIP3    H165131   5.558   4.031   4.181 -1.8411 -0.2748  0.2367
14572TIP3    H265132   5.500   3.946   4.071  1.0176  0.8128 -2.2634
14573TIP3   OH265133   5.390   2.928   3.957 -0.6229  0.0939 -0.2901
14573TIP3    H165134   5.389   2.898   3.866 -0.2381 -0.0966 -0.2356
14573TIP3    H265135   5.353   2.855   4.007 -1.0781  0.3015 -0.3210
14574TIP3   OH265136   2.864   6.727   5.101  0.0997  0.1789  0.3964
14574TIP3    H165137   2.852   6.764   5.189  1.4189  0.3583  0.5117
14574TIP3    H265138   2.830   6.637   5.109  2.4096 -0.6553  1.7925
14575TIP3   OH265139   0.912   2.274   2.573  0.1580  0.4697  0.4908
14575TIP3    H165140   0.849   2.248   2.639  0.1146  0.7102  0.5426
14575TIP3    H265141   0.952   2.354   2.607  0.9811 -0.0443  0.7859
14576TIP3   OH265142   6.426   2.616  12.740  0.2061  0.4298 -0.3796
14576TIP3    H165143   6.457   2.664  12.664 -1.7661 -0.0089 -1.5112
14576TIP3    H265144   6.411   2.684  12.807  2.5483  0.7457 -0.1034
14577TIP3   OH265145   3.170   1.405  16.589  0.1058 -0.2452 -0.6149
14577TIP3    H165146   3.229   1.476  16.615 -0.8942  0.0248  1.0518
14577TIP3    H265147   3.220   1.325  16.605 -0.5059 -0.1193  2.5964
14578TIP3   OH265148   6.382   2.420  12.340 -0.0759  0.3390  0.2978
14578TIP3    H165149   6.382   2.445  12.248  0.2520  0.2580  0.2760
14578TIP3    H265150   6.341   2.494  12.385  0.2997  0.6362  0.1581
14579TIP3   OH265151   1.245   4.303   5.560  0.0503 -0.5472  0.2036
14579TIP3    H165152   1.288   4.219   5.579 -0.6688 -1.7751 -3.0589
14579TIP3    H265153   1.152   4.283   5.561 -0.1552  0.3775  0.0099
14580TIP3   OH265154   3.474   2.798  10.933 -0.1559  0.2275 -0.4895
14580TIP3    H165155   3.406   2.861  10.913 -0.0549 -0.0423 -1.7689
14580TIP3    H265156   3.449   2.761  11.018 -1.5067  0.2596 -0.8540
14581TIP3   OH265157   6.579   2.299   5.143  0.7678 -0.0750  0.1161
14581TIP3    H165158   6.582   2.336   5.055 -0.1440 -0.8146 -0.2338
14581TIP3    H265159   6.591   2.205   5.130 -0.2281 -0.2930  0.6897
14582TIP3   OH265160   3.223   6.096  15.189  0.3000 -0.2602  0.5617
14582TIP3    H165161   3.268   6.019  15.223 -2.6046 -1.5145  1.8816
14582TIP3    H265162   3.200   6.148  15.266  1.0432  1.2937 -0.2093
14583TIP3   OH265163   2.451   3.428  14.154  0.0270  0.4385  0.2309
14583TIP3    H165164   2.489   3.345  14.182 -1.1411  0.4416  1.9990
14583TIP3    H265165   2.510   3.495  14.189 -0.3549  0.3929  0.9770
14584TIP3   OH265166   1.455   0.695   2.781 -0.4484  0.0390  0.1481
14584TIP3    H165167   1.471   0.657   2.867 -0.7727 -1.7940 -0.5690
14584TIP3    H265168   1.381   0.754   2.795  0.2535  0.6799  1.3425
14585TIP3   OH265169   3.052   5.292   2.242  0.3304  0.1866 -0.4576
14585TIP3    H165170   3.137   5.254   2.218  0.9776  2.0619 -1.2991
14585TIP3    H265171   2.991   5.256   2.178  1.5216  2.8694 -3.3555
14586TIP3   OH265172   6.362   2.723  12.058 -0.3824  0.7455  0.3548
14586TIP3    H165173   6.275   2.709  12.094 -0.0675  0.6569  1.0904
14586TIP3    H265174   6.390   2.637  12.027 -0.6501  0.8218 -0.1170
14587TIP3   OH265175   3.395   4.298  12.242 -0.5241 -0.1795  0.6034
14587TIP3    H165176   3.385   4.388  12.272  1.0231 -0.2994  1.6102
14587TIP3    H265177   3.472   4.299  12.185  0.2304 -1.0287  1.5565
14588TIP3   OH265178   2.693   0.044   6.034 -0.0013 -0.1894  0.2356
14588TIP3    H165179   2.637   0.122   6.027 -1.7480 -1.4469 -0.5453
14588TIP3    H265180   2.768   0.074   6.085 -0.9129  1.8400  0.5222
14589TIP3   OH265181   2.992   0.776   5.433 -0.6534 -0.6483 -0.0778
14589TIP3    H165182   2.970   0.706   5.372 -0.4692  0.2668 -1.2222
14589TIP3    H265183   2.912   0.791   5.483 -1.0532 -0.8586 -0.6455
14590TIP3   OH265184   0.415   3.303   3.420  0.2405 -0.9224 -0.1064
14590TIP3    H165185   0.438   3.310   3.513  0.1002  0.8075 -0.1831
14590TIP3    H265186   0.401   3.393   3.391 -1.2142 -1.5243 -1.4376
14591TIP3   OH265187   2.470   0.114  11.883  0.3086  0.7149  0.8446
14591TIP3    H165188   2.430   0.149  11.803  0.6662 -1.4435 -0.3483
14591TIP3    H265189   2.437   0.170  11.953 -0.0507  2.6507 -0.7939
14592TIP3   OH265190   0.811   3.596   0.888  0.0287 -0.8972 -0.3966
14592TIP3    H165191   0.750   3.660   0.852  2.0757  1.6699  0.4038
14592TIP3    H265192   0.845   3.549   0.812 -0.2059  0.2397 -1.2276
14593TIP3   OH265193   3.763   1.042  16.755 -0.1323  0.7608 -0.1305
14593TIP3    H165194   3.775   0.982  16.830 -1.3975  0.7474  0.0881
14593TIP3    H265195   3.848   1.042  16.711 -0.4044 -2.3160 -0.9526
14594TIP3   OH265196   2.261   0.678  11.931  0.6091 -0.4725 -0.4743
14594TIP3    H165197   2.209   0.669  12.010  0.3824 -0.5172 -0.6287
14594TIP3    H265198   2.232   0.761  11.893  1.4841  0.0914  0.0534
14595TIP3   OH265199   0.940   1.563  12.282  0.2993 -0.0090  0.1509
14595TIP3    H165200   0.952   1.492  12.219  2.0253 -0.3413  0.7687
14595TIP3    H265201   0.917   1.639  12.229  3.0570  0.0687 -1.1290
14596TIP3   OH265202   1.201   4.339   0.007 -0.1988 -0.2541  0.2833
14596TIP3    H165203   1.233   4.248   0.013  2.2475  0.6056  2.0349
14596TIP3    H265204   1.199   4.369   0.097  1.1314  2.0490 -0.3664
14597TIP3   OH265205   2.592   5.738  14.282 -0.0089 -0.2390 -0.0003
14597TIP3    H165206   2.536   5.815  14.280  0.4999  0.1168 -1.2519
14597TIP3    H265207   2.639   5.740  14.199 -0.7671 -2.4736 -0.5555
14598TIP3   OH265208   6.021   1.704  14.710 -0.1616  0.1214 -0.0415
14598TIP3    H165209   5.929   1.704  14.735 -0.4431  1.4903 -1.0173
14598TIP3    H265210   6.059   1.779  14.756  0.6158 -0.7524  0.7973
14599TIP3   OH265211   1.330   1.078   1.383 -0.5946  0.1339  0.3612
14599TIP3    H165212   1.309   1.141   1.453 -0.0701 -0.5424  1.1550
14599TIP3    H265213   1.407   1.115   1.340 -0.8912  0.5338  0.1723
14600TIP3   OH265214   2.266   5.721  11.771 -0.0566  0.3358  0.1996
14600TIP3    H165215   2.265   5.707  11.676 -2.0997  3.0277 -0.2805
14600TIP3    H265216   2.199   5.661  11.804 -0.4962  0.5539 -0.2836
14601TIP3   OH265217   3.884   6.054   5.614 -0.1440  0.2395  0.2839
14601TIP3    H165218   3.790   6.067   5.626 -0.3781 -0.9471 -0.0582
14601TIP3    H265219   3.910   5.998   5.687  0.1903  0.1675  0.1115
14602TIP3   OH265220   6.200   5.801  14.729  0.4026 -0.0088  0.1369
14602TIP3    H165221   6.191   5.811  14.823 -0.5482  0.8321 -0.0248
14602TIP3    H265222   6.291   5.823  14.710  1.0367 -1.7078  1.0244
14603TIP3   OH265223   4.698   5.390   4.842  0.6289  1.0170 -0.4153
14603TIP3    H165224   4.717   5.437   4.761  1.3444  0.7963 -0.3836
14603TIP3    H265225   4.776   5.404   4.897 -0.1787  1.8408  0.5582
14604TIP3   OH265226   2.533   5.516  11.502  0.6870  0.0407 -0.4014
14604TIP3    H165227   2.462   5.452  11.496  0.7102  0.0662 -0.9842
14604TIP3    H265228   2.606   5.476  11.453  0.6305  0.6033 -0.9667
14605TIP3   OH265229   5.454   1.930   2.232 -0.6396 -0.7030  0.0950
14605TIP3    H165230   5.504   1.869   2.178  0.4745 -0.8904  1.2807
14605TIP3    H265231   5.516   1.958   2.300 -1.8182 -0.0413  0.9344
14606TIP3   OH265232   0.183   1.139  12.771 -0.5169  1.0541 -0.2150
14606TIP3    H165233   0.198   1.127  12.678  1.0794  2.5014 -0.1917
14606TIP3    H265234   0.178   1.050  12.807  4.4069  0.2684 -0.8961
14607TIP3   OH265235   1.240   2.758   3.826  0.6231  0.3074  0.0982
14607TIP3    H165236   1.204   2.845   3.838  0.6543  0.2830  0.3847
14607TIP3    H265237   1.327   2.772   3.788  0.5783  0.3941  0.0293
14608TIP3   OH265238   1.343   1.626  12.497 -0.5031 -0.3640  0.6817
14608TIP3    H165239   1.314   1.658  12.411 -0.5729 -4.4059 -1.0324
14608TIP3    H265240   1.428   1.585  12.480 -0.5629 -1.3534  2.4916
14609TIP3   OH265241   3.553   0.190  12.074  0.1468 -0.5010 -0.0476
14609TIP3    H165242   3.488   0.139  12.122 -0.5294 -0.0037 -0.4204
14609TIP3    H265243   3.594   0.245  12.141  0.7330 -1.3547  0.3210
14610TIP3   OH265244   1.477   2.728   3.175 -0.6227  1.1733  0.3939
14610TIP3    H165245   1.556   2.717   3.122 -0.7386 -1.5776  0.6542
14610TIP3    H265246   1.509   2.758   3.260  0.1398  0.4266  0.3847
14611TIP3   OH265247   3.822   3.651   0.707 -0.2609  0.6250 -0.1635
14611TIP3    H165248   3.897   3.592   0.701  0.6577  1.7288  0.0039
14611TIP3    H265249   3.818   3.693   0.621  1.1131  2.6048  0.6406
14612TIP3   OH265250   4.829   2.307   5.947 -0.3059 -0.0805  0.0985
14612TIP3    H165251   4.775   2.238   5.985 -0.0458  0.3472  1.2681
14612TIP3    H265252   4.873   2.347   6.021 -0.6770  1.5472 -0.5194
14613TIP3   OH265253   1.698   5.910   1.254 -0.2356  0.0667  0.1079
14613TIP3    H165254   1.641   5.908   1.177 -0.5739 -0.4487  0.3657
14613TIP3    H265255   1.667   5.838   1.309  0.7065 -0.2585  0.2293
14614TIP3   OH265256   2.953   4.677   4.574  1.2223 -0.1626  0.1788
14614TIP3    H165257   2.967   4.685   4.480  0.7071 -0.0811  0.1040
14614TIP3    H265258   2.860   4.696   4.586  1.1705 -0.6821  0.6420
14615TIP3   OH265259   3.225   2.174  15.199  0.0918  0.2186 -0.4127
14615TIP3    H165260   3.166   2.228  15.146  0.0716  0.5721 -0.0363
14615TIP3    H265261   3.171   2.099  15.225  0.1299 -0.0064 -0.9668
14616TIP3   OH265262   2.614   3.397   1.666  0.0538  0.5655  0.4092
14616TIP3    H165263   2.690   3.357   1.624 -0.6646  1.9441 -2.4609
14616TIP3    H265264   2.635   3.491   1.671 -1.0683  0.8445  0.3581
14617TIP3   OH265265   2.424   6.419   3.781 -0.6332  0.4803 -0.3849
14617TIP3    H165266   2.453   6.510   3.773  0.4068  0.2251  0.2297
14617TIP3    H265267   2.503   6.368   3.768 -0.7332 -0.2448  1.5338
14618TIP3   OH265268   2.583   3.423   5.729  0.6186  0.3716 -0.3853
14618TIP3    H165269   2.529   3.428   5.650 -0.2106  1.3765  0.2186
14618TIP3    H265270   2.619   3.511   5.738 -0.5463  0.7319  1.1920
14619TIP3   OH265271   5.330   3.269  14.027 -0.8494 -0.5579 -0.5849
14619TIP3    H165272   5.243   3.254  13.990 -0.4660 -1.7315 -1.0505
14619TIP3    H265273   5.343   3.198  14.089  0.7219 -1.8666 -2.2862
14620TIP3   OH265274   5.646   0.172   3.126 -0.1688  0.2108  0.1556
14620TIP3    H165275   5.723   0.174   3.183 -0.9105 -1.5754  1.3144
14620TIP3    H265276   5.578   0.216   3.177 -0.7063 -0.9721  0.5168
14621TIP3   OH265277   0.755   4.117  13.153 -0.3908 -0.1930  0.7414
14621TIP3    H165278   0.807   4.185  13.195  1.2446 -0.7474 -0.2652
14621TIP3    H265279   0.762   4.042  13.211 -0.4557 -0.1245  0.8371
14622TIP3   OH265280   4.974   5.373   1.545 -0.0248  0.2693 -0.4217
14622TIP3    H165281   4.960   5.432   1.619  1.9505  2.0946 -1.3910
14622TIP3    H265282   5.035   5.307   1.579 -1.1497 -0.4558  0.2659
14623TIP3   OH265283   4.431   5.965  12.451 -0.0679 -0.3847 -0.6834
14623TIP3    H165284   4.428   5.870  12.463 -0.0583 -0.2487  0.5469
14623TIP3    H265285   4.517   5.991  12.485 -0.6093  0.2068  0.2924
14624TIP3   OH265286   3.172   4.158   2.816 -0.0551 -0.3820  0.2155
14624TIP3    H165287   3.258   4.172   2.777 -0.9519  1.9361 -1.1402
14624TIP3    H265288   3.173   4.210   2.896 -0.4909  0.5082 -0.3358
14625TIP3   OH265289   5.829   1.520   2.022 -0.0180 -0.3334 -0.5719
14625TIP3    H165290   5.870   1.555   1.943 -2.1712  0.8086 -1.2588
14625TIP3    H265291   5.747   1.481   1.992 -1.3452  0.9534  1.1284
14626TIP3   OH265292   4.272   1.019  12.704  0.3999  0.2280 -0.0217
14626TIP3    H165293   4.322   0.942  12.676  0.3896 -0.0455  0.6839
14626TIP3    H265294   4.330   1.093  12.685  0.1872  0.1153 -1.2367
14627TIP3   OH265295   6.667   4.429   1.657  0.3795  0.0567 -0.8861
14627TIP3    H165296   6.698   4.491   1.723  0.4429 -0.5364 -0.3539
14627TIP3    H265297   6.695   4.343   1.689 -0.8331 -0.3840 -0.9729
14628TIP3   OH265298   3.643   5.346   1.468 -0.3981  0.1580 -0.2894
14628TIP3    H165299   3.694   5.320   1.544  0.5302  1.4462 -0.4383
14628TIP3    H265300   3.584   5.273   1.452  1.3502 -1.3630 -0.0593
14629TIP3   OH265301   3.075   1.900   0.952 -0.2696  0.4827 -0.3530
14629TIP3    H165302   3.049   1.811   0.930 -0.5790 -0.2237  2.4643
14629TIP3    H265303   3.037   1.916   1.039 -1.3149  3.8477 -1.2458
14630TIP3   OH265304   5.399   1.924  15.419 -0.3371 -0.0933  0.0129
14630TIP3    H165305   5.340   1.895  15.349 -2.6850  1.5439  1.1662
14630TIP3    H265306   5.478   1.952  15.374 -0.3371 -2.4061 -1.6098
14631TIP3   OH265307   4.473   3.688   2.816  0.2588  0.4111  0.3732
14631TIP3    H165308   4.451   3.740   2.738  1.2480  1.6112  0.8598
14631TIP3    H265309   4.498   3.603   2.781  0.5446  0.8845 -0.6326
14632TIP3   OH265310   3.138   5.413   1.357 -0.1776 -0.2529 -0.1994
14632TIP3    H165311   3.074   5.479   1.382  1.4550  0.7191  1.6815
14632TIP3    H265312   3.116   5.337   1.411 -0.1795 -0.1627 -0.0714
14633TIP3   OH265313   3.384   1.631   2.894  0.4956  0.1208 -0.5665
14633TIP3    H165314   3.330   1.566   2.940  2.5393 -0.8820  0.5822
14633TIP3    H265315   3.441   1.579   2.838 -0.4861  1.2296 -2.7146
14634TIP3   OH265316   0.087   2.126  13.270 -0.3675 -0.2263 -0.0479
14634TIP3    H165317   0.080   2.063  13.198  0.8081 -0.1926 -0.2096
14634TIP3    H265318   0.163   2.096  13.321  0.2823  1.1037 -0.1863
14635TIP3   OH265319   1.335   0.952  12.713  0.2817  0.3358  0.3078
14635TIP3    H165320   1.390   0.953  12.634  0.4077 -1.2651  0.3409
14635TIP3    H265321   1.247   0.970  12.680  0.6687  2.1590  0.1561
14636TIP3   OH265322   6.274   5.024   4.524 -0.2537 -0.6920 -0.1535
14636TIP3    H165323   6.253   5.080   4.599 -0.8390  0.1994 -0.9667
14636TIP3    H265324   6.242   4.937   4.550 -3.0594  0.1432 -0.4273
14637TIP3   OH265325   5.308   1.888  11.497  0.3805  0.6558  0.0978
14637TIP3    H165326   5.399   1.860  11.488  1.0044  2.7816 -0.6645
14637TIP3    H265327   5.263   1.845  11.424  0.3718 -1.6752  1.3746
14638TIP3   OH265328   3.724   2.582  16.616  0.3031  0.4975  0.1972
14638TIP3    H165329   3.770   2.500  16.595  0.2015  0.6585 -0.6886
14638TIP3    H265330   3.760   2.609  16.701 -1.7019 -1.9502  1.9913
14639TIP3   OH265331   5.593   3.283  10.745  0.0352  0.4636  0.1227
14639TIP3    H165332   5.534   3.208  10.749  1.8386 -0.9486  1.2284
14639TIP3    H265333   5.662   3.264  10.808  1.9855  1.7899 -1.4750
14640TIP3   OH265334   6.011   0.594   1.053  0.1349 -0.6776 -0.1844
14640TIP3    H165335   5.960   0.663   1.096  1.3668 -1.5638  2.9718
14640TIP3    H265336   5.953   0.560   0.985 -2.4917  0.0512  1.5382
14641TIP3   OH265337   3.947   5.842  17.380 -0.4511 -0.5763  0.4713
14641TIP3    H165338   3.882   5.802  17.322  0.4621  0.1634 -1.1398
14641TIP3    H265339   4.026   5.789  17.367  0.2034  0.5268 -0.1955
14642TIP3   OH265340   1.148   3.545  17.004 -0.1273  0.2730 -0.3161
14642TIP3    H165341   1.138   3.618  17.066 -1.6413 -0.6737  0.6347
14642TIP3    H265342   1.106   3.471  17.048  0.0190 -0.7944 -1.8957
14643TIP3   OH265343   0.320   6.608   0.181 -0.0263 -0.0171 -0.2024
14643TIP3    H165344   0.397   6.552   0.185 -1.1024 -1.5073  0.5914
14643TIP3    H265345   0.308   6.640   0.270 -0.8320 -0.5165 -0.1245
14644TIP3   OH265346   5.638   1.951  14.121  0.5132 -0.0454 -0.0027
14644TIP3    H165347   5.637   2.025  14.061  1.9423 -0.2372 -0.2771
14644TIP3    H265348   5.687   1.883  14.076 -0.9264 -1.2603  0.1701
14645TIP3   OH265349   2.045   3.952   4.817 -0.3898 -0.1139 -0.2443
14645TIP3    H165350   2.006   4.039   4.821  0.9442  0.5110 -0.3379
14645TIP3    H265351   1.973   3.892   4.838 -1.4233  0.9736 -0.6000
14646TIP3   OH265352   5.647   0.851  10.750  0.0122 -0.0254  0.2172
14646TIP3    H165353   5.561   0.821  10.721  0.7553 -1.1415 -0.9444
14646TIP3    H265354   5.698   0.771  10.760  1.4709  0.6993 -0.9667
14647TIP3   OH265355   6.495   2.594   4.692  0.5701  0.1900 -0.7149
14647TIP3    H165356   6.588   2.582   4.674  0.6250  1.3509 -1.2902
14647TIP3    H265357   6.453   2.517   4.652  1.2298 -0.1144 -0.8405
14648TIP3   OH265358   2.656   1.441   3.332  0.0494  0.3438  0.3982
14648TIP3    H165359   2.615   1.355   3.323 -0.6626  0.7992 -0.9876
14648TIP3    H265360   2.645   1.482   3.246  2.0000  1.1242  0.4815
14649TIP3   OH265361   5.298   1.537   3.985 -0.6130  0.1697 -0.0828
14649TIP3    H165362   5.320   1.542   4.078 -1.4407  0.8087  0.0930
14649TIP3    H265363   5.369   1.583   3.941  0.1227 -0.7088  0.1652
14650TIP3   OH265364   1.844   1.869   0.044 -0.4148 -0.4160  0.0981
14650TIP3    H165365   1.855   1.850  -0.049  1.4325 -1.1206  0.4089
14650TIP3    H265366   1.916   1.929   0.065 -2.0307  1.4198  0.6629
14651TIP3   OH265367   2.589   4.177  16.742  0.3290  0.2370 -0.5307
14651TIP3    H165368   2.666   4.152  16.793 -0.0752  1.0280  0.4824
14651TIP3    H265369   2.566   4.098  16.693  0.4913 -0.6612  0.8064
14652TIP3   OH265370   3.426   2.809   2.818  0.4111 -0.1863 -0.0598
14652TIP3    H165371   3.468   2.724   2.805 -0.2964 -0.3061 -1.9149
14652TIP3    H265372   3.434   2.853   2.733 -0.8845  0.8387  0.3039
14653TIP3   OH265373   5.865   1.587   4.123  0.1589 -0.1276 -0.5076
14653TIP3    H165374   5.933   1.540   4.171 -1.3819 -1.5574  0.3688
14653TIP3    H265375   5.786   1.535   4.136 -1.2140  1.7014 -1.1378
14654TIP3   OH265376   1.062   0.127  13.733  0.3201  0.0506 -0.3617
14654TIP3    H165377   1.008   0.187  13.784  0.6283  2.8547 -3.0622
14654TIP3    H265378   1.151   0.161  13.743  0.6918 -0.7362 -0.9549
14655TIP3   OH265379   5.173   5.468  15.464 -0.0350  0.7978  0.4060
14655TIP3    H165380   5.181   5.513  15.549  0.7901  2.7953 -0.6485
14655TIP3    H265381   5.127   5.531  15.408  1.8768  0.7237 -1.3693
14656TIP3   OH265382   4.956   0.707  13.416 -0.5091 -0.3375 -0.0898
14656TIP3    H165383   5.031   0.675  13.366 -2.5099 -1.0801 -2.7852
14656TIP3    H265384   4.957   0.802  13.404 -0.1466 -0.3688 -0.3056
14657TIP3   OH265385   1.280   4.277  11.965 -0.4526 -0.2951 -0.0520
14657TIP3    H165386   1.302   4.197  11.918 -0.7189 -0.1460 -0.4440
14657TIP3    H265387   1.191   4.297  11.935 -0.0461  0.6491 -0.6669
14658TIP3   OH265388   4.751   3.309   2.602  0.0793  0.2313 -0.7810
14658TIP3    H165389   4.713   3.252   2.535 -1.5386 -1.3462  1.3367
14658TIP3    H265390   4.683   3.373   2.622  0.3346  0.3586 -0.2884
14659TIP3   OH265391   2.616   3.557  15.776 -0.0647 -0.0994 -0.0550
14659TIP3    H165392   2.620   3.502  15.698 -0.6630  0.0880 -0.2272
14659TIP3    H265393   2.672   3.513  15.840  0.4834 -0.2197 -0.6084
14660TIP3   OH265394   6.192   2.236  17.028  0.2693  0.0259 -0.0877
14660TIP3    H165395   6.166   2.245  16.937  1.0950  0.4803 -0.2794
14660TIP3    H265396   6.143   2.304  17.074  0.0162 -0.0644 -0.2238
14661TIP3   OH265397   0.888   0.554  11.505 -0.0288 -0.5505 -0.5352
14661TIP3    H165398   0.831   0.578  11.577 -0.1967  0.3311 -0.9420
14661TIP3    H265399   0.939   0.479  11.537 -0.7754 -0.7714  0.1402
14662TIP3   OH265400   1.199   0.461  11.998 -0.2522 -0.2768  0.0045
14662TIP3    H165401   1.290   0.444  12.024 -0.6052 -0.0796  1.4505
14662TIP3    H265402   1.161   0.508  12.072 -1.7036 -0.8613 -0.3340
14663TIP3   OH265403   3.489   1.296   0.903  0.1434  0.4696  0.8451
14663TIP3    H165404   3.440   1.338   0.833 -1.1782 -1.1535  0.7262
14663TIP3    H265405   3.577   1.285   0.868  0.1458  1.8244  0.3743
14664TIP3   OH265406   6.137   6.368   5.154 -0.7409 -0.8615 -0.2746
14664TIP3    H165407   6.066   6.400   5.100 -0.4875 -1.8536 -1.2406
14664TIP3    H265408   6.208   6.350   5.092  0.9077  1.4335  0.7884
14665TIP3   OH265409   5.678   3.461   2.703 -0.6987  0.3200 -0.0340
14665TIP3    H165410   5.681   3.373   2.666 -1.8019  0.3710 -0.2877
14665TIP3    H265411   5.593   3.496   2.676 -0.2262  1.5151 -0.0468
14666TIP3   OH265412   6.172   2.425  11.865 -0.3614  1.2365 -0.0611
14666TIP3    H165413   6.189   2.415  11.772  1.2565  2.5551  0.0632
14666TIP3    H265414   6.076   2.423  11.872 -0.5096  1.2192 -1.7400
14667TIP3   OH265415   5.224   3.579  13.839 -0.1123  0.5668  0.1658
14667TIP3    H165416   5.214   3.549  13.930 -0.4925 -0.8991 -0.3406
14667TIP3    H265417   5.134   3.584  13.806  0.0382  0.9467 -0.1925
14668TIP3   OH265418   3.017   2.825   2.616  0.3162  0.4698  0.2518
14668TIP3    H165419   3.080   2.760   2.645 -0.6749 -0.2878  0.7885
14668TIP3    H265420   2.993   2.798   2.528 -0.1243  0.0751  0.4898
14669TIP3   OH265421   5.021   1.954  13.330 -0.3588 -0.1852 -0.3759
14669TIP3    H165422   4.995   1.869  13.366  0.8964 -0.5908 -0.3870
14669TIP3    H265423   5.115   1.958  13.344 -0.6581  2.1664  1.5770
14670TIP3   OH265424   2.542   0.139  12.738 -0.0739 -0.4876  0.0942
14670TIP3    H165425   2.617   0.190  12.767  0.6093 -1.0441 -0.6391
14670TIP3    H265426   2.487   0.202  12.692  0.6321 -0.3480 -0.5786
14671TIP3   OH265427   6.575   3.254   1.557  0.2015 -0.0565 -0.2781
14671TIP3    H165428   6.570   3.314   1.631  1.9725 -1.5302  1.1434
14671TIP3    H265429   6.645   3.289   1.502 -0.8340  0.8072 -1.0970
14672TIP3   OH265430   5.842   1.618   5.316  0.1207  0.0642 -0.2825
14672TIP3    H165431   5.898   1.625   5.238  0.7451  1.0402  0.2363
14672TIP3    H265432   5.871   1.689   5.373 -2.1580  1.1208 -0.3099
14673TIP3   OH265433   1.228   5.047   5.113 -0.2186  0.2272  0.0615
14673TIP3    H165434   1.160   4.979   5.106  0.0902 -0.1851  0.9648
14673TIP3    H265435   1.307   5.000   5.139  0.1759  0.8425 -0.0047
14674TIP3   OH265436   6.454   2.578  10.450 -0.2470 -0.1022  0.3975
14674TIP3    H165437   6.426   2.649  10.508 -2.5937  0.9798 -1.8596
14674TIP3    H265438   6.374   2.531  10.430  1.0278 -2.4479  0.5084
14675TIP3   OH265439   3.292   3.368  15.059 -0.2669 -0.0219 -0.5897
14675TIP3    H165440   3.375   3.404  15.027 -0.7417 -1.6630 -4.1144
14675TIP3    H265441   3.236   3.445  15.071  1.1317  0.9610 -0.1773
14676TIP3   OH265442   1.661   2.082  13.345 -0.4865  0.0930  0.4063
14676TIP3    H165443   1.648   2.017  13.276 -0.0547  0.1297  0.2854
14676TIP3    H265444   1.752   2.111  13.334 -1.0695  1.7195 -0.4047
14677TIP3   OH265445   3.616   1.992  17.171 -0.2180 -0.1615 -0.5254
14677TIP3    H165446   3.568   2.072  17.194  0.1011 -0.3633  0.9059
14677TIP3    H265447   3.677   2.020  17.102  0.2148  0.9473  0.2748
14678TIP3   OH265448   0.700   0.564  12.591  0.8102  0.2988 -0.4665
14678TIP3    H165449   0.696   0.471  12.567  0.3950  0.1510  0.1703
14678TIP3    H265450   0.631   0.605  12.539  0.2815  0.0707  0.0509
14679TIP3   OH265451   3.457   2.392   5.062  0.3494  0.3681 -0.4005
14679TIP3    H165452   3.421   2.326   5.001  1.2446 -0.9838  0.4737
14679TIP3    H265453   3.546   2.362   5.079  0.8949  2.0217 -0.2146
14680TIP3   OH265454   0.166   3.694   4.401  0.1745  0.0842  0.3249
14680TIP3    H165455   0.179   3.772   4.456 -0.2759 -0.1581  0.7758
14680TIP3    H265456   0.072   3.690   4.387  0.1684 -0.5554  0.5495
14681TIP3   OH265457   2.067   4.935  13.086  0.1491  0.0232 -0.4942
14681TIP3    H165458   1.988   4.938  13.031  0.4164 -0.6977 -0.9333
14681TIP3    H265459   2.127   4.997  13.044 -0.3187  0.8835  0.0768
14682TIP3   OH265460   0.209   2.577   3.665  0.2204 -0.4862 -0.0961
14682TIP3    H165461   0.269   2.609   3.597 -0.2813 -1.7702 -1.1780
14682TIP3    H265462   0.121   2.596   3.630 -0.0418 -0.7896  0.3906
14683TIP3   OH265463   3.824   6.527   4.590  0.8990  0.3277 -0.3569
14683TIP3    H165464   3.786   6.614   4.578  1.2362  0.6719  0.9465
14683TIP3    H265465   3.886   6.518   4.517 -0.8544  0.1827 -1.8958
14684TIP3   OH265466   2.437   6.403   1.724 -0.0888 -0.2774 -0.5439
14684TIP3    H165467   2.424   6.387   1.631 -1.2135  0.0859 -0.4555
14684TIP3    H265468   2.442   6.498   1.733  1.1801 -0.3348 -0.3637
14685TIP3   OH265469   2.632   2.061   5.761  0.1652 -0.0152  0.9145
14685TIP3    H165470   2.696   1.990   5.756 -0.3143 -0.5885  2.2533
14685TIP3    H265471   2.658   2.111   5.839 -0.0053  0.7801  0.4748
14686TIP3   OH265472   6.472   4.114   4.691  0.1691  0.5588  0.3791
14686TIP3    H165473   6.403   4.051   4.669  0.8390  0.5476 -2.0417
14686TIP3    H265474   6.550   4.080   4.647  1.0862  1.9281  0.8824
14687TIP3   OH265475   5.748   2.728   4.215  0.5703 -0.0192 -0.0082
14687TIP3    H165476   5.800   2.720   4.135 -0.7621  0.0484 -0.9145
14687TIP3    H265477   5.712   2.640   4.229  1.3099 -0.1894  0.8919
14688TIP3   OH265478   5.149   0.942  11.646 -0.4627  0.0112 -0.2847
14688TIP3    H165479   5.210   1.014  11.635 -0.6240  0.3540  0.9041
14688TIP3    H265480   5.161   0.914  11.737 -3.5496  1.5246  0.7439
14689TIP3   OH265481   3.323   2.692   4.069  0.1288  0.0785 -0.8276
14689TIP3    H165482   3.418   2.687   4.055  0.1543 -0.4049 -0.4882
14689TIP3    H265483   3.290   2.606   4.042 -0.0645 -0.1716  0.1573
14690TIP3   OH265484   0.046   2.245  16.526  0.0373  0.2277 -0.5679
14690TIP3    H165485   0.052   2.150  16.536  0.9246  0.3131 -0.1785
14690TIP3    H265486  -0.014   2.273  16.595  0.2650  0.0119 -0.2805
14691TIP3   OH265487   0.559   2.322   5.817 -0.5005  0.0726  0.1169
14691TIP3    H165488   0.487   2.339   5.878 -1.3588 -1.2836 -0.4616
14691TIP3    H265489   0.555   2.227   5.801  2.2493 -0.2910  1.0586
14692TIP3   OH265490   1.733   6.348   5.918  0.9265  0.5924  0.2068
14692TIP3    H165491   1.786   6.416   5.876 -0.1844  1.1689 -0.3120
14692TIP3    H265492   1.682   6.310   5.846 -0.8825  1.4847  0.9366
14693TIP3   OH265493   0.895   5.538  17.292 -0.7380 -0.1140 -0.3231
14693TIP3    H165494   0.960   5.605  17.313 -1.9632  0.9079  0.3348
14693TIP3    H265495   0.889   5.484  17.370  0.7691 -1.5023 -1.0976
14694TIP3   OH265496   6.406   1.486  11.877  0.6650  0.5086 -0.4684
14694TIP3    H165497   6.358   1.409  11.909  1.9090 -0.2473 -0.3488
14694TIP3    H265498   6.339   1.552  11.862 -0.4898 -0.7260 -0.9295
14695TIP3   OH265499   3.006   0.268  13.847  0.1453  0.2699  0.0646
14695TIP3    H165500   2.989   0.184  13.890 -0.0184  0.1140 -0.2932
14695TIP3    H265501   3.035   0.244  13.759 -3.6550  0.5491 -1.4767
14696TIP3   OH265502   6.525   2.238   5.618  0.2828  0.0986 -0.6819
14696TIP3    H165503   6.591   2.308   5.620 -1.5806  1.9921 -1.8019
14696TIP3    H265504   6.471   2.254   5.695 -0.8036  0.5926 -1.5259
14697TIP3   OH265505   5.823   4.886  17.325 -0.0150  0.8129  0.4690
14697TIP3    H165506   5.733   4.861  17.304  0.1054  1.2643 -0.6752
14697TIP3    H265507   5.837   4.855  17.414 -0.5613 -1.2968 -0.1313
14698TIP3   OH265508   4.638   2.238  17.094  0.4012  0.4476 -0.1892
14698TIP3    H165509   4.687   2.245  17.012 -0.0232  3.4049 -0.2862
14698TIP3    H265510   4.550   2.213  17.068  0.5746  0.1530 -0.5007
14699TIP3   OH265511   2.182   3.989   5.857  0.1512  0.4377  0.6309
14699TIP3    H165512   2.103   4.041   5.841  0.8872  1.4187  0.0705
14699TIP3    H265513   2.246   4.022   5.793  0.9074 -0.5745  0.8427
14700TIP3   OH265514   4.578   5.104   5.782 -0.4168 -0.1342  0.9820
14700TIP3    H165515   4.583   5.041   5.710  0.0843 -0.4222  1.2635
14700TIP3    H265516   4.538   5.054   5.854  0.6742 -0.3593  1.4436
14701TIP3   OH265517   6.164   6.495   2.643  0.2959 -0.0959 -0.0566
14701TIP3    H165518   6.232   6.557   2.617  0.6033 -0.5871 -0.4323
14701TIP3    H265519   6.197   6.409   2.615 -0.9395 -0.2251 -1.2476
14702TIP3   OH265520   1.041   5.315   5.636 -0.6564  0.3994  0.4783
14702TIP3    H165521   0.990   5.280   5.709 -1.7483  1.2456  0.1435
14702TIP3    H265522   1.106   5.247   5.618 -2.1889 -1.1141  0.3763
14703TIP3   OH265523   6.003   2.537  15.729 -0.2074  0.5655  0.8890
14703TIP3    H165524   5.922   2.503  15.768  0.5009  0.1955  2.0932
14703TIP3    H265525   6.023   2.615  15.781 -1.2989  2.3883 -1.2359
14704TIP3   OH265526   5.477   4.101   2.169 -0.7597 -0.2036  0.4914
14704TIP3    H165527   5.430   4.142   2.242 -1.2315 -1.6445  1.0226
14704TIP3    H265528   5.444   4.147   2.091  0.5262  2.0957  1.1974
14705TIP3   OH265529   6.059   3.605  15.729 -0.4014 -0.1467  0.2998
14705TIP3    H165530   6.124   3.656  15.680  0.5698 -0.7859  0.8797
14705TIP3    H265531   6.020   3.547  15.664 -0.8114  0.6483 -0.1691
14706TIP3   OH265532   4.708   4.134   4.437  0.3853 -0.5360  0.0063
14706TIP3    H165533   4.625   4.169   4.469  0.0872 -2.0816  1.0522
14706TIP3    H265534   4.775   4.178   4.489  0.1495 -0.1535 -0.0120
14707TIP3   OH265535   5.967   2.683  12.361 -0.1588  0.4728 -0.0995
14707TIP3    H165536   5.908   2.655  12.291 -0.1865  1.2240 -0.3843
14707TIP3    H265537   6.015   2.604  12.385 -0.1681  0.2025 -0.9402
14708TIP3   OH265538   1.342   2.412   3.741 -0.4972  0.0357 -0.2330
14708TIP3    H165539   1.389   2.426   3.658 -0.9178 -0.5363 -0.5802
14708TIP3    H265540   1.398   2.350   3.789 -0.7219 -0.3864 -0.5057
14709TIP3   OH265541   4.749   1.418   2.473 -0.3483 -0.0184 -0.9354
14709TIP3    H165542   4.715   1.340   2.516 -0.9868 -0.4593 -2.1638
14709TIP3    H265543   4.826   1.388   2.425  0.1633  0.3904 -0.3772
14710TIP3   OH265544   2.375   1.383   2.338  0.2509  0.5912  0.2385
14710TIP3    H165545   2.314   1.396   2.411 -0.4844  0.1914 -0.2856
14710TIP3    H265546   2.347   1.445   2.272 -1.3973 -1.4535 -1.1045
14711TIP3   OH265547   0.679   3.619   1.557  0.3842  0.0599  0.2076
14711TIP3    H165548   0.657   3.526   1.555 -0.8719  0.3227  0.7612
14711TIP3    H265549   0.621   3.660   1.492  1.5406  0.3511 -0.6660
14712TIP3   OH265550   5.215   5.028   5.838  0.0123 -0.4644  0.4042
14712TIP3    H165551   5.144   5.011   5.776  0.1858  0.9116 -0.1915
14712TIP3    H265552   5.272   4.951   5.830 -0.2310 -0.5464 -0.7749
14713TIP3   OH265553   0.383   1.454  16.186  0.1709 -0.7864  0.7433
14713TIP3    H165554   0.457   1.444  16.246  0.7654 -0.6265  0.0447
14713TIP3    H265555   0.308   1.417  16.235  0.5125 -0.1063  1.8169
14714TIP3   OH265556   0.243   2.968  11.148  0.6329 -0.5654  0.4272
14714TIP3    H165557   0.307   2.990  11.215  0.7774  1.0147 -0.1793
14714TIP3    H265558   0.158   2.977  11.191  0.6463  1.8393  0.1196
14715TIP3   OH265559   6.314   0.995  12.123  0.0792 -0.2962 -0.2474
14715TIP3    H165560   6.240   0.979  12.182 -1.2516  0.7343 -1.5533
14715TIP3    H265561   6.328   0.912  12.078 -0.2355 -0.5190  0.0596
14716TIP3   OH265562   1.668   5.156   5.765  0.2982 -0.0776 -0.3668
14716TIP3    H165563   1.743   5.184   5.818  0.0908  0.2577 -0.2429
14716TIP3    H265564   1.593   5.198   5.807 -0.1457 -1.5038  0.3442
14717TIP3   OH265565   1.500   5.593   1.525  0.3259  0.3047 -0.2852
14717TIP3    H165566   1.548   5.653   1.582  1.6222  0.8731 -1.9040
14717TIP3    H265567   1.567   5.556   1.467 -0.9664 -0.0565 -1.6156
14718TIP3   OH265568   4.052   2.027   5.409 -0.1185 -0.0963 -0.3716
14718TIP3    H165569   4.093   2.100   5.364  1.3491  0.0108  1.0431
14718TIP3    H265570   4.108   1.952   5.387  1.6986  0.2602  2.5070
14719TIP3   OH265571   5.606   3.088  15.047  0.2255  0.0524  0.0969
14719TIP3    H165572   5.525   3.046  15.019  0.2957 -1.6052  2.1407
14719TIP3    H265573   5.585   3.181  15.049 -0.9387 -0.1298 -1.4711
14720TIP3   OH265574   1.784   5.520   1.314  0.0602  0.1934  0.6380
14720TIP3    H165575   1.804   5.537   1.406  1.9044 -0.7638  0.4495
14720TIP3    H265576   1.841   5.579   1.265  1.3689 -1.4184  0.1060
14721TIP3   OH265577   3.247   4.264   5.869  0.3315 -0.0525 -0.0943
14721TIP3    H165578   3.322   4.219   5.831  0.0376 -2.7512  2.1602
14721TIP3    H265579   3.259   4.255   5.964 -2.4089  0.0793  0.3622
14722TIP3   OH265580   3.738   2.968   3.389 -0.2039 -0.7498  0.1589
14722TIP3    H165581   3.709   3.051   3.352  3.2680  0.4585 -0.2439
14722TIP3    H265582   3.752   2.911   3.314 -1.5302 -1.3987  0.3647
14723TIP3   OH265583   6.411   0.622  13.431 -0.5009  0.3373  0.0182
14723TIP3    H165584   6.494   0.671  13.427  1.1999 -2.3884 -1.5619
14723TIP3    H265585   6.343   0.689  13.420  1.4686  2.6479  0.9678
14724TIP3   OH265586   2.033   1.168  15.774 -0.0785  0.4395  0.2637
14724TIP3    H165587   1.941   1.171  15.801 -1.1489  1.8085 -2.9960
14724TIP3    H265588   2.076   1.236  15.826 -1.6101  1.7669 -0.1110
14725TIP3   OH265589   1.843   0.616  11.708 -0.0256  0.0424  0.0843
14725TIP3    H165590   1.938   0.618  11.715 -0.0328  0.7536  0.0181
14725TIP3    H265591   1.826   0.607  11.615 -0.0312  0.9608 -0.0065
14726TIP3   OH265592   1.076   6.397  14.099  0.6773 -0.2345 -0.5340
14726TIP3    H165593   1.097   6.368  14.188  0.1663  3.1406  0.8625
14726TIP3    H265594   0.980   6.404  14.098  0.7177  0.3739 -1.1043
14727TIP3   OH265595   5.116   2.429   0.868  0.2273  0.0410 -0.5119
14727TIP3    H165596   5.027   2.451   0.898 -0.2497 -0.1908 -1.7105
14727TIP3    H265597   5.157   2.514   0.853  0.4184  0.1626  0.5863
14728TIP3   OH265598   1.421   3.834  11.573  0.3207  0.3628  0.2281
14728TIP3    H165599   1.480   3.910  11.576 -0.8813  1.3112  0.5528
14728TIP3    H265600   1.333   3.871  11.585 -0.4395 -0.9174 -1.0854
14729TIP3   OH265601   5.822   4.287   1.350  0.1187 -0.0734  0.4575
14729TIP3    H165602   5.789   4.350   1.414 -0.0021 -0.8702  1.1980
14729TIP3    H265603   5.754   4.220   1.346 -0.0967  0.1962 -0.8710
14730TIP3   OH265604   2.801   3.943  10.904  0.6700  0.2496  1.1225
14730TIP3    H165605   2.829   3.889  10.831  0.7907  0.0739  1.2961
14730TIP3    H265606   2.735   4.002  10.867  0.4352 -0.1129  0.9625
14731TIP3   OH265607   1.938   4.248  12.854  0.3694 -0.4563  0.2752
14731TIP3    H165608   1.990   4.326  12.873 -0.4595 -0.7395  4.9080
14731TIP3    H265609   1.997   4.175  12.875  0.1155 -1.0005 -0.8482
14732TIP3   OH265610   6.246   6.559  10.827 -0.3223 -0.3514  0.0296
14732TIP3    H165611   6.274   6.472  10.854 -0.6095 -0.3629  0.2906
14732TIP3    H265612   6.150   6.557  10.832 -0.3077  0.9494  3.2097
14733TIP3   OH265613   0.476   3.544   5.474  0.3060 -0.3468 -0.0921
14733TIP3    H165614   0.397   3.593   5.497  0.8875  1.7116 -2.1538
14733TIP3    H265615   0.447   3.453   5.469 -1.0699 -0.1521  2.7475
14734TIP3   OH265616   5.980   4.742  11.625 -0.0973 -0.2409  0.1532
14734TIP3    H165617   5.915   4.779  11.685  0.6755  0.2051  0.7353
14734TIP3    H265618   5.970   4.794  11.545  0.2256  0.5300  0.5909
14735TIP3   OH265619   3.297   5.565  14.133 -0.6431 -0.1372 -0.8206
14735TIP3    H165620   3.312   5.658  14.120 -0.7518 -0.0988 -0.6830
14735TIP3    H265621   3.352   5.522  14.068  0.9113 -0.0466  0.3856
14736TIP3   OH265622   3.366   6.306   5.307 -0.1842 -0.4448 -0.2934
14736TIP3    H165623   3.376   6.282   5.215 -2.2183 -2.8349  0.0132
14736TIP3    H265624   3.295   6.252   5.339  1.4333 -0.8398  3.1321
14737TIP3   OH265625   4.970   2.368  12.178  0.1713  0.0806  0.3239
14737TIP3    H165626   4.898   2.416  12.137  0.7699 -0.8009 -1.9226
14737TIP3    H265627   4.982   2.291  12.122  2.2507 -0.2775  1.1659
14738TIP3   OH265628   5.077   2.745   6.251  0.6386 -0.1445 -0.0396
14738TIP3    H165629   5.000   2.731   6.195  1.3322 -1.8914 -0.6424
14738TIP3    H265630   5.055   2.821   6.304 -1.6459 -0.8037  0.0430
14739TIP3   OH265631   5.617   4.488  14.247 -0.5260  0.5770  0.5871
14739TIP3    H165632   5.612   4.480  14.342 -1.5741 -0.0981  0.4927
14739TIP3    H265633   5.675   4.418  14.219 -1.0646  0.0922  0.6560
14740TIP3   OH265634   1.069   0.914  10.420 -0.6669 -0.0789 -0.1464
14740TIP3    H165635   1.059   0.844  10.485  1.1055 -0.0697  0.1934
14740TIP3    H265636   1.096   0.868  10.340  0.9510  0.2192  0.2011
14741TIP3   OH265637   4.885   3.296   1.375 -0.4347 -0.4607 -0.0344
14741TIP3    H165638   4.878   3.376   1.323  2.2605  0.7067  1.1864
14741TIP3    H265639   4.876   3.226   1.311  0.4178  0.8755 -1.7195
14742TIP3   OH265640   0.077   1.578   2.950 -0.0527 -0.4485  0.2954
14742TIP3    H165641   0.156   1.630   2.934 -1.9463  1.5927 -3.9743
14742TIP3    H265642   0.038   1.616   3.029  1.1835  1.2372  0.1433
14743TIP3   OH265643   4.935   6.060   5.136  0.7988 -0.1263  0.2185
14743TIP3    H165644   4.933   5.999   5.062  0.3301 -0.1553  0.2482
14743TIP3    H265645   4.956   6.145   5.097  1.2335 -0.2642  0.1466
14744TIP3   OH265646   4.209   1.265  15.165 -0.0243  0.0794 -0.0953
14744TIP3    H165647   4.152   1.208  15.217 -1.2856  0.8636 -0.5708
14744TIP3    H265648   4.261   1.313  15.230 -2.0300  1.5215  0.5622
14745TIP3   OH265649   5.942   1.048   0.913  0.5643 -0.1833 -0.2182
14745TIP3    H165650   5.978   1.080   0.830  0.1336 -1.3097 -0.8602
14745TIP3    H265651   6.015   1.002   0.954  1.2785  1.7808  0.8535
14746TIP3   OH265652   4.366   0.955  11.547 -0.8511 -0.2677  0.0687
14746TIP3    H165653   4.311   1.032  11.539 -1.0601 -0.3848  0.3389
14746TIP3    H265654   4.449   0.980  11.508 -1.0803 -0.0735 -0.2920
14747TIP3   OH265655   4.021   1.408  15.567  0.1002  0.7007 -0.3990
14747TIP3    H165656   4.041   1.345  15.497 -1.2252 -0.6212  0.3675
14747TIP3    H265657   4.093   1.397  15.629 -0.5619 -0.7818  0.1720
14748TIP3   OH265658   6.391   1.784  14.239  0.2747  0.1973 -0.0878
14748TIP3    H165659   6.426   1.697  14.259  1.7736  0.9488  0.7570
14748TIP3    H265660   6.329   1.801  14.310 -2.2343 -1.2659 -1.7551
14749TIP3   OH265661   6.670   1.312  14.721  0.6102  0.3647  0.1148
14749TIP3    H165662   6.752   1.350  14.688  0.7438  1.1251  1.2721
14749TIP3    H265663   6.673   1.220  14.691  1.8013  0.4242  0.0006
14750TIP3   OH265664   4.916   3.218  16.337  0.2204 -0.4319 -0.3674
14750TIP3    H165665   4.839   3.258  16.297 -1.3089 -1.2374  1.5664
14750TIP3    H265666   4.957   3.288  16.387 -0.4466 -0.4448  0.2127
14751TIP3   OH265667   3.748   3.281   4.861  0.0313 -0.5248  0.2198
14751TIP3    H165668   3.743   3.204   4.804 -0.3845  0.1302 -0.6642
14751TIP3    H265669   3.834   3.275   4.903 -0.2570 -1.7929  0.6454
14752TIP3   OH265670   3.712   3.537   5.637  0.3388  0.1015 -0.3119
14752TIP3    H165671   3.768   3.555   5.713 -1.8017 -0.6397  1.5459
14752TIP3    H265672   3.744   3.454   5.602  1.3724  0.4713 -0.2769
14753TIP3   OH265673   0.573   3.392   5.071 -0.0609 -0.2434 -0.0680
14753TIP3    H165674   0.643   3.452   5.044  0.0039 -0.1078  0.3915
14753TIP3    H265675   0.568   3.327   5.001  0.0477  0.1501 -0.4429
14754TIP3   OH265676   5.895   2.104   0.465 -0.1606  0.2624  0.0546
14754TIP3    H165677   5.915   2.067   0.551 -0.1234 -1.1799 -0.5361
14754TIP3    H265678   5.885   2.027   0.408  0.0296  1.1876 -1.2736
14755TIP3   OH265679   1.543   4.574   6.239  0.2454  0.0397  0.3053
14755TIP3    H165680   1.530   4.652   6.186  1.5619  0.9265  1.2230
14755TIP3    H265681   1.458   4.530   6.239 -0.7592  1.8823  0.4024
14756TIP3   OH265682   2.664   6.289   0.229 -0.0833 -0.2193  0.3175
14756TIP3    H165683   2.685   6.284   0.136  0.2025 -2.1355  0.4519
14756TIP3    H265684   2.637   6.200   0.253 -0.1936  0.2420  2.0560
14757TIP3   OH265685   0.188   1.243  12.122  0.2725 -0.4911 -0.2252
14757TIP3    H165686   0.122   1.205  12.181 -1.1419  1.1522 -0.6744
14757TIP3    H265687   0.181   1.193  12.041  1.2033 -1.7981  0.4628
14758TIP3   OH265688   3.186   1.002  16.702 -0.0647 -0.3649  0.1922
14758TIP3    H165689   3.255   1.063  16.724 -2.2589  1.7624  1.7272
14758TIP3    H265690   3.213   0.963  16.619  1.8142  2.0737 -0.4351
14759TIP3   OH265691   1.828   1.729  11.679  0.6305 -0.2842  1.1356
14759TIP3    H165692   1.919   1.699  11.689  0.4834 -1.4516 -0.5562
14759TIP3    H265693   1.782   1.652  11.645 -0.6231  0.7817  0.3487
14760TIP3   OH265694   5.592   4.642   3.003 -0.3001 -0.4811 -0.1376
14760TIP3    H165695   5.613   4.719   2.950  0.0993  1.2094  2.2872
14760TIP3    H265696   5.561   4.678   3.086 -2.4301 -2.9711  0.2896
14761TIP3   OH265697   3.820   4.755   5.982 -0.3281  0.3314  0.1534
14761TIP3    H165698   3.788   4.734   6.070 -1.1474  1.4708  0.1424
14761TIP3    H265699   3.751   4.810   5.944 -0.4232 -0.8738 -1.5492
14762TIP3   OH265700   0.180   5.324  14.537  0.2563  0.2052  0.3459
14762TIP3    H165701   0.148   5.392  14.479  2.8328  0.2156 -1.1897
14762TIP3    H265702   0.156   5.242  14.494 -0.9119  0.1130  1.1055
14763TIP3   OH265703   0.299   6.662  15.550  0.1948 -0.5260 -0.3972
14763TIP3    H165704   0.261   6.586  15.506  0.9014 -1.5660  0.7556
14763TIP3    H265705   0.379   6.630  15.590 -1.7287 -0.4380  4.0803
14764TIP3   OH265706   5.831   1.602  16.772 -0.0469  0.5860  0.4066
14764TIP3    H165707   5.738   1.602  16.794 -0.6418 -1.7883 -1.6265
14764TIP3    H265708   5.836   1.636  16.683  0.6998 -1.3205 -0.3364
14765TIP3   OH265709   2.094   2.416  13.037 -0.4669 -0.4872 -0.0518
14765TIP3    H165710   2.090   2.344  13.099 -0.9806 -0.3572  0.0719
14765TIP3    H265711   2.135   2.487  13.085  2.4485 -1.4271 -0.9222
14766TIP3   OH265712   2.801   2.035  13.215 -0.3758  0.1774 -0.2663
14766TIP3    H165713   2.805   1.997  13.303 -0.3496  0.0152 -0.3380
14766TIP3    H265714   2.807   1.960  13.156 -1.9991  0.1129 -0.3971
14767TIP3   OH265715   0.667   6.197   2.514  0.5025 -0.2014  1.1246
14767TIP3    H165716   0.608   6.184   2.589  0.2489 -0.1542  0.9345
14767TIP3    H265717   0.624   6.264   2.461 -0.8579 -2.2880 -0.6216
14768TIP3   OH265718   0.992   5.546   2.665 -0.1067 -0.3541  0.3662
14768TIP3    H165719   1.015   5.637   2.685 -0.0002 -0.3631  0.2856
14768TIP3    H265720   0.954   5.513   2.746  2.0431 -0.9583  1.1992
14769TIP3   OH265721   0.298   0.474   3.775  0.0475  0.4509 -0.1180
14769TIP3    H165722   0.229   0.488   3.711  0.6914  1.4244 -0.6221
14769TIP3    H265723   0.349   0.401   3.741 -0.7618 -0.3403  0.3067
14770TIP3   OH265724   1.958   6.132   0.401 -0.1474  0.2149 -0.4339
14770TIP3    H165725   1.993   6.124   0.490 -2.3798  1.0641  0.5902
14770TIP3    H265726   2.035   6.127   0.345  1.4032  0.2288  1.5727
14771TIP3   OH265727   5.499   3.946   5.774  0.5588 -0.3705 -0.4501
14771TIP3    H165728   5.518   3.853   5.761  1.0001 -0.4254  0.5202
14771TIP3    H265729   5.500   3.958   5.869  1.5622  0.8295 -0.5846
14772TIP3   OH265730   4.001   0.769  14.037  0.0828  0.7207 -0.3891
14772TIP3    H165731   4.048   0.758  13.955 -1.4788 -1.5793 -1.0822
14772TIP3    H265732   4.069   0.792  14.100  1.5296  1.2340 -2.0516
14773TIP3   OH265733   6.712   4.657  17.252  0.1090  0.4552 -0.0635
14773TIP3    H165734   6.797   4.613  17.261 -0.4941 -0.7214  0.0960
14773TIP3    H265735   6.654   4.589  17.219 -1.0581  0.9014  0.9823
14774TIP3   OH265736   0.783   0.494  17.264 -0.4145 -0.0344  0.4749
14774TIP3    H165737   0.841   0.539  17.325 -1.4209  0.2935  1.2115
14774TIP3    H265738   0.804   0.401  17.275  0.2380  0.1027  0.4379
14775TIP3   OH265739   2.837   3.402   2.486 -0.1571 -0.8837 -0.5421
14775TIP3    H165740   2.808   3.414   2.577  0.1193 -1.4752 -0.3734
14775TIP3    H265741   2.893   3.324   2.489  2.9067  1.1619 -0.5431
14776TIP3   OH265742   0.741   1.403  14.607 -0.2559 -0.5033  0.5309
14776TIP3    H165743   0.719   1.496  14.617 -0.2472 -0.4533  0.1105
14776TIP3    H265744   0.767   1.375  14.695 -1.0236 -0.3116  0.8243
14777TIP3   OH265745   0.559   1.843   0.141  0.0632  0.0286  0.7022
14777TIP3    H165746   0.471   1.809   0.157 -1.1444  2.2733 -0.7550
14777TIP3    H265747   0.602   1.774   0.090 -0.7426 -1.1760  1.5862
14778TIP3   OH265748   5.021   0.878  15.953 -0.0494  0.3071  0.2900
14778TIP3    H165749   5.029   0.901  16.046  0.1880 -0.4489  0.4699
14778TIP3    H265750   4.931   0.848  15.944  0.5104 -1.7742  0.8237
14779TIP3   OH265751   2.081   5.040   4.956  0.2593 -0.6300  0.0174
14779TIP3    H165752   2.136   4.979   5.006 -0.0890 -0.5683  0.4787
14779TIP3    H265753   2.012   4.984   4.920  1.1635 -0.8904 -1.4028
14780TIP3   OH265754   5.605   6.561  11.166  0.0422  0.5462  0.0537
14780TIP3    H165755   5.684   6.544  11.115  0.7529 -0.5366  1.4709
14780TIP3    H265756   5.635   6.607  11.244 -0.9481  1.5966 -0.1537
14781TIP3   OH265757   6.217   0.144  16.449  0.1259 -0.4655 -0.0465
14781TIP3    H165758   6.267   0.090  16.510 -0.3443 -0.6499  0.1799
14781TIP3    H265759   6.197   0.086  16.375 -1.1580 -0.8835  0.6026
14782TIP3   OH265760   3.084   3.564   4.123  0.0538 -0.4776 -0.1149
14782TIP3    H165761   3.102   3.480   4.165 -2.6684 -0.8533  0.5173
14782TIP3    H265762   3.139   3.627   4.171  1.3209 -1.7195  0.1194
14783TIP3   OH265763   0.325   5.205  12.315  0.4925  0.5561 -0.3149
14783TIP3    H165764   0.343   5.159  12.397  0.9859  1.1375 -0.0916
14783TIP3    H265765   0.251   5.262  12.336  1.0120  1.1544 -0.1028
14784TIP3   OH265766   0.786   1.855   3.805 -0.4111 -0.3875 -0.0386
14784TIP3    H165767   0.744   1.941   3.809  0.3381  0.1717 -2.5480
14784TIP3    H265768   0.720   1.794   3.840 -2.2677  0.7951 -1.3087
14785TIP3   OH265769   1.611   5.118   1.347  0.8025  0.1075  0.0456
14785TIP3    H165770   1.650   5.046   1.398 -0.1365 -1.6504 -1.5772
14785TIP3    H265771   1.600   5.081   1.259 -0.3523  2.0408 -0.6715
14786TIP3   OH265772   0.097   2.401  15.504 -0.1682 -0.4350 -0.3046
14786TIP3    H165773   0.054   2.487  15.506  1.7029  0.5313  0.5469
14786TIP3    H265774   0.073   2.360  15.587  1.5051  0.6321  0.7523
14787TIP3   OH265775   0.101   2.541   1.419  0.2279  0.0404  0.0435
14787TIP3    H165776   0.157   2.468   1.448 -1.8372 -1.8029 -0.3203
14787TIP3    H265777   0.072   2.582   1.500  0.1814 -0.5342  0.3242
14788TIP3   OH265778   3.725   2.191  16.247 -0.0309  0.6572  0.0848
14788TIP3    H165779   3.635   2.158  16.250  0.0427  0.5058  1.0247
14788TIP3    H265780   3.719   2.272  16.197 -0.6595  0.5454 -0.0344
14789TIP3   OH265781   6.183   3.391   0.635  1.0367  0.0533  0.2740
14789TIP3    H165782   6.252   3.409   0.699  1.4396 -3.1559  0.8918
14789TIP3    H265783   6.173   3.473   0.587  2.0273  2.0580  3.1915
14790TIP3   OH265784   2.090   0.678  14.864 -0.5289  1.0770  0.6557
14790TIP3    H165785   2.156   0.640  14.923 -0.2747  2.4255  1.2701
14790TIP3    H265786   2.134   0.754  14.825 -1.5527  1.7124  0.7041
14791TIP3   OH265787   3.806   5.748  13.462  0.5296 -0.1412  0.0435
14791TIP3    H165788   3.789   5.770  13.371 -0.3607  0.8068  0.4170
14791TIP3    H265789   3.892   5.787  13.480  0.3416  0.3950 -0.1726
14792TIP3   OH265790   3.088   1.491   1.654  0.1942  0.1642 -0.2208
14792TIP3    H165791   3.044   1.441   1.723 -0.7868  1.6471  0.2790
14792TIP3    H265792   3.042   1.465   1.573 -0.0737  0.0080 -0.0199
14793TIP3   OH265793   2.272   3.745  13.081  0.3307  0.3014  0.0691
14793TIP3    H165794   2.335   3.676  13.102 -1.1876 -0.6549  1.7255
14793TIP3    H265795   2.213   3.705  13.017  0.0898  0.4145  0.2178
14794TIP3   OH265796   6.557   5.485  15.486 -0.5084 -0.4152  0.4643
14794TIP3    H165797   6.536   5.511  15.575 -2.3661 -0.3277  0.0448
14794TIP3    H265798   6.563   5.389  15.489 -0.5289 -0.4090  0.6935
14795TIP3   OH265799   0.387   3.158  13.550  0.1179  0.1861  0.2995
14795TIP3    H165800   0.381   3.096  13.477 -0.5260 -1.0493  1.3570
14795TIP3    H265801   0.415   3.240  13.509  0.7649 -0.7209 -1.1915
14796TIP3   OH265802   5.406   4.672  12.008  0.1355 -0.0187 -0.3192
14796TIP3    H165803   5.364   4.657  11.923  0.2606 -1.2280 -0.1859
14796TIP3    H265804   5.439   4.586  12.034  0.1373  0.3385  0.9358
14797TIP3   OH265805   0.449   5.031  12.823 -0.1698  0.1337  0.3044
14797TIP3    H165806   0.360   5.065  12.826  0.1731  1.0125  0.7224
14797TIP3    H265807   0.485   5.050  12.909  1.3577  2.3796 -0.7433
14798TIP3   OH265808   3.015   3.924   2.934 -0.2007  0.0190 -0.1119
14798TIP3    H165809   2.951   3.984   2.972  0.6036  1.4661 -0.9354
14798TIP3    H265810   3.097   3.946   2.978  0.5200  0.9807 -1.8312
14799TIP3   OH265811   4.745   0.235   5.945  0.1736  0.8895  0.7556
14799TIP3    H165812   4.764   0.287   5.866 -0.8842  0.7063  0.3575
14799TIP3    H265813   4.666   0.187   5.922  1.0264 -0.7748  1.1862
14800TIP3   OH265814   1.796   6.475   1.926 -0.2758  0.5620  0.5367
14800TIP3    H165815   1.774   6.543   1.862  0.1233 -0.4535 -0.7180
14800TIP3    H265816   1.726   6.411   1.918  0.4680 -0.2103  0.1684
14801TIP3   OH265817   3.778   6.089   1.126 -0.4093  0.2845  0.0450
14801TIP3    H165818   3.770   6.071   1.033  2.1418 -3.9781  0.4166
14801TIP3    H265819   3.702   6.046   1.165 -0.3396  0.2365  0.1262
14802TIP3   OH265820   0.427   5.617   0.743  0.4711 -0.0550 -0.0883
14802TIP3    H165821   0.433   5.691   0.803 -0.3534 -0.0602  0.0170
14802TIP3    H265822   0.333   5.603   0.732  0.6174 -0.6797 -0.6113
14803TIP3   OH265823   3.196   4.083  11.606  0.6068  0.1947  0.3572
14803TIP3    H165824   3.225   4.086  11.514 -0.8783  1.3860 -0.1024
14803TIP3    H265825   3.253   4.017  11.646 -0.6294 -2.6058 -2.1087
14804TIP3   OH265826   3.669   5.971  15.544 -0.3485 -0.9069  0.0310
14804TIP3    H165827   3.689   5.883  15.515  1.3674  0.2370 -2.6167
14804TIP3    H265828   3.745   6.023  15.519 -1.1108  1.2936  1.8670
14805TIP3   OH265829   5.878   5.777   3.274  0.1970 -0.2792  0.5121
14805TIP3    H165830   5.826   5.845   3.232  0.3168 -0.6769 -0.3070
14805TIP3    H265831   5.945   5.825   3.324  1.4555  0.2438 -1.5517
14806TIP3   OH265832   5.268   2.149  12.396  0.3066  0.1765 -0.4626
14806TIP3    H165833   5.358   2.180  12.388  0.2656  0.3525 -0.2633
14806TIP3    H265834   5.271   2.082  12.464  0.1624  0.6981  0.0624
14807TIP3   OH265835   6.712   3.238  13.995  0.1313  0.5581 -0.5607
14807TIP3    H165836   6.716   3.306  14.063 -0.7328  0.2001 -0.1363
14807TIP3    H265837   6.670   3.282  13.920  0.0786  0.6508 -0.4781
14808TIP3   OH265838   4.779   0.622   0.151 -0.2254  0.3494 -0.5555
14808TIP3    H165839   4.727   0.702   0.145 -0.2394  0.3672 -0.2197
14808TIP3    H265840   4.777   0.599   0.244  2.1237  1.5140 -0.1255
14809TIP3   OH265841   4.863   4.658   1.513 -0.1186 -0.4719  0.2263
14809TIP3    H165842   4.940   4.714   1.528 -0.1291  0.0187 -1.3103
14809TIP3    H265843   4.839   4.626   1.600  0.2902  1.4067  1.1004
14810TIP3   OH265844   2.512   4.437   1.989 -0.2878  0.0137 -0.0728
14810TIP3    H165845   2.452   4.364   2.000  0.4371 -0.4062  1.3225
14810TIP3    H265846   2.591   4.398   1.952 -0.2732  0.2678 -0.3092
14811TIP3   OH265847   0.642   2.106   3.785  0.2501  0.1301 -0.9925
14811TIP3    H165848   0.574   2.142   3.728 -0.2548 -0.0698 -0.5271
14811TIP3    H265849   0.675   2.182   3.834  0.3463  0.2228 -1.1999
14812TIP3   OH265850   3.452   4.549  15.518 -0.0408  0.3469  0.1762
14812TIP3    H165851   3.487   4.464  15.492 -1.6286 -0.4492  0.5506
14812TIP3    H265852   3.358   4.543  15.502 -0.2570  1.8569  0.6862
14813TIP3   OH265853   0.158   4.008   5.201 -0.2531 -0.1826  0.0485
14813TIP3    H165854   0.229   3.989   5.138  1.1023 -2.3927  2.0668
14813TIP3    H265855   0.120   3.922   5.220 -3.1964  0.8840 -0.5212
14814TIP3   OH265856   1.527   5.143   5.366 -0.2201 -0.2901  0.2691
14814TIP3    H165857   1.614   5.150   5.326 -0.7574  2.0261 -0.6807
14814TIP3    H265858   1.523   5.216   5.428 -0.8846 -1.4409  1.6504
14815TIP3   OH265859   2.816   3.245   0.749 -0.5017  0.5192 -0.4227
14815TIP3    H165860   2.856   3.191   0.681 -0.3717 -0.6870  0.5695
14815TIP3    H265861   2.759   3.185   0.797  1.1862  0.6955  1.9984
14816TIP3   OH265862   2.168   4.518  16.605 -0.3399 -0.2656 -0.5678
14816TIP3    H165863   2.243   4.577  16.617  0.6013 -1.2388 -1.4602
14816TIP3    H265864   2.109   4.566  16.547  0.6082 -0.3343 -1.6272
14817TIP3   OH265865   3.562   2.129   1.806 -0.4193  0.0796  0.0167
14817TIP3    H165866   3.532   2.212   1.844 -1.0929 -0.5933  0.9978
14817TIP3    H265867   3.483   2.078   1.791  0.0734 -1.8340  2.9189
14818TIP3   OH265868   5.636   0.614   6.435  0.2402 -0.1582 -0.1712
14818TIP3    H165869   5.648   0.696   6.387 -0.6887  1.0670  1.5791
14818TIP3    H265870   5.541   0.603   6.439  0.3585 -1.9974 -1.4022
14819TIP3   OH265871   6.646   6.077  11.596 -0.0408 -0.4561  0.8795
14819TIP3    H165872   6.661   6.097  11.689 -0.8011 -1.2366  1.1855
14819TIP3    H265873   6.553   6.052  11.592  0.6903 -3.4630  0.4866
14820TIP3   OH265874   0.725   0.592   3.289 -0.0312  0.6298  0.9294
14820TIP3    H165875   0.720   0.587   3.193 -1.8138  0.3723  0.9971
14820TIP3    H265876   0.758   0.680   3.307 -0.0097  0.8014  0.0873
14821TIP3   OH265877   3.340   2.781  13.045  0.3106 -0.3255  0.0164
14821TIP3    H165878   3.388   2.818  13.120 -0.4996  0.9494 -0.0704
14821TIP3    H265879   3.394   2.802  12.969 -0.5112  1.4324 -0.1223
14822TIP3   OH265880   2.383   1.901   4.442 -0.5469  0.0147  0.0018
14822TIP3    H165881   2.356   1.909   4.534 -1.4557 -1.4102 -0.1127
14822TIP3    H265882   2.461   1.846   4.444 -0.3831  0.2438 -0.0581
14823TIP3   OH265883   0.443   2.593   6.070  0.2837 -0.0310  0.3463
14823TIP3    H165884   0.424   2.659   6.004  0.6360 -0.5371 -0.2705
14823TIP3    H265885   0.390   2.517   6.044  3.1224 -1.5483 -1.5125
14824TIP3   OH265886   5.938   2.546  11.464  0.0206  0.0557 -0.2563
14824TIP3    H165887   5.959   2.639  11.461  2.8172 -0.2278  3.7058
14824TIP3    H265888   5.872   2.538  11.533 -0.3313 -0.9333 -0.6771
14825TIP3   OH265889   4.735   4.673  14.037 -0.4982 -0.2142 -0.4674
14825TIP3    H165890   4.670   4.720  13.985 -1.4550 -0.9452  0.0367
14825TIP3    H265891   4.812   4.730  14.036 -2.0332  2.1131  1.2437
14826TIP3   OH265892   2.026   0.226   2.094  0.5131 -0.3041 -0.5721
14826TIP3    H165893   2.087   0.300   2.098 -1.6568  1.6535 -0.8748
14826TIP3    H265894   1.996   0.225   2.003  0.0333 -1.1665 -0.4148
14827TIP3   OH265895   6.136   0.099  12.224  0.0438  0.0277 -0.2247
14827TIP3    H165896   6.221   0.065  12.195 -0.5905 -2.0379  0.1663
14827TIP3    H265897   6.158   0.159  12.295  1.2769  1.0820 -1.4440
14828TIP3   OH265898   3.083   0.733   1.974 -0.5450 -0.2213 -0.1947
14828TIP3    H165899   3.124   0.815   2.001 -1.5118  0.4197 -0.6147
14828TIP3    H265900   3.110   0.669   2.040 -2.7950  1.2609  2.3367
14829TIP3   OH265901   5.199   5.890  12.265 -0.0072  0.3848 -0.0602
14829TIP3    H165902   5.201   5.813  12.208 -0.3550  0.2408  0.1227
14829TIP3    H265903   5.182   5.963  12.206  2.3737  0.6226 -0.5584
14830TIP3   OH265904   1.186   2.443  11.647  0.5124 -0.1375 -0.1179
14830TIP3    H165905   1.277   2.451  11.618 -0.1135  1.6845 -1.8419
14830TIP3    H265906   1.162   2.531  11.674 -1.5679  0.1217 -2.5080
14831TIP3   OH265907   4.775   4.938   1.431  0.1199 -0.2571 -0.2448
14831TIP3    H165908   4.774   5.033   1.425 -0.1931 -0.2948 -0.8351
14831TIP3    H265909   4.851   4.918   1.487 -0.7248  0.3918  1.1880
14832TIP3   OH265910   0.070   2.190  15.346 -0.3018 -0.0169 -0.7741
14832TIP3    H165911   0.150   2.139  15.360  0.4897  0.7352 -2.3335
14832TIP3    H265912   0.075   2.260  15.411 -1.8210 -2.2480  1.9872
14833TIP3   OH265913   4.030   5.412  15.915  0.1856 -0.1611  0.7814
14833TIP3    H165914   4.001   5.406  16.006 -0.1562 -0.1892  0.6725
14833TIP3    H265915   3.967   5.359  15.866  1.6931 -2.0995  0.8144
14834TIP3   OH265916   0.704   3.256   0.036 -0.2281 -0.3257  0.5533
14834TIP3    H165917   0.793   3.281   0.061  0.2151  0.1340 -1.2688
14834TIP3    H265918   0.648   3.324   0.072  0.2217 -0.2961  1.2114
14835TIP3   OH265919   5.662   3.273   4.701  0.0965 -0.0936 -0.2866
14835TIP3    H165920   5.610   3.205   4.659  0.6025 -2.1252  2.1526
14835TIP3    H265921   5.600   3.319   4.758  0.4575 -1.0216  0.8931
14836TIP3   OH265922   4.889   6.579   1.981  0.0816  0.5076  0.3199
14836TIP3    H165923   4.906   6.656   1.927 -2.1991 -0.2765 -1.7330
14836TIP3    H265924   4.794   6.568   1.978  0.1578 -1.3535  2.0611
14837TIP3   OH265925   5.294   2.118   4.590  0.3314  0.0156 -0.3956
14837TIP3    H165926   5.297   2.087   4.499  0.2194 -1.5654  0.1114
14837TIP3    H265927   5.385   2.118   4.618  0.2871 -0.3345 -0.2470
14838TIP3   OH265928   6.222   4.053  16.615 -0.3153  0.0878  0.3569
14838TIP3    H165929   6.295   4.090  16.566 -2.0434  2.8951 -0.3191
14838TIP3    H265930   6.173   4.002  16.550 -1.1514  1.6425 -0.3092
14839TIP3   OH265931   2.136   5.337   5.820  0.4355  0.2856  0.4986
14839TIP3    H165932   2.203   5.401   5.795  0.8428 -0.5300 -0.5577
14839TIP3    H265933   2.176   5.252   5.802 -0.6275 -0.2344  0.5378
14840TIP3   OH265934   6.646   5.951  13.041 -0.4037  0.3521 -0.2172
14840TIP3    H165935   6.603   5.921  12.961 -0.8892 -0.4772  0.3482
14840TIP3    H265936   6.731   5.984  13.011 -0.8125  0.6006 -1.1471
14841TIP3   OH265937   3.799   4.948  14.393  0.0704  0.0658 -0.7053
14841TIP3    H165938   3.728   4.943  14.457 -0.7387 -0.1689 -1.6018
14841TIP3    H265939   3.799   5.039  14.364  0.7646  0.2965 -0.0363
14842TIP3   OH265940   1.248   0.979   3.494  0.2879  0.3213 -0.5413
14842TIP3    H165941   1.289   1.052   3.540  0.5028 -0.4085  0.4596
14842TIP3    H265942   1.264   0.997   3.401 -0.5303  2.0407 -0.3863
14843TIP3   OH265943   5.370   6.269  11.588  0.2860 -0.0020  0.5895
14843TIP3    H165944   5.392   6.342  11.529  0.5904 -1.1312 -0.7446
14843TIP3    H265945   5.275   6.271  11.594 -0.2458 -2.2524 -3.3276
14844TIP3   OH265946   1.076   0.821   3.988  0.4945  0.1726  0.2055
14844TIP3    H165947   1.022   0.863   4.055 -3.6018 -0.8042 -2.0856
14844TIP3    H265948   1.058   0.727   3.997  4.7261 -0.7112  1.4377
14845TIP3   OH265949   0.450   2.381  15.381 -0.3129 -0.1763  0.8703
14845TIP3    H165950   0.436   2.457  15.438  0.3741 -0.4327  1.3941
14845TIP3    H265951   0.535   2.345  15.409 -0.2086 -0.6115  0.0294
14846TIP3   OH265952   6.566   5.063  16.705 -0.0098 -0.6217  0.0222
14846TIP3    H165953   6.595   5.147  16.669  0.1745 -0.8751 -0.4278
14846TIP3    H265954   6.538   5.084  16.794  0.4967 -0.1675  0.0855
14847TIP3   OH265955   6.101   1.100   1.727 -0.1562  0.1433  0.0415
14847TIP3    H165956   6.021   1.135   1.766 -0.3577 -1.3122  0.9984
14847TIP3    H265957   6.157   1.078   1.802  0.2547 -0.8492 -0.5315
14848TIP3   OH265958   2.862   4.988  14.177  0.2393  0.2515 -0.2065
14848TIP3    H165959   2.791   5.047  14.149  1.0997  1.2009 -0.4419
14848TIP3    H265960   2.823   4.900  14.171 -0.4391  0.6212 -1.8776
14849TIP3   OH265961   6.303   4.684  13.775  0.3073  0.8119  0.0316
14849TIP3    H165962   6.364   4.754  13.798  0.2045  1.9255 -2.7311
14849TIP3    H265963   6.229   4.729  13.733  0.1859 -0.9117 -1.7530
14850TIP3   OH265964   1.364   6.709   4.094 -0.2983 -0.0809 -0.1323
14850TIP3    H165965   1.425   6.782   4.103  0.4214 -0.6087 -0.6081
14850TIP3    H265966   1.380   6.676   4.005 -2.3802  0.7421 -0.8789
14851TIP3   OH265967   2.752   4.678  12.579 -0.1803  0.5872 -0.1390
14851TIP3    H165968   2.677   4.735  12.562 -0.4087  0.5056  0.5598
14851TIP3    H265969   2.805   4.726  12.642  1.3453  1.4720 -2.0012
14852TIP3   OH265970   3.646   4.510   0.368 -0.0575 -0.3214 -0.5195
14852TIP3    H165971   3.636   4.605   0.368 -2.2650 -0.4939 -0.0231
14852TIP3    H265972   3.665   4.488   0.460 -1.3370 -0.4628 -0.2667
14853TIP3   OH265973   2.737   6.688   1.916  0.0558  0.2348 -0.0011
14853TIP3    H165974   2.779   6.767   1.883  2.2242 -0.2584  1.3129
14853TIP3    H265975   2.740   6.626   1.843  0.4921  0.6380 -0.3283
14854TIP3   OH265976   4.427   1.724  13.277  0.6447  0.1938 -0.6009
14854TIP3    H165977   4.420   1.648  13.219 -3.4634  0.4652 -0.7553
14854TIP3    H265978   4.457   1.689  13.360  0.3162 -1.3339 -1.1014
14855TIP3   OH265979   3.956   4.645  11.374  0.8161  0.2769  0.1956
14855TIP3    H165980   3.950   4.582  11.445  1.0180  0.1165  0.0722
14855TIP3    H265981   3.866   4.672  11.357  0.5070 -1.4393 -1.0760
14856TIP3   OH265982   6.624   6.157   6.147  0.2045 -0.0152 -0.2117
14856TIP3    H165983   6.550   6.216   6.133 -0.5152 -0.6357  0.7712
14856TIP3    H265984   6.583   6.075   6.175  1.2786 -0.2516  0.7258
14857TIP3   OH265985   2.710   0.973   6.021 -0.4679  0.0465 -0.6503
14857TIP3    H165986   2.743   1.030   5.952  0.5033 -1.4737 -1.4983
14857TIP3    H265987   2.654   1.030   6.074 -1.8983  1.1145 -3.1311
14858TIP3   OH265988   6.258   0.131  10.681  0.5695 -0.7258 -0.2331
14858TIP3    H165989   6.302   0.177  10.752  1.1517  1.2373 -1.7625
14858TIP3    H265990   6.280   0.039  10.695  3.7334 -0.0389  0.0995
14859TIP3   OH265991   4.475   0.739  13.954 -0.3181  0.7339 -0.0806
14859TIP3    H165992   4.413   0.795  13.910 -0.0595  2.7952  1.9857
14859TIP3    H265993   4.422   0.668  13.990 -0.5978 -0.7111 -3.0321
14860TIP3   OH265994   4.669   4.739  12.131 -0.5901 -0.1260  0.2275
14860TIP3    H165995   4.662   4.695  12.046 -0.6054  0.4394 -0.0698
14860TIP3    H265996   4.740   4.693  12.175 -0.5299 -0.3771 -0.1229
14861TIP3   OH265997   0.858   3.018  13.031  0.6902  0.0313  0.1257
14861TIP3    H165998   0.930   3.072  12.999  0.2364 -0.0752 -1.1368
14861TIP3    H265999   0.847   2.951  12.963 -2.0824  1.3905 -0.8943
14862TIP3   OH266000   4.063   3.173   4.925 -0.0645 -0.0329 -0.3003
14862TIP3    H166001   4.120   3.251   4.921 -1.2940  0.8695 -0.9164
14862TIP3    H266002   4.080   3.128   4.842  0.3970 -0.2497 -0.0937
14863TIP3   OH266003   5.225   3.465  10.865  0.1767 -0.2834 -0.2652
14863TIP3    H166004   5.263   3.441  10.780  0.0498 -0.9654 -0.1343
14863TIP3    H266005   5.300   3.473  10.923  0.3263  0.8382 -0.5811
14864TIP3   OH266006   1.736   6.643   1.725  0.5464 -0.5292  0.1035
14864TIP3    H166007   1.775   6.692   1.653 -1.0121  0.1855 -0.2931
14864TIP3    H266008   1.711   6.710   1.788  1.6222 -1.1247  1.2153
14865TIP3   OH266009   0.233   1.421   2.792  0.2936  0.1234  0.7409
14865TIP3    H166010   0.264   1.504   2.755 -0.3789  0.0492 -0.0098
14865TIP3    H266011   0.166   1.447   2.856 -2.1328  0.1138 -1.6122
14866TIP3   OH266012   3.640   4.524  16.324  0.3489  0.1694 -0.4163
14866TIP3    H166013   3.556   4.486  16.301 -0.2017  0.0164  1.6412
14866TIP3    H266014   3.635   4.615  16.294 -0.5732  0.1691 -0.2858
14867TIP3   OH266015   1.423   2.628  16.486 -0.7500 -0.0619 -0.3412
14867TIP3    H166016   1.425   2.692  16.415  0.1954  0.1423 -0.1494
14867TIP3    H266017   1.391   2.678  16.562  0.1318  0.2266 -0.1558
14868TIP3   OH266018   6.695   3.876   6.119  0.0075 -0.2133  0.1787
14868TIP3    H166019   6.687   3.967   6.146 -1.1342  0.2524 -1.5301
14868TIP3    H266020   6.604   3.845   6.110  0.3597 -1.2047 -0.1935
14869TIP3   OH266021   3.566   4.170   0.013 -0.2033 -0.2578  0.4871
14869TIP3    H166022   3.477   4.133   0.013 -0.1710 -0.6817 -3.2203
14869TIP3    H266023   3.553   4.265   0.015 -0.7726 -0.3126 -0.2603
14870TIP3   OH266024   0.899   1.555  15.272 -0.0603 -0.0154  0.5537
14870TIP3    H166025   0.895   1.464  15.303 -0.3340  0.1797  1.1216
14870TIP3    H266026   0.900   1.607  15.353  1.3415  0.4560  0.2531
14871TIP3   OH266027   4.398   1.690   3.853  0.5372 -0.1275  0.1186
14871TIP3    H166028   4.416   1.736   3.934  1.5073  2.7594 -1.5849
14871TIP3    H266029   4.321   1.734   3.817 -0.3464 -1.8541 -0.2569
14872TIP3   OH266030   6.158   3.566   2.833 -0.1005  0.1879 -0.6462
14872TIP3    H166031   6.198   3.526   2.910  1.4210 -0.1047 -1.5466
14872TIP3    H266032   6.070   3.528   2.829  0.7216 -1.8694 -0.5538
14873TIP3   OH266033   1.546   6.254   3.064 -0.2573 -0.6727  0.0482
14873TIP3    H166034   1.531   6.173   3.015 -0.4749  0.4630 -1.8664
14873TIP3    H266035   1.555   6.321   2.997  4.1681  0.3137  1.2541
14874TIP3   OH266036   4.654   3.883  15.453 -1.0323  0.3396 -0.0326
14874TIP3    H166037   4.674   3.791  15.436  0.1075  0.5605  0.0042
14874TIP3    H266038   4.564   3.883  15.486 -0.4315 -0.9605  1.7661
14875TIP3   OH266039   1.297   0.631   6.102 -0.6323 -0.5912  0.2140
14875TIP3    H166040   1.236   0.668   6.037 -1.0065 -0.6367  0.5351
14875TIP3    H266041   1.262   0.658   6.186  0.1420 -0.1062  0.3866
14876TIP3   OH266042   2.189   4.891   0.360 -0.0551 -0.0157  0.0811
14876TIP3    H166043   2.256   4.826   0.337  2.1081  1.3018  2.2910
14876TIP3    H266044   2.119   4.840   0.400  1.1300 -1.1319  0.8090
14877TIP3   OH266045   6.376   1.154   5.503 -0.4131 -0.5182 -0.0524
14877TIP3    H166046   6.352   1.145   5.595  1.0446 -0.3257  0.3665
14877TIP3    H266047   6.465   1.118   5.497  0.9919  2.6903 -0.6140
14878TIP3   OH266048   4.056   1.779  15.349 -0.0317 -0.1453  0.6667
14878TIP3    H166049   4.081   1.845  15.285  0.8606  1.0759  2.1853
14878TIP3    H266050   3.992   1.824  15.406  0.3798 -0.6573  1.5565
14879TIP3   OH266051   1.711   5.406  17.143 -0.3569  0.1388 -0.5563
14879TIP3    H166052   1.780   5.425  17.080 -0.0859  0.2496 -0.2231
14879TIP3    H266053   1.756   5.388  17.225 -0.6259 -1.3264 -0.6935
14880TIP3   OH266054   2.807   2.600  14.104 -0.1276 -0.0730  0.0008
14880TIP3    H166055   2.877   2.564  14.049  1.3161  0.5820  1.3505
14880TIP3    H266056   2.733   2.540  14.090  1.3527 -2.0443  0.1339
14881TIP3   OH266057   1.576   1.255   1.886 -0.1068  0.1865  0.1158
14881TIP3    H166058   1.627   1.201   1.947 -0.7319  0.4470  0.8734
14881TIP3    H266059   1.487   1.223   1.894 -0.2882  0.5892 -0.2655
14882TIP3   OH266060   3.185   1.376  15.371  0.5477 -0.2125  0.5184
14882TIP3    H166061   3.102   1.357  15.328 -0.4051  0.3016  2.0562
14882TIP3    H266062   3.213   1.459  15.333  1.4625 -1.3713 -1.5158
14883TIP3   OH266063   6.180   2.398  11.595 -0.3723 -0.0399 -0.0483
14883TIP3    H166064   6.257   2.452  11.578 -0.5902  0.2039 -0.2745
14883TIP3    H266065   6.114   2.432  11.535 -0.2239 -1.1817 -0.9031
14884TIP3   OH266066   2.281   4.601  13.909  0.6511  0.0806 -0.2285
14884TIP3    H166067   2.228   4.532  13.950  0.1126  1.0989  0.8346
14884TIP3    H266068   2.324   4.645  13.981  0.4320  1.3173 -0.8271
14885TIP3   OH266069   6.678   0.041  14.471 -0.0793  0.1050 -0.0721
14885TIP3    H166070   6.699   0.083  14.388  0.9364 -1.8225 -0.8324
14885TIP3    H266071   6.738   0.081  14.534 -1.1160  1.8602 -0.0980
14886TIP3   OH266072   6.252   2.510   1.199  0.2068  0.4437 -0.5808
14886TIP3    H166073   6.233   2.588   1.251  1.4989  0.6785 -0.4293
14886TIP3    H266074   6.187   2.512   1.129 -0.4504  1.0710  0.0352
14887TIP3   OH266075   4.183   4.476  14.639  0.2111 -0.2181  0.6797
14887TIP3    H166076   4.177   4.569  14.662  0.1191  0.1316 -0.6507
14887TIP3    H266077   4.107   4.460  14.583  1.3582 -0.5386 -0.8469
14888TIP3   OH266078   1.435   4.593   0.850  0.1727 -0.5427  0.2859
14888TIP3    H166079   1.360   4.571   0.905 -0.6160 -2.3215 -1.3687
14888TIP3    H266080   1.444   4.688   0.858 -0.2984 -0.6484  2.8976
14889TIP3   OH266081   1.202   4.964  17.263  0.2147  0.5738 -0.1918
14889TIP3    H166082   1.293   4.992  17.266 -0.1029  1.5326  1.3990
14889TIP3    H266083   1.152   5.045  17.249 -0.4165  0.0760 -0.9614
14890TIP3   OH266084   2.906   6.046   0.192 -0.4337 -0.3936  0.1870
14890TIP3    H166085   2.854   6.125   0.208 -0.0708 -0.4820  2.0028
14890TIP3    H266086   2.997   6.075   0.206 -0.1803 -0.7840 -0.6416
14891TIP3   OH266087   6.671   0.802  14.784  0.0670 -0.6266 -0.0989
14891TIP3    H166088   6.692   0.750  14.707  0.7774  0.1489 -0.4501
14891TIP3    H266089   6.576   0.809  14.784  0.0944  0.0768 -1.4048
14892TIP3   OH266090   3.452   2.482  16.683 -0.6804 -0.2694  0.5116
14892TIP3    H166091   3.490   2.439  16.759  1.6339 -1.7487 -1.3049
14892TIP3    H266092   3.528   2.507  16.630 -2.1691  1.3811 -0.9722
14893TIP3   OH266093   2.859   4.685   1.326  0.0247 -0.3949  0.1422
14893TIP3    H166094   2.840   4.599   1.362 -1.2414 -1.0091 -1.8174
14893TIP3    H266095   2.818   4.747   1.386  0.7427 -1.1448  1.4359
14894TIP3   OH266096   6.279   2.217   5.401  0.2424 -0.1820  0.0111
14894TIP3    H166097   6.281   2.240   5.494  1.1674  1.7509 -0.4294
14894TIP3    H266098   6.364   2.176   5.385  1.2472  1.9357 -0.4777
14895TIP3   OH266099   0.654   2.485  11.155  0.5196 -0.2790 -0.6189
14895TIP3    H166100   0.713   2.426  11.202  0.9810  0.7938  0.1756
14895TIP3    H266101   0.704   2.513  11.078  0.1561 -1.2048 -1.2074
14896TIP3   OH266102   1.459   0.400  13.708  0.3116  0.5483  0.1763
14896TIP3    H166103   1.431   0.476  13.759  0.1880  0.3793  0.3572
14896TIP3    H266104   1.546   0.424  13.676  0.5813  0.4707  0.8392
14897TIP3   OH266105   3.161   6.220   2.808  0.3962 -0.5765 -0.0078
14897TIP3    H166106   3.099   6.237   2.879  0.0041 -0.1647 -0.4369
14897TIP3    H266107   3.191   6.307   2.781 -1.5146 -0.4791 -2.1448
14898TIP3   OH266108   3.994   0.276   4.809 -0.0238  0.2909 -0.5927
14898TIP3    H166109   3.977   0.370   4.805 -1.9494  0.0514  0.7618
14898TIP3    H266110   4.028   0.261   4.897 -2.0621 -0.5553  0.1178
14899TIP3   OH266111   6.057   4.676  14.608  0.0960  0.4217  0.4792
14899TIP3    H166112   5.987   4.617  14.580  0.9095 -0.5803  0.4607
14899TIP3    H266113   6.137   4.633  14.577  0.6356  2.5503 -1.3302
14900TIP3   OH266114   0.348   5.350   1.427  0.5257 -0.7626  0.1217
14900TIP3    H166115   0.324   5.424   1.483  0.1408 -0.7817 -0.0181
14900TIP3    H266116   0.437   5.371   1.398  0.3452 -0.2417 -0.0862
14901TIP3   OH266117   3.146   5.027  14.050 -0.9171  0.0733  0.0179
14901TIP3    H166118   3.234   5.031  14.013 -0.1098  2.2255  1.9117
14901TIP3    H266119   3.088   5.037  13.975  0.4040 -1.6345 -1.3005
14902TIP3   OH266120   1.409   0.582   5.110  0.1308  0.4068  0.0906
14902TIP3    H166121   1.339   0.535   5.155 -0.4423 -0.7033 -1.8807
14902TIP3    H266122   1.487   0.566   5.165 -0.0896 -2.6504 -0.3129
14903TIP3   OH266123   2.118   6.421  12.143 -0.3061 -0.3525 -0.2576
14903TIP3    H166124   2.173   6.462  12.077  0.0275  1.9343  1.3402
14903TIP3    H266125   2.179   6.375  12.201 -0.3667 -0.4302 -0.2549
14904TIP3   OH266126   2.426   6.553   4.429  0.3447 -0.0797  0.1554
14904TIP3    H166127   2.444   6.647   4.436  1.4880 -0.3092  0.5325
14904TIP3    H266128   2.421   6.537   4.334 -0.2275  0.4161  0.0954
14905TIP3   OH266129   5.465   2.308   4.440  0.1600  0.4360  0.4270
14905TIP3    H166130   5.453   2.268   4.527 -1.5293  1.0399  0.5217
14905TIP3    H266131   5.506   2.392   4.458 -0.2837  0.6070  0.6658
14906TIP3   OH266132   4.808   1.030  15.091 -0.1420 -0.4736  0.1932
14906TIP3    H166133   4.744   1.094  15.121  0.1806  0.0152 -0.1546
14906TIP3    H266134   4.888   1.080  15.075 -0.1296 -0.8043 -0.9068
14907TIP3   OH266135   0.600   5.132   1.515 -0.5117  0.4019 -0.6952
14907TIP3    H166136   0.626   5.102   1.601 -1.9332 -0.1033 -0.4100
14907TIP3    H266137   0.512   5.096   1.502 -0.5090  0.8308 -2.1678
14908TIP3   OH266138   2.273   6.012   4.190 -0.6769 -0.0076 -0.8040
14908TIP3    H166139   2.181   6.018   4.218  0.0195  0.6298  1.6193
14908TIP3    H266140   2.323   6.033   4.269  1.6149 -2.7367 -1.3748
14909TIP3   OH266141   4.423   6.530  16.482  0.3783 -0.3391 -0.0067
14909TIP3    H166142   4.432   6.556  16.574 -0.3195 -1.1429  0.3090
14909TIP3    H266143   4.391   6.608  16.437  2.8988  0.7490 -0.0217
14910TIP3   OH266144   1.111   4.694  11.253 -0.6633  0.5309  0.0535
14910TIP3    H166145   1.149   4.687  11.341 -1.4582 -1.5542  0.2854
14910TIP3    H266146   1.016   4.696  11.268 -0.8327 -0.4964 -0.7627
14911TIP3   OH266147   2.660   6.265   3.231  0.5855 -0.2966  0.2191
14911TIP3    H166148   2.609   6.247   3.309 -3.2264  1.1299 -1.6598
14911TIP3    H266149   2.736   6.315   3.262 -0.3962 -0.3689  2.9871
14912TIP3   OH266150   0.718   3.355  13.982 -0.6267 -0.0152  0.4063
14912TIP3    H166151   0.682   3.286  13.926 -0.2032  0.5052 -0.5310
14912TIP3    H266152   0.693   3.436  13.939  0.7632  0.3780  0.2831
14913TIP3   OH266153   0.679   5.957   0.356 -0.4330  0.3646 -0.0993
14913TIP3    H166154   0.766   5.994   0.370 -1.2029  2.9201 -1.3456
14913TIP3    H266155   0.653   5.922   0.441  1.0377  1.3572  0.7977
14914TIP3   OH266156   2.989   4.631  16.460  0.4130 -0.2187 -0.0511
14914TIP3    H166157   2.933   4.600  16.389  0.0510 -2.4786  1.1304
14914TIP3    H266158   2.945   4.709  16.493 -0.7422 -0.5706 -0.6946
14915TIP3   OH266159   3.042   2.383  15.125  0.4499 -0.2788  0.3423
14915TIP3    H166160   3.070   2.458  15.179 -0.8259  2.6397 -2.6846
14915TIP3    H266161   2.956   2.360  15.160  0.3440  0.4638  0.5990
14916TIP3   OH266162   3.204   5.028   0.889 -0.5936 -0.3697 -0.7066
14916TIP3    H166163   3.129   5.087   0.895 -1.4727 -1.5470  0.6800
14916TIP3    H266164   3.165   4.940   0.885  0.6594 -1.0913  1.3209
14917TIP3   OH266165   3.285   1.278   2.707  0.1915 -0.0436 -0.1733
14917TIP3    H166166   3.335   1.335   2.649 -0.5949  0.8450 -0.0033
14917TIP3    H266167   3.212   1.247   2.654 -1.5762  2.2189  0.7566
14918TIP3   OH266168   3.406   6.135   2.965 -0.6338  0.4040  0.2544
14918TIP3    H166169   3.368   6.200   3.024 -2.9001  1.0616 -1.7481
14918TIP3    H266170   3.427   6.185   2.886  0.9244 -0.6966 -0.0589
14919TIP3   OH266171   4.966   5.902   0.325 -0.2103 -0.0329 -0.2942
14919TIP3    H166172   5.024   5.834   0.292 -1.1359 -0.1322 -1.7764
14919TIP3    H266173   4.910   5.858   0.389  1.1917  0.0297  1.0311
14920TIP3   OH266174   4.046   0.211  14.845 -0.4083 -0.3481 -1.0975
14920TIP3    H166175   4.085   0.297  14.862  0.2844 -0.5944 -1.4031
14920TIP3    H266176   4.112   0.164  14.794 -0.4711 -1.3134 -0.3283
14921TIP3   OH266177   1.942   2.857   2.656  0.4890 -0.0952  0.3584
14921TIP3    H166178   1.950   2.769   2.694 -0.0443  0.1073  0.9669
14921TIP3    H266179   1.852   2.883   2.676  0.8227  0.8244  0.7121
14922TIP3   OH266180   6.118   6.464   0.757 -0.2924  0.0087 -0.1696
14922TIP3    H166181   6.064   6.535   0.722  0.2820  0.8649  0.5997
14922TIP3    H266182   6.151   6.499   0.841 -0.4823 -1.4050  0.5207
14923TIP3   OH266183   6.246   4.528  17.277 -0.5790 -0.7400  0.2261
14923TIP3    H166184   6.325   4.476  17.289  2.0979  2.8236 -0.3704
14923TIP3    H266185   6.231   4.569  17.362 -0.6079  0.1177 -0.1872
14924TIP3   OH266186   0.953   5.908   5.715 -0.5429  0.3214  0.4739
14924TIP3    H166187   1.016   5.945   5.653  0.5798 -0.6307  1.0121
14924TIP3    H266188   0.958   5.814   5.701  0.6365 -0.0305  2.8153
14925TIP3   OH266189   0.018   6.225  15.071  0.4450  0.6081 -0.4616
14925TIP3    H166190  -0.047   6.174  15.118  0.8081  0.3865 -0.1945
14925TIP3    H266191  -0.001   6.316  15.095  2.1380  0.3735  2.1234
14926TIP3   OH266192   2.601   5.553  14.511 -0.2251  0.5646 -0.1679
14926TIP3    H166193   2.526   5.569  14.568  0.0781 -0.0644  0.4365
14926TIP3    H266194   2.589   5.612  14.437  0.1025  2.4607  1.2363
14927TIP3   OH266195   3.684   3.993   1.389  0.0253 -0.8097 -0.9069
14927TIP3    H166196   3.737   3.964   1.315 -0.3649  0.1757 -1.6045
14927TIP3    H266197   3.709   3.936   1.462  1.7704 -0.5899 -1.3073
14928TIP3   OH266198   5.806   0.118  12.958 -0.1114  0.0078 -0.2972
14928TIP3    H166199   5.774   0.131  13.047  0.2253  2.5990 -0.4703
14928TIP3    H266200   5.740   0.160  12.902  0.3135 -0.4464 -1.1675
14929TIP3   OH266201   1.386   1.447   0.437  0.2348 -0.5707  0.5741
14929TIP3    H166202   1.334   1.370   0.459 -0.8210  0.4467  1.7963
14929TIP3    H266203   1.330   1.498   0.378  1.2554 -1.1010 -0.9112
14930TIP3   OH266204   3.341   5.462  17.071 -0.2770  0.0724  0.2678
14930TIP3    H166205   3.342   5.370  17.046 -0.6922  0.0795  0.2225
14930TIP3    H266206   3.322   5.509  16.990 -0.6050  0.1620  0.3979
14931TIP3   OH266207   4.055   3.139  11.507  0.0209 -0.1703 -0.1566
14931TIP3    H166208   3.966   3.167  11.484  0.1419 -0.2216 -0.7121
14931TIP3    H266209   4.059   3.047  11.482 -0.9287 -1.2785  3.2651
14932TIP3   OH266210   0.099   1.140   1.579  0.1669  0.3780 -0.2751
14932TIP3    H166211   0.096   1.224   1.626  2.7783  0.3397  0.1412
14932TIP3    H266212   0.114   1.075   1.648 -0.9164 -0.3404 -0.6947
14933TIP3   OH266213   2.234   6.507   3.467 -0.7652 -0.6934  0.2269
14933TIP3    H166214   2.175   6.555   3.526 -1.7517  1.6370 -2.3927
14933TIP3    H266215   2.177   6.475   3.397  0.7296 -0.5903 -1.0893
14934TIP3   OH266216   2.430   2.877   0.392  0.4980  0.0335  0.2937
14934TIP3    H166217   2.466   2.835   0.470 -1.6373 -0.5006  1.0591
14934TIP3    H266218   2.465   2.966   0.394  1.6444 -0.4065  1.0237
14935TIP3   OH266219   1.665   4.779  14.363  0.2988  0.3534 -0.0663
14935TIP3    H166220   1.612   4.742  14.434  0.5206 -4.0075 -1.8199
14935TIP3    H266221   1.755   4.773  14.394  0.2244  1.7349  0.4951
14936TIP3   OH266222   1.954   4.268   2.872 -0.2325  0.3420  0.5132
14936TIP3    H166223   1.987   4.331   2.808  0.2054 -0.2373  0.1564
14936TIP3    H266224   1.866   4.299   2.893 -0.3979  0.5230 -0.3987
14937TIP3   OH266225   0.426   4.898  16.260 -0.0465  0.0161  0.4491
14937TIP3    H166226   0.382   4.958  16.200 -0.7968 -0.1301  0.8359
14937TIP3    H266227   0.519   4.921  16.254 -0.4336  2.1118  1.5626
14938TIP3   OH266228   0.365   4.576  16.969  0.2119  0.3560  0.0351
14938TIP3    H166229   0.361   4.671  16.966  1.2853  0.3803 -1.3586
14938TIP3    H266230   0.457   4.555  16.985 -0.0672 -0.4572  0.6767
14939TIP3   OH266231   5.603   4.447  13.868 -0.1496 -0.2726 -0.0998
14939TIP3    H166232   5.583   4.456  13.775  0.2995  2.7212 -0.0142
14939TIP3    H266233   5.684   4.396  13.870  0.8674  1.1902 -1.5380
14940TIP3   OH266234   5.233   0.475  15.666  0.3608 -0.5827  0.3453
14940TIP3    H166235   5.324   0.497  15.646  0.3094  0.4199  1.0936
14940TIP3    H266236   5.184   0.497  15.587  0.7405 -0.9552  0.0050
14941TIP3   OH266237   3.814   4.019   5.508  0.1331  0.2944 -0.8529
14941TIP3    H166238   3.770   3.998   5.590  0.7655 -0.3247 -0.6664
14941TIP3    H266239   3.745   4.017   5.442 -0.3217  0.4948 -0.3851
14942TIP3   OH266240   4.526   4.472  17.041  0.2228  0.6812  0.0165
14942TIP3    H166241   4.597   4.424  17.084 -0.1339  0.2758  0.1547
14942TIP3    H266242   4.455   4.472  17.106 -0.0951  0.6174 -0.3289
14943TIP3   OH266243   5.872   5.375  12.840  0.5378  0.3707 -0.1041
14943TIP3    H166244   5.823   5.294  12.824  1.5653 -0.3329  0.1595
14943TIP3    H266245   5.805   5.442  12.854 -0.3738  0.0866 -2.6965
14944TIP3   OH266246   0.898   1.410   1.614  0.4875  0.4013  0.0216
14944TIP3    H166247   0.874   1.444   1.527 -0.0094 -2.6079 -1.1304
14944TIP3    H266248   0.824   1.433   1.670 -1.7810 -2.1386 -1.6816
14945TIP3   OH266249   5.314   5.277   2.832 -0.2483  0.5867 -0.5208
14945TIP3    H166250   5.231   5.317   2.805 -0.0176  0.6273 -1.1773
14945TIP3    H266251   5.303   5.263   2.927 -0.1265  2.6936 -0.1419
14946TIP3   OH266252   0.789   0.166   1.968 -0.6271 -0.2466  0.1665
14946TIP3    H166253   0.813   0.196   2.056 -1.4283 -1.5413  0.8520
14946TIP3    H266254   0.847   0.092   1.951  0.7871  1.0800 -1.1897
14947TIP3   OH266255   6.194   0.884  11.813  0.0697  0.2343  0.7561
14947TIP3    H166256   6.216   0.845  11.898 -2.6599 -1.7961  0.6702
14947TIP3    H266257   6.158   0.970  11.835  3.2053  1.5967  1.1990
14948TIP3   OH266258   0.249   3.167   3.249  0.4910 -0.2495 -0.1164
14948TIP3    H166259   0.274   3.075   3.244  0.8620 -0.1418 -0.2681
14948TIP3    H266260   0.305   3.204   3.318  0.0504 -0.2329  0.2325
14949TIP3   OH266261   0.303   2.358   5.900  0.4129  0.3795  0.0575
14949TIP3    H166262   0.238   2.335   5.967 -1.3337 -2.6369 -2.3921
14949TIP3    H266263   0.253   2.405   5.833  1.4346  0.6344 -0.5485
14950TIP3   OH266264   5.085   5.132  14.048 -0.4467  0.4545 -0.2479
14950TIP3    H166265   5.070   5.195  14.119 -0.4478  0.4113 -0.2099
14950TIP3    H266266   5.009   5.073  14.052 -0.2212  0.1788  0.0045
14951TIP3   OH266267   5.213   0.530   0.039 -0.2617 -0.1490  0.1705
14951TIP3    H166268   5.135   0.567  -0.001  1.4420  0.8208 -2.5760
14951TIP3    H266269   5.263   0.606   0.070  1.1138 -0.3934 -1.2743
14952TIP3   OH266270   1.078   0.125   1.438  0.1540  0.5617 -0.4184
14952TIP3    H166271   1.008   0.134   1.502  0.4994  2.8016 -0.2658
14952TIP3    H266272   1.037   0.082   1.363 -0.6565 -0.6386  0.6673
14953TIP3   OH266273   1.713   6.081  11.148 -0.0235  0.3570 -0.2342
14953TIP3    H166274   1.718   6.075  11.053  1.0059 -1.4385 -0.1099
14953TIP3    H266275   1.653   6.011  11.173 -0.5872  1.0632  0.4303
14954TIP3   OH266276   6.563   6.421   5.440 -0.3881 -0.6101 -0.3209
14954TIP3    H166277   6.541   6.332   5.413 -0.9792 -1.1140  1.6408
14954TIP3    H266278   6.506   6.477   5.387 -1.0794 -1.4994 -0.5344
14955TIP3   OH266279   2.518   6.620   0.709  0.0067  0.3641 -0.6607
14955TIP3    H166280   2.521   6.537   0.757 -1.9766  0.9161  0.4677
14955TIP3    H266281   2.442   6.612   0.652  1.2877  0.4413 -2.5027
14956TIP3   OH266282   6.334   5.330  16.796  0.0764 -0.2109  0.4274
14956TIP3    H166283   6.298   5.416  16.819 -1.2149 -0.9117  1.1858
14956TIP3    H266284   6.362   5.339  16.705  1.9705  1.6163  1.1356
14957TIP3   OH266285   0.339   0.928   6.316 -0.4226 -0.5021  0.6986
14957TIP3    H166286   0.362   0.914   6.408  0.4858 -0.1719  0.5354
14957TIP3    H266287   0.326   1.023   6.309 -1.4949 -0.6357  0.6963
14958TIP3   OH266288   4.731   1.610   3.033 -0.4838  0.6347 -0.2702
14958TIP3    H166289   4.761   1.519   3.024  1.4429  1.1344  0.5062
14958TIP3    H266290   4.759   1.652   2.952 -0.9601  0.6529 -0.4285
14959TIP3   OH266291   5.749   2.634   5.955 -0.5575 -0.0542  0.0043
14959TIP3    H166292   5.747   2.566   6.021  1.2001 -2.1028 -1.8715
14959TIP3    H266293   5.682   2.608   5.891 -2.1549  1.8227  0.8273
14960TIP3   OH266294   1.398   0.166   3.764  0.5252 -1.0347 -0.1361
14960TIP3    H166295   1.349   0.215   3.830  1.5117 -0.9894  0.5861
14960TIP3    H266296   1.332   0.141   3.699 -0.5620 -1.5261  1.1141
14961TIP3   OH266297   0.943   1.742  16.206 -0.1089  0.4977 -0.3519
14961TIP3    H166298   0.867   1.694  16.173  0.2500  0.6042 -1.3692
14961TIP3    H266299   1.014   1.679  16.205 -0.3303  0.1604  1.3861
14962TIP3   OH266300   2.020   0.666  11.293  0.0608  0.4277 -0.0122
14962TIP3    H166301   2.083   0.596  11.314  0.0886  0.8180  1.3010
14962TIP3    H266302   2.010   0.662  11.198  0.4508 -1.0286 -0.0082
14963TIP3   OH266303   2.726   0.691   3.719  0.1092 -0.2282  0.6111
14963TIP3    H166304   2.636   0.714   3.742  0.3742  2.1223 -0.4261
14963TIP3    H266305   2.775   0.705   3.799 -0.3396 -1.0422  1.0462
14964TIP3   OH266306   4.549   1.352  16.249 -0.0004  0.8081  0.5346
14964TIP3    H166307   4.625   1.405  16.222  0.4840  0.4511  1.1625
14964TIP3    H266308   4.575   1.315  16.333 -1.0329  0.9805  0.9384
14965TIP3   OH266309   0.166   6.356  13.518 -0.1953  0.5822  0.2266
14965TIP3    H166310   0.178   6.407  13.598 -0.8699 -0.1278  0.8093
14965TIP3    H266311   0.134   6.419  13.454 -1.2197  0.8699  0.9848
14966TIP3   OH266312   1.147   5.946   6.193  0.0908 -0.1243  0.2586
14966TIP3    H166313   1.149   5.851   6.206  1.5287  0.0189  1.3698
14966TIP3    H266314   1.091   5.979   6.263  0.7112 -0.0542  0.7288
14967TIP3   OH266315   2.198   4.950  16.274  0.0889 -0.0640 -0.5342
14967TIP3    H166316   2.277   4.994  16.303 -0.7660  2.5585 -1.9024
14967TIP3    H266317   2.227   4.861  16.251  2.0712 -0.0083  1.4464
14968TIP3   OH266318   1.517   3.494   3.407 -0.4259  0.1311  0.2918
14968TIP3    H166319   1.453   3.423   3.403 -1.6496  1.1535  1.0338
14968TIP3    H266320   1.491   3.545   3.483  0.6681  1.1596 -0.0038
14969TIP3   OH266321   0.428   4.695   5.387 -0.0164  0.2818  0.2240
14969TIP3    H166322   0.384   4.624   5.432 -0.1898 -0.9228 -1.7051
14969TIP3    H266323   0.521   4.680   5.404 -0.0974  0.0717  0.4856
14970TIP3   OH266324   3.612   0.243  14.626  0.1078 -0.3723  0.0570
14970TIP3    H166325   3.679   0.191  14.668  0.5103  1.4548  1.8041
14970TIP3    H266326   3.537   0.238  14.685  0.6213  2.0717  1.0403
14971TIP3   OH266327   0.216   6.256   1.751 -0.1478 -0.1643  0.1522
14971TIP3    H166328   0.188   6.179   1.801  0.2300  0.4177  1.3048
14971TIP3    H266329   0.164   6.328   1.787 -0.7187  0.0954 -1.1264
14972TIP3   OH266330   5.426   1.690  15.114  0.1555 -0.5575 -0.1145
14972TIP3    H166331   5.341   1.675  15.072 -0.4512 -0.9136  1.1751
14972TIP3    H266332   5.414   1.657  15.203  0.5426  2.5318  1.1861
14973TIP3   OH266333   3.727   0.881   5.006  0.4958 -0.2678 -0.0562
14973TIP3    H166334   3.731   0.973   4.980  1.7586 -0.5299 -0.8933
14973TIP3    H266335   3.662   0.879   5.076 -0.1659  1.1172 -0.5883
14974TIP3   OH266336   4.924   4.520   0.120 -0.3599 -0.1719  0.1886
14974TIP3    H166337   4.858   4.506   0.052 -1.2558 -0.9218  1.1574
14974TIP3    H266338   4.995   4.566   0.077 -0.4349 -1.5610 -1.5040
14975TIP3   OH266339   2.135   3.748  11.879 -0.0359  0.7127  0.3595
14975TIP3    H166340   2.145   3.840  11.855  1.2007  0.7718  1.0346
14975TIP3    H266341   2.145   3.700  11.797  2.7052  0.9968  0.4250
14976TIP3   OH266342   0.954   1.368  12.008 -0.0521  0.3595 -0.1643
14976TIP3    H166343   0.964   1.433  11.938  1.1151  1.5972  1.0819
14976TIP3    H266344   1.036   1.318  12.006 -1.4750 -2.1277 -2.0198
14977TIP3   OH266345   5.066   1.360  13.325  0.3369  0.3301  0.2428
14977TIP3    H166346   5.101   1.322  13.406  0.7423  0.5973  0.1938
14977TIP3    H266347   5.061   1.454  13.343 -0.2100  0.3137  0.1939
14978TIP3   OH266348   1.458   2.013  12.501 -0.2460  0.0081 -0.3607
14978TIP3    H166349   1.413   2.094  12.475 -0.9818  1.0564  3.4696
14978TIP3    H266350   1.389   1.960  12.542  0.8629 -1.0804  0.1470
14979TIP3   OH266351   1.216   3.397   6.382 -0.1125  0.1606  0.0923
14979TIP3    H166352   1.203   3.491   6.369 -1.7489  0.0878  0.8821
14979TIP3    H266353   1.308   3.388   6.407  0.4838  1.3416 -1.5495
14980TIP3   OH266354   6.510   1.695  15.353  0.2557  0.0013 -0.7734
14980TIP3    H166355   6.439   1.631  15.351 -0.0649  0.3588 -1.0333
14980TIP3    H266356   6.467   1.780  15.339  0.6292  0.3128 -0.1205
14981TIP3   OH266357   5.728   6.051  15.498 -0.3845 -0.0752 -0.2965
14981TIP3    H166358   5.670   6.060  15.422  0.1136 -1.0417 -0.8264
14981TIP3    H266359   5.708   6.126  15.553 -2.2458 -0.4633 -0.3732
14982TIP3   OH266360   4.107   6.295  14.689  0.1741  0.5767  0.4161
14982TIP3    H166361   4.086   6.260  14.603  0.6160  0.0927  0.5067
14982TIP3    H266362   4.200   6.278  14.701 -0.3146 -1.4084  1.9137
14983TIP3   OH266363   4.348   1.182   1.936  0.4881 -0.5666 -0.1593
14983TIP3    H166364   4.299   1.255   1.975 -0.5577 -2.0267  1.4003
14983TIP3    H266365   4.396   1.222   1.863 -0.7755  1.4848  0.0469
14984TIP3   OH266366   6.065   6.208   5.559 -0.0314  0.1694 -0.1563
14984TIP3    H166367   6.069   6.187   5.466  2.5533 -0.5765  0.0288
14984TIP3    H266368   5.975   6.235   5.574 -0.5890  0.0531 -2.8053
14985TIP3   OH266369   3.970   4.442   3.269 -0.1214  0.2125  0.1963
14985TIP3    H166370   4.051   4.414   3.226 -0.1178  0.5243 -0.0051
14985TIP3    H266371   3.995   4.520   3.320 -0.8343  2.0478 -2.0732
14986TIP3   OH266372   6.641   2.918  14.739  0.7304  0.2967  0.7061
14986TIP3    H166373   6.676   2.911  14.828  1.7869  0.4819  0.3251
14986TIP3    H266374   6.698   2.862  14.686 -0.3677 -0.4394  0.2627
14987TIP3   OH266375   2.203   2.656  15.903 -0.7727  0.0850  0.4825
14987TIP3    H166376   2.143   2.719  15.943 -1.6194 -0.7636  0.5882
14987TIP3    H266377   2.289   2.679  15.938 -0.9586  1.5398  0.0625
14988TIP3   OH266378   0.621   5.560   5.606  0.2400 -0.3384  0.5079
14988TIP3    H166379   0.704   5.513   5.611  0.2142 -0.3327  1.0780
14988TIP3    H266380   0.638   5.643   5.651 -0.2383 -0.5846  1.1586
14989TIP3   OH266381   3.741   3.137  17.352  0.2575  0.3950 -0.1457
14989TIP3    H166382   3.744   3.051  17.395  0.6734 -0.0334 -1.0111
14989TIP3    H266383   3.763   3.119  17.261  1.2550  1.5414 -0.1535
14990TIP3   OH266384   5.106   4.562  15.041 -0.2587  0.6334 -0.4526
14990TIP3    H166385   5.018   4.536  15.068 -1.0543  1.9048 -1.7206
14990TIP3    H266386   5.161   4.539  15.116 -1.4587 -1.2285 -0.0682
14991TIP3   OH266387   6.098   6.677  16.997  0.1302 -0.1062 -0.1052
14991TIP3    H166388   6.113   6.696  17.090  0.6658  3.3154 -0.7316
14991TIP3    H266389   6.011   6.713  16.979 -0.1585 -1.1588 -0.8425
14992TIP3   OH266390   6.540   0.736  12.273  0.7882  0.3086  0.3947
14992TIP3    H166391   6.485   0.703  12.345  0.8127  2.4751  1.5052
14992TIP3    H266392   6.614   0.676  12.270 -1.5675 -2.7670 -1.2038
14993TIP3   OH266393   5.156   4.978   2.765  0.9203 -0.3675 -0.0939
14993TIP3    H166394   5.223   4.964   2.832  0.3244  0.4457  0.6934
14993TIP3    H266395   5.195   5.041   2.704 -0.0595  2.2692  1.8415
14994TIP3   OH266396   6.058   2.392  13.799  0.6233  0.4784 -0.0342
14994TIP3    H166397   6.105   2.475  13.804 -0.7762  1.2849  0.2319
14994TIP3    H266398   5.989   2.400  13.866  0.1353 -0.6742 -0.3818
14995TIP3   OH266399   0.807   1.453  14.025 -0.4967  0.6087 -0.0647
14995TIP3    H166400   0.784   1.360  14.021 -0.5149  0.6505 -1.7766
14995TIP3    H266401   0.793   1.478  14.116 -0.2872 -1.1177  0.4680
14996TIP3   OH266402   5.305   6.232  13.617  0.1059 -0.4473  0.2522
14996TIP3    H166403   5.309   6.136  13.616 -1.0377 -0.5303  1.3356
14996TIP3    H266404   5.387   6.260  13.577  0.9898 -1.8668  0.9951
14997TIP3   OH266405   2.039   3.049  12.120  0.0116  0.7602  0.7702
14997TIP3    H166406   2.107   3.113  12.140  0.2692  0.3642  1.1873
14997TIP3    H266407   2.036   3.046  12.025  1.3025  0.0415  0.7335
14998TIP3   OH266408   3.408   6.397  16.694 -0.2776 -0.8678  0.4884
14998TIP3    H166409   3.400   6.470  16.755 -0.1534  0.2155 -0.7534
14998TIP3    H266410   3.449   6.435  16.616 -2.2920 -1.7201 -1.0710
14999TIP3   OH266411   0.789   3.474   4.814 -0.4279 -0.1750  0.3061
14999TIP3    H166412   0.716   3.536   4.821 -0.1239  0.2972 -0.4761
14999TIP3    H266413   0.844   3.511   4.745  0.7288 -0.3490  1.1163
15000TIP3   OH266414   6.095   4.960   2.601  0.1758 -0.0070 -0.6108
15000TIP3    H166415   6.027   5.021   2.628 -0.2223 -1.1702  1.1706
15000TIP3    H266416   6.166   4.974   2.663  0.1581 -1.1937 -0.3022
15001TIP3   OH266417   0.419   0.738   3.099  0.4483  0.2778 -0.2213
15001TIP3    H166418   0.472   0.771   3.171 -0.1273  0.7783 -0.0162
15001TIP3    H266419   0.384   0.816   3.056  0.5062 -0.0219 -0.8344
15002TIP3   OH266420   5.210   2.689   4.568  0.1663 -0.2110  0.7666
15002TIP3    H166421   5.211   2.594   4.582  0.7697 -0.2478  0.5128
15002TIP3    H266422   5.246   2.700   4.480 -0.5323  0.2174  0.5248
15003TIP3   OH266423   3.240   6.071  12.632  0.4562 -0.5092  0.9201
15003TIP3    H166424   3.294   6.146  12.659  1.5934 -1.2403  0.7548
15003TIP3    H266425   3.255   6.006  12.701  0.5878 -1.0925  0.3435
15004TIP3   OH266426   6.454   6.082  15.183 -0.4207  0.4294  0.1906
15004TIP3    H166427   6.457   6.178  15.180  0.0248  0.4011 -0.9346
15004TIP3    H266428   6.366   6.060  15.150 -1.0193  0.4706  1.7125
15005TIP3   OH266429   1.329   4.740   2.253  0.3088  0.4715 -0.3284
15005TIP3    H166430   1.396   4.808   2.243  0.4590  0.2863 -0.5913
15005TIP3    H266431   1.250   4.788   2.280  0.2501  0.8222 -1.0902
15006TIP3   OH266432   2.853   5.921   0.831  0.7621  0.0459  0.6043
15006TIP3    H166433   2.838   5.997   0.888 -0.5025  1.0812 -1.0264
15006TIP3    H266434   2.765   5.893   0.806  1.2787 -0.5637 -0.6049
15007TIP3   OH266435   2.365   3.191   2.731  0.0425  0.2973 -0.0084
15007TIP3    H166436   2.385   3.222   2.643  0.4100  1.4560  0.4629
15007TIP3    H266437   2.273   3.215   2.745 -0.2965 -0.7265 -0.4082
15008TIP3   OH266438   2.230   0.599  11.463 -0.6381 -0.6691 -0.2455
15008TIP3    H166439   2.259   0.544  11.390  0.6370 -0.5189  0.1207
15008TIP3    H266440   2.285   0.677  11.457  0.1712 -1.0654  1.4326
15009TIP3   OH266441   4.985   6.299   5.014  0.0664 -0.4750 -0.6059
15009TIP3    H166442   5.032   6.382   5.005  0.7388 -0.5760  1.4654
15009TIP3    H266443   4.930   6.294   4.936  1.0627  1.2271 -1.4735
15010TIP3   OH266444   1.341   3.711   1.911 -0.3881  0.4535 -0.1383
15010TIP3    H166445   1.356   3.727   1.818  1.2654 -1.5625 -0.2739
15010TIP3    H266446   1.247   3.728   1.923 -0.4576  1.6065 -1.9570
15011TIP3   OH266447   1.894   3.787  14.576 -0.2075 -0.6769 -0.3496
15011TIP3    H166448   1.798   3.789  14.568 -0.2723  1.5620  0.3443
15011TIP3    H266449   1.913   3.699  14.607 -2.0453 -1.1895 -0.5353
15012TIP3   OH266450   1.109   0.115  14.747  0.4435  0.3981 -0.1609
15012TIP3    H166451   1.090   0.143  14.836  1.3073  0.1831  0.0998
15012TIP3    H266452   1.169   0.182  14.713 -0.8555  1.1547 -1.0190
15013TIP3   OH266453   4.769   2.397  13.439  0.0975  0.5803  0.2060
15013TIP3    H166454   4.710   2.330  13.473  0.4663  1.1633  2.0827
15013TIP3    H266455   4.821   2.352  13.373  0.0058 -0.8612  1.0837
15014TIP3   OH266456   0.942   4.588  15.461 -0.3837 -0.5909 -0.0812
15014TIP3    H166457   1.020   4.617  15.509  1.0829 -2.3511 -1.2626
15014TIP3    H266458   0.882   4.662  15.467  1.5300  1.0260  0.5125
15015TIP3   OH266459   3.322   2.664   4.372 -0.1065  0.1966 -0.1996
15015TIP3    H166460   3.371   2.594   4.328  0.6009  1.6819 -1.9163
15015TIP3    H266461   3.251   2.686   4.311 -1.9686 -0.7577  1.5033
15016TIP3   OH266462   0.495   1.723  15.380  0.3738  0.9370  0.6527
15016TIP3    H166463   0.540   1.651  15.335 -0.9200  0.1216  0.6074
15016TIP3    H266464   0.420   1.681  15.422 -1.2363  2.5018 -0.5635
15017TIP3   OH266465   0.241   1.896   5.298  0.3211  0.2304 -0.0491
15017TIP3    H166466   0.163   1.862   5.342  0.7714 -0.0781  0.5123
15017TIP3    H266467   0.312   1.838   5.325  0.9084  1.0081  0.1186
15018TIP3   OH266468   6.580   5.753  11.370 -0.5306 -0.0714 -0.2633
15018TIP3    H166469   6.538   5.720  11.451  0.2441  0.8555  0.5325
15018TIP3    H266470   6.646   5.815  11.401  0.1938 -0.1535 -1.5980
15019TIP3   OH266471   0.892   2.304   1.590 -0.0692  0.9949  0.5510
15019TIP3    H166472   0.807   2.286   1.548  1.2886 -3.7082 -0.7131
15019TIP3    H266473   0.948   2.333   1.518  0.6736 -1.1274  0.2087
15020TIP3   OH266474   5.361   6.647  13.377 -0.2036 -0.3805 -0.1274
15020TIP3    H166475   5.312   6.580  13.424  0.6154 -0.7715  0.1770
15020TIP3    H266476   5.447   6.608  13.361 -0.8200 -0.7402 -3.0557
15021TIP3   OH266477   2.388   1.746   4.170 -0.2859  0.0146  0.9004
15021TIP3    H166478   2.476   1.709   4.180  1.1919  2.7315 -0.7494
15021TIP3    H266479   2.342   1.683   4.116  1.5037 -0.3803 -0.2643
15022TIP3   OH266480   5.460   2.562  11.549  0.0455 -0.7458  0.5776
15022TIP3    H166481   5.409   2.566  11.630  0.2696  0.8809  0.6606
15022TIP3    H266482   5.415   2.622  11.490  0.7620 -0.7742 -0.0051
15023TIP3   OH266483   0.584   4.219   2.557  0.0159 -0.6493 -0.3094
15023TIP3    H166484   0.666   4.244   2.600 -0.1859 -0.9268  0.2505
15023TIP3    H266485   0.522   4.286   2.584  0.3443  0.2874 -1.7565
15024TIP3   OH266486   5.230   0.677   5.240 -0.5600 -0.3157 -0.1467
15024TIP3    H166487   5.247   0.757   5.191  2.2830 -0.6278  0.1652
15024TIP3    H266488   5.283   0.610   5.197 -2.7190 -2.0540 -0.2950
15025TIP3   OH266489   1.609   0.673  11.280 -0.0249  0.0249 -0.4698
15025TIP3    H166490   1.631   0.727  11.204  1.7394  0.9768  0.6403
15025TIP3    H266491   1.589   0.587  11.244  0.9501  0.4046 -2.0060
15026TIP3   OH266492   3.125   1.960   1.944 -0.3058 -0.2191 -0.3303
15026TIP3    H166493   3.107   1.978   2.036  0.4286 -0.1032 -0.2057
15026TIP3    H266494   3.076   1.880   1.926 -1.4717  0.4326 -0.1890
15027TIP3   OH266495   6.040   6.575   4.580 -0.3061  0.3526  0.6070
15027TIP3    H166496   6.100   6.502   4.597 -0.6762 -0.4971 -1.3929
15027TIP3    H266497   6.089   6.653   4.603  0.6782 -0.4500  1.3211
15028TIP3   OH266498   5.966   0.818  14.489  0.2789 -0.2247 -0.7286
15028TIP3    H166499   5.919   0.794  14.409 -0.2460 -0.5857 -0.3255
15028TIP3    H266500   5.897   0.826  14.555  0.4287  2.3371 -0.7929
15029TIP3   OH266501   2.897   3.099   3.938 -0.0389 -0.2735 -0.6382
15029TIP3    H166502   2.818   3.047   3.950 -0.2439  0.1157 -0.3181
15029TIP3    H266503   2.962   3.035   3.908 -0.0013 -0.9216  0.7345
15030TIP3   OH266504   6.180   4.862  15.806  0.3110  0.2909  0.7124
15030TIP3    H166505   6.264   4.907  15.791  0.1437  0.2832 -0.3404
15030TIP3    H266506   6.140   4.858  15.720 -0.5733 -0.1266  1.1341
15031TIP3   OH266507   0.796   1.870  16.753 -0.0808 -0.6133 -0.2356
15031TIP3    H166508   0.729   1.865  16.821  0.9239 -0.0738  0.8147
15031TIP3    H266509   0.846   1.948  16.774  2.9086 -2.6797  0.9188
15032TIP3   OH266510   6.113   2.892  13.383 -0.3489 -0.0160 -0.2122
15032TIP3    H166511   6.058   2.970  13.395 -0.3901 -0.2335  1.2532
15032TIP3    H266512   6.200   2.920  13.411 -0.4405 -0.5810  0.6705
15033TIP3   OH266513   3.399   6.344   1.945  0.2667 -0.7866 -0.2681
15033TIP3    H166514   3.483   6.318   1.908 -0.0317 -0.2850 -1.3421
15033TIP3    H266515   3.338   6.336   1.872 -0.1418  1.3234 -0.2114
15034TIP3   OH266516   2.564   2.687   3.995 -0.7680  0.0593 -0.3157
15034TIP3    H166517   2.497   2.640   4.044 -2.6182  0.9004 -1.8622
15034TIP3    H266518   2.622   2.723   4.061 -2.2750 -0.1004  1.1627
15035TIP3   OH266519   2.472   5.327   7.044  0.0939  0.2870 -0.0947
15035TIP3    H166520   2.521   5.262   7.095  2.2340  1.2539 -0.8048
15035TIP3    H266521   2.380   5.309   7.064  0.7114 -1.6524  1.2753
15036TIP3   OH266522   5.728   5.565   3.153  0.0115  0.7821  0.2851
15036TIP3    H166523   5.717   5.615   3.233 -0.3057  2.1310 -0.5729
15036TIP3    H266524   5.641   5.565   3.112  0.0810 -0.2078  0.1016
15037TIP3   OH266525   0.872   2.600   6.327  0.9686  0.0396  0.1773
15037TIP3    H166526   0.891   2.506   6.330  0.4012 -0.0633  2.1006
15037TIP3    H266527   0.922   2.636   6.400  0.3261  1.0632  0.1276
15038TIP3   OH266528   4.308   4.707  14.853 -0.1076 -0.4657  0.7342
15038TIP3    H166529   4.350   4.642  14.910  1.2894 -1.8783 -1.7213
15038TIP3    H266530   4.218   4.675  14.844 -0.1155 -0.6760  1.5026
15039TIP3   OH266531   4.269   2.805  17.256  0.9912  0.2101 -0.8405
15039TIP3    H166532   4.207   2.869  17.293  0.6079  0.6606 -2.2148
15039TIP3    H266533   4.215   2.743  17.208  1.4553 -0.5730 -0.3762
15040TIP3   OH266534   1.667   3.118   1.821  0.0711 -0.2181 -0.6188
15040TIP3    H166535   1.676   3.177   1.896 -2.5417 -0.0475 -0.3267
15040TIP3    H266536   1.612   3.047   1.853  0.0222 -0.8355 -2.0193
15041TIP3   OH266537   2.658   0.849   5.675 -0.3892  0.4355  0.0133
15041TIP3    H166538   2.681   0.907   5.748 -1.5605  0.3489  0.4801
15041TIP3    H266539   2.578   0.805   5.705 -0.4465 -0.1790 -1.0180
15042TIP3   OH266540   4.227   1.101   1.025  0.2242 -0.3366  0.1723
15042TIP3    H166541   4.291   1.068   1.088  1.6283  0.3837 -0.8177
15042TIP3    H266542   4.266   1.183   0.993 -0.5961 -0.5309 -1.4034
15043TIP3   OH266543   4.618   3.233   6.660  0.5200  0.0075  0.4592
15043TIP3    H166544   4.525   3.243   6.680 -0.1229 -1.9277 -1.2372
15043TIP3    H266545   4.662   3.297   6.716 -1.7308  0.2214  2.0918
15044TIP3   OH266546   4.759   0.828  10.588  0.0520  0.2366  0.4033
15044TIP3    H166547   4.766   0.849  10.681  0.8049  0.1996  0.3621
15044TIP3    H266548   4.668   0.848  10.566 -0.3977 -0.6569  1.3584
15045TIP3   OH266549   4.449   6.716  12.426  0.4683 -0.1907 -0.2351
15045TIP3    H166550   4.534   6.701  12.466  0.3641 -0.8011 -0.2373
15045TIP3    H266551   4.467   6.767  12.347  0.7276  0.5692  0.3087
15046TIP3   OH266552   2.436   0.668   4.446 -0.0810 -0.3943  0.6612
15046TIP3    H166553   2.369   0.609   4.478  0.4701 -1.0338  0.6525
15046TIP3    H266554   2.475   0.706   4.524 -0.7882  0.3794  0.6570
15047TIP3   OH266555   6.432   5.857  13.380 -0.2599  0.2352 -0.1483
15047TIP3    H166556   6.523   5.875  13.353  1.1694 -2.2123  2.4522
15047TIP3    H266557   6.395   5.808  13.306 -0.0957  2.5718 -1.9055
15048TIP3   OH266558   5.190   2.083  17.023 -0.3326 -0.6854  0.2672
15048TIP3    H166559   5.264   2.116  16.971 -0.4416  0.8024  0.9942
15048TIP3    H266560   5.173   1.996  16.988  1.3953 -0.8430 -0.3097
15049TIP3   OH266561   6.080   4.309   1.557  0.0876 -0.4356  0.2017
15049TIP3    H166562   6.110   4.377   1.496  1.3034 -2.3373 -1.4245
15049TIP3    H266563   5.988   4.295   1.534 -0.7372  1.8073  1.7533
15050TIP3   OH266564   3.454   6.680   2.609 -0.0186  0.0916 -0.0882
15050TIP3    H166565   3.364   6.651   2.617  0.5675 -1.6569  0.6625
15050TIP3    H266566   3.448   6.774   2.596 -1.9209  0.0648  0.3487
15051TIP3   OH266567   4.075   4.465  12.389 -0.4744  0.3711  0.5448
15051TIP3    H166568   4.140   4.413  12.343 -1.0681  0.2871 -0.2236
15051TIP3    H266569   4.120   4.547  12.410 -0.7685  1.3142 -2.1086
15052TIP3   OH266570   4.565   6.713  15.960  0.1048 -0.1463  0.7181
15052TIP3    H166571   4.558   6.784  16.024  1.6258  0.6682  0.0331
15052TIP3    H266572   4.613   6.644  16.006  1.9858  0.7805  0.2397
15053TIP3   OH266573   1.895   6.390  16.127  0.4294  0.3238  0.3642
15053TIP3    H166574   1.980   6.382  16.170 -0.5070 -1.2770  2.0646
15053TIP3    H266575   1.831   6.388  16.198 -1.1191 -0.4328 -0.9735
15054TIP3   OH266576   5.773   2.608   0.131  0.4051 -0.0426  0.1520
15054TIP3    H166577   5.807   2.531   0.085  0.2979 -0.0788  0.1334
15054TIP3    H266578   5.837   2.625   0.199  0.6041  0.0549 -0.0576
15055TIP3   OH266579   2.251   6.622  16.112 -0.3954  0.1981  0.1237
15055TIP3    H166580   2.334   6.666  16.094 -0.5220  1.0566  1.5166
15055TIP3    H266581   2.250   6.547  16.052  2.1787 -0.8558  1.2431
15056TIP3   OH266582   5.660   3.608  15.846 -0.7042 -0.1816  0.6726
15056TIP3    H166583   5.579   3.656  15.830 -0.7361 -0.3033  0.4794
15056TIP3    H266584   5.729   3.672  15.827 -0.7489 -0.1687  0.5548
15057TIP3   OH266585   3.737   0.784   5.331  0.4392 -0.1607 -0.3719
15057TIP3    H166586   3.656   0.794   5.281  0.6209  0.7711 -0.5050
15057TIP3    H266587   3.708   0.770   5.422  0.1266  0.2019 -0.4130
15058TIP3   OH266588   4.203   4.780  14.260  0.0673  0.3740  0.5191
15058TIP3    H166589   4.196   4.821  14.174 -0.0735  0.3954  0.5404
15058TIP3    H266590   4.230   4.850  14.319 -1.6446  0.8010  0.8438
15059TIP3   OH266591   4.167   1.674   4.358 -0.4982  0.8684  0.4293
15059TIP3    H166592   4.158   1.587   4.396 -1.0121  0.7116 -0.0285
15059TIP3    H266593   4.191   1.730   4.431 -2.5704  0.7830  1.2234
15060TIP3   OH266594   2.880   0.042  13.391  0.2255  0.4728 -0.1480
15060TIP3    H166595   2.875   0.010  13.301 -1.5640  0.8177 -0.2104
15060TIP3    H266596   2.790   0.067  13.413  0.5104 -0.0883  1.9243
15061TIP3   OH266597   3.430   3.661  16.977  0.1549 -0.0256  0.0043
15061TIP3    H166598   3.338   3.636  16.987 -0.2977  0.1058 -2.9194
15061TIP3    H266599   3.477   3.577  16.975 -0.4136 -0.3518 -2.0979
15062TIP3   OH266600   5.225   0.633  11.212  0.0869 -0.5329 -0.8879
15062TIP3    H166601   5.186   0.552  11.179  0.8601 -1.8313  1.1655
15062TIP3    H266602   5.160   0.666  11.275  0.4495 -0.3937 -0.5853
15063TIP3   OH266603   4.332   0.961  15.558  0.3276 -0.5373  0.1995
15063TIP3    H166604   4.393   1.034  15.569 -1.1118  0.6576  0.6420
15063TIP3    H266605   4.247   0.997  15.585 -0.8415 -1.7085 -1.6588
15064TIP3   OH266606   6.206   1.616  11.793  0.1411  0.4680  0.2150
15064TIP3    H166607   6.124   1.590  11.750 -0.6613  1.2513  1.2053
15064TIP3    H266608   6.196   1.710  11.807  1.3380  0.6190  0.1276
15065TIP3   OH266609   2.355   0.788  16.858 -0.0110  0.2914 -0.0216
15065TIP3    H166610   2.353   0.870  16.809  0.2321  1.0774  1.2304
15065TIP3    H266611   2.434   0.795  16.912 -0.1820 -0.6198  0.3560
15066TIP3   OH266612   5.659   4.275  12.330  0.4460 -0.0192 -0.1767
15066TIP3    H166613   5.674   4.190  12.289 -0.1001 -0.7214  1.0391
15066TIP3    H266614   5.722   4.333  12.287  1.3422 -1.1962 -0.5087
15067TIP3   OH266615   6.145   5.674  12.022 -0.3055 -0.0514  0.7383
15067TIP3    H166616   6.106   5.668  12.109  1.1464  0.3069  1.4440
15067TIP3    H266617   6.167   5.766  12.011  1.3154 -0.3864  0.8386
15068TIP3   OH266618   2.473   1.662   1.202 -0.0618 -0.2083  0.3802
15068TIP3    H166619   2.552   1.679   1.254  0.6895 -0.2270 -0.7229
15068TIP3    H266620   2.416   1.737   1.220  0.8383  0.5795  0.0148
15069TIP3   OH266621   6.021   4.559   3.749 -0.2526  0.4386  0.8813
15069TIP3    H166622   6.069   4.500   3.807  0.9255  0.3913 -0.0892
15069TIP3    H266623   6.062   4.645   3.762  1.7886 -0.0300 -1.6305
15070TIP3   OH266624   0.800   2.051  17.005 -0.2252  0.0174 -0.1141
15070TIP3    H166625   0.807   2.125  17.066 -0.2938  0.5563 -0.7563
15070TIP3    H266626   0.840   2.082  16.924  2.5256 -1.6666  0.4810
15071TIP3   OH266627   4.684   2.870  17.501  0.1818  0.3251  0.4601
15071TIP3    H166628   4.591   2.882  17.517 -0.1270 -1.9933  0.7156
15071TIP3    H266629   4.690   2.850  17.407  0.3318 -0.3245  0.6069
15072TIP3   OH266630   3.437   0.958  16.066  0.3677 -0.0234  0.2955
15072TIP3    H166631   3.417   0.977  16.158 -0.5056  0.3057  0.0559
15072TIP3    H266632   3.409   0.867  16.053 -0.4926  0.2519  0.1104
15073TIP3   OH266633   5.175   2.203   0.728 -0.5050  0.7577 -0.3008
15073TIP3    H166634   5.165   2.291   0.764 -0.2400  0.6611  0.0206
15073TIP3    H266635   5.086   2.171   0.715 -0.6636  0.1797  1.8096
15074TIP3   OH266636   4.618   1.683  12.933 -0.2426 -0.2364  0.1280
15074TIP3    H166637   4.621   1.592  12.904  1.0435 -0.1453 -0.0721
15074TIP3    H266638   4.656   1.682  13.020 -1.2983 -0.0481  0.6076
15075TIP3   OH266639   6.166   6.305  15.319  0.0056 -0.3206 -0.2608
15075TIP3    H166640   6.089   6.273  15.271  0.4445  1.3469 -2.2495
15075TIP3    H266641   6.239   6.294  15.258  1.1683 -0.7847  1.1560
15076TIP3   OH266642   5.456   5.599  12.254  0.1495 -0.2128  0.9049
15076TIP3    H166643   5.528   5.661  12.246  0.1352 -0.3778 -0.8563
15076TIP3    H266644   5.499   5.515  12.269  0.3471 -0.3157 -0.1703
15077TIP3   OH266645   1.574   4.705  11.775 -0.4741  0.4492  0.2726
15077TIP3    H166646   1.659   4.663  11.765 -0.2384  0.3678  2.1775
15077TIP3    H266647   1.544   4.722  11.686  2.5796  2.5949 -0.5027
15078TIP3   OH266648   4.753   0.675   0.437  0.3146 -0.1370  0.1600
15078TIP3    H166649   4.803   0.747   0.398 -0.8163  0.2525 -0.6387
15078TIP3    H266650   4.686   0.719   0.490 -0.4976 -0.5817 -0.4746
15079TIP3   OH266651   3.321   6.212  15.639 -0.8523 -0.0308 -0.5426
15079TIP3    H166652   3.273   6.151  15.695 -0.0811 -0.3076 -0.1765
15079TIP3    H266653   3.311   6.297  15.681  0.9176 -0.4505  0.8465
15080TIP3   OH266654   5.935   5.037  15.269 -0.3415 -0.2020 -0.0517
15080TIP3    H166655   5.993   5.078  15.333 -0.9044  2.5842 -1.1506
15080TIP3    H266656   5.847   5.060  15.299 -0.6396  0.3294 -1.2724
15081TIP3   OH266657   5.135   1.233  16.000  0.5689  0.0658  0.2719
15081TIP3    H166658   5.192   1.222  15.924  0.1652  0.3675 -0.0724
15081TIP3    H266659   5.195   1.258  16.071  0.8675  0.3754 -0.0837
15082TIP3   OH266660   3.509   5.373   0.447  0.4721 -0.7186  0.2142
15082TIP3    H166661   3.414   5.362   0.452  0.4200 -2.0540 -1.9783
15082TIP3    H266662   3.543   5.283   0.448  1.4929 -0.3974 -1.3485
15083TIP3   OH266663   0.341   1.620  11.861  0.4056  0.0483  0.0918
15083TIP3    H166664   0.281   1.594  11.791  1.1925  1.1695 -1.0370
15083TIP3    H266665   0.283   1.639  11.936 -0.4358 -1.2284 -0.2065
15084TIP3   OH266666   6.130   3.627  14.184 -0.4072  0.2170 -0.3692
15084TIP3    H166667   6.115   3.698  14.246 -1.1352  0.4740 -0.8261
15084TIP3    H266668   6.193   3.662  14.122 -0.2489  0.2237 -0.2049
15085TIP3   OH266669   5.362   2.584  11.818  0.3545  0.1983 -0.2134
15085TIP3    H166670   5.269   2.585  11.799  0.5388  0.5885 -1.1535
15085TIP3    H266671   5.367   2.581  11.914 -0.5957 -2.3341 -0.1740
15086TIP3   OH266672   3.337   3.110   1.430  0.3539 -0.3225 -0.5333
15086TIP3    H166673   3.428   3.112   1.398  0.3470 -1.0241 -0.6159
15086TIP3    H266674   3.293   3.046   1.373  0.2034 -1.1815  0.5055
15087TIP3   OH266675   1.641   1.786  13.479  0.6666  0.1193  0.2707
15087TIP3    H166676   1.664   1.857  13.539 -1.2359 -0.6376  2.0085
15087TIP3    H266677   1.548   1.800  13.460  0.6052 -1.1198 -0.4509
15088TIP3   OH266678   0.856   1.227   1.326 -0.4621 -0.0334 -0.5124
15088TIP3    H166679   0.797   1.277   1.269 -1.1364 -1.4201 -1.0613
15088TIP3    H266680   0.942   1.237   1.287 -0.8662 -0.6836 -1.6022
15089TIP3   OH266681   4.044   0.600  15.087  0.8549  0.0214  0.3792
15089TIP3    H166682   4.001   0.548  15.155  0.8046  0.4374  0.6719
15089TIP3    H266683   4.123   0.634  15.130 -0.7310  2.8961  1.3021
15090TIP3   OH266684   0.385   0.721   1.526 -0.3071 -0.5236 -0.8550
15090TIP3    H166685   0.459   0.778   1.504 -0.8262 -0.4425 -2.5236
15090TIP3    H266686   0.386   0.653   1.458 -1.1201 -1.1498 -0.2653
15091TIP3   OH266687   2.868   1.743  14.923  0.2094  0.2901 -0.2865
15091TIP3    H166688   2.824   1.718  15.004 -0.5138  0.4288 -0.6305
15091TIP3    H266689   2.960   1.751  14.947 -0.0306  0.5209  0.5657
15092TIP3   OH266690   5.712   0.050   1.125  0.0387  0.7125 -1.0928
15092TIP3    H166691   5.745   0.015   1.042 -2.2694  0.3697 -1.9578
15092TIP3    H266692   5.729  -0.020   1.189 -1.1522 -0.4909 -2.0236
15093TIP3   OH266693   3.419   0.563  15.917  0.4724 -0.6428 -0.2167
15093TIP3    H166694   3.365   0.615  15.976 -0.8508 -1.4729 -0.6563
15093TIP3    H266695   3.508   0.596  15.931 -0.0099  0.1659  1.1589
15094TIP3   OH266696   4.463   2.688  12.313  0.1212  0.6621  0.3643
15094TIP3    H166697   4.414   2.746  12.371  1.9549  1.8159  0.8584
15094TIP3    H266698   4.403   2.615  12.296 -1.3057  1.4031  1.8601
15095TIP3   OH266699   3.423   3.257   4.720  0.0107 -0.4735  0.0414
15095TIP3    H166700   3.432   3.162   4.718 -0.4920 -0.5175 -0.9200
15095TIP3    H266701   3.340   3.272   4.765  1.1656 -0.3712  2.2582
15096TIP3   OH266702   6.221   4.555  15.371  0.1638 -0.5839 -0.3841
15096TIP3    H166703   6.155   4.602  15.321 -0.6897  2.2914  2.9932
15096TIP3    H266704   6.301   4.608  15.361  0.3713 -0.7947  0.1190
15097TIP3   OH266705   2.623   0.766   2.582 -0.2819 -0.3495  0.0552
15097TIP3    H166706   2.683   0.836   2.557 -1.0321  0.1230 -0.4412
15097TIP3    H266707   2.669   0.720   2.653  0.5222  0.1965 -0.0944
15098TIP3   OH266708   5.883   1.140   1.887  0.4834 -0.3069 -0.1098
15098TIP3    H166709   5.793   1.173   1.885  0.6441  0.1305 -0.4128
15098TIP3    H266710   5.880   1.059   1.836  0.7097  0.9216 -2.1882
15099TIP3   OH266711   2.529   5.776  15.850  0.3659 -0.1641  0.2006
15099TIP3    H166712   2.487   5.855  15.885  2.2614  1.6336 -1.3050
15099TIP3    H266713   2.471   5.747  15.780  0.8548  1.4799 -0.9497
15100TIP3   OH266714   4.854   3.293   2.061 -0.3609 -0.1325 -0.2933
15100TIP3    H166715   4.817   3.227   2.003 -1.8318 -0.1577  0.6197
15100TIP3    H266716   4.782   3.315   2.121  0.2446  1.9416 -0.2679
15101TIP3   OH266717   2.623   4.408  14.079  0.1791 -0.0557 -0.2269
15101TIP3    H166718   2.610   4.383  13.988  1.1032 -3.3930  0.4224
15101TIP3    H266719   2.562   4.353  14.128 -0.6487  2.0252  1.2051
15102TIP3   OH266720   2.613   0.702   2.007  0.1018 -0.2860  0.0239
15102TIP3    H166721   2.698   0.732   1.975  0.9545 -1.7292  0.8056
15102TIP3    H266722   2.579   0.646   1.938 -0.1798  0.2376 -0.2612
15103TIP3   OH266723   3.379   1.790  12.020 -0.0025  0.6944  0.3217
15103TIP3    H166724   3.295   1.811  12.060 -0.4086 -1.4665  0.7686
15103TIP3    H266725   3.355   1.744  11.939  0.6608 -0.8864  0.9697
15104TIP3   OH266726   0.116   0.873   1.261  0.0006 -0.2636  0.1336
15104TIP3    H166727   0.192   0.852   1.208 -0.2022  0.0696 -0.2866
15104TIP3    H266728   0.051   0.806   1.239  0.1835 -0.5761  0.5271
15105TIP3   OH266729   5.908   2.158   1.724 -0.0101  0.1868 -0.1384
15105TIP3    H166730   6.002   2.160   1.744 -0.3370 -0.3021  1.5574
15105TIP3    H266731   5.872   2.234   1.769 -0.3051  0.9616 -1.6309
15106TIP3   OH266732   3.848   4.644  17.389 -0.1086  0.5256  0.2304
15106TIP3    H166733   3.779   4.656  17.454  0.1436 -0.1893  0.6344
15106TIP3    H266734   3.910   4.583  17.429  0.4273  0.6503 -0.3861
15107TIP3   OH266735   0.948   5.596  14.073  0.5252  0.2590  0.5139
15107TIP3    H166736   0.954   5.671  14.013 -0.2714 -0.6176 -0.7108
15107TIP3    H266737   0.855   5.591  14.097  0.3465 -0.9905 -0.3311
15108TIP3   OH266738   3.742   1.952  16.468  0.0568 -0.5021 -0.2253
15108TIP3    H166739   3.798   1.992  16.534  1.0898 -0.0377 -1.3586
15108TIP3    H266740   3.762   1.999  16.388 -1.0760 -1.1513 -0.9126
15109TIP3   OH266741   2.074   1.213   6.825  0.0281  0.0337 -0.1017
15109TIP3    H166742   2.151   1.262   6.796  0.5534 -1.0652 -0.6171
15109TIP3    H266743   2.071   1.229   6.920 -0.7562  2.3227 -0.4543
15110TIP3   OH266744   4.394   4.860   0.472 -0.6070  0.0570  0.7786
15110TIP3    H166745   4.315   4.900   0.436 -1.1156 -0.9663  0.7098
15110TIP3    H266746   4.378   4.857   0.567 -1.0632 -0.9678  0.6842
15111TIP3   OH266747   1.320   4.982   5.759  0.6502 -0.0823 -0.3107
15111TIP3    H166748   1.333   5.021   5.846  0.3472  0.5582 -0.5490
15111TIP3    H266749   1.253   4.915   5.774  0.1297  0.4573 -0.1603
15112TIP3   OH266750   1.916   2.203  15.510 -0.1201 -0.1900 -0.0520
15112TIP3    H166751   1.961   2.125  15.477 -0.0572 -0.2172  0.0970
15112TIP3    H266752   1.825   2.190  15.484 -0.4433 -1.1487  1.4545
15113TIP3   OH266753   2.067   5.407   3.673 -0.2707  0.0682 -0.3608
15113TIP3    H166754   1.977   5.423   3.701 -0.6905 -1.2126 -0.8750
15113TIP3    H266755   2.112   5.375   3.751 -0.2316  0.7573 -0.0914
15114TIP3   OH266756   3.811   3.869   2.870  0.4338 -0.0493 -0.0909
15114TIP3    H166757   3.809   3.798   2.806 -0.1833  0.8107 -1.0502
15114TIP3    H266758   3.904   3.893   2.876  0.4110  0.3868 -1.2726
15115TIP3   OH266759   3.319   1.623  16.588 -0.1336 -0.2932  1.0056
15115TIP3    H166760   3.319   1.664  16.675 -0.3493 -0.0680  0.9030
15115TIP3    H266761   3.381   1.675  16.537 -0.6849  0.1434  0.7679
15116TIP3   OH266762   3.636   0.207  14.188 -0.2672  0.1858  0.3851
15116TIP3    H166763   3.645   0.186  14.095  1.1144  1.0632  0.2833
15116TIP3    H266764   3.648   0.124  14.233 -3.4690 -0.7624 -0.2393
15117TIP3   OH266765   2.434   6.591  12.147  0.6400  0.6211  0.0260
15117TIP3    H166766   2.414   6.514  12.201  0.8907  0.5242 -0.0153
15117TIP3    H266767   2.397   6.571  12.061 -2.6310  2.0944  0.9248
15118TIP3   OH266768   0.773   4.999   0.718  0.0536  0.4696  0.2336
15118TIP3    H166769   0.722   4.948   0.780 -2.5950  1.7645 -0.7161
15118TIP3    H266770   0.755   4.958   0.633  1.7521  0.1254  0.0145
15119TIP3   OH266771   4.299   0.588   6.046 -0.2132 -0.3514 -0.2597
15119TIP3    H166772   4.349   0.631   6.115 -0.9966 -1.1393  0.8536
15119TIP3    H266773   4.286   0.655   5.979  3.6710 -0.5325 -1.4081
15120TIP3   OH266774   0.639   3.401   1.236  0.7605 -0.3546 -0.1609
15120TIP3    H166775   0.625   3.363   1.323 -0.5978 -0.7135 -0.5066
15120TIP3    H266776   0.583   3.348   1.178  0.9707  0.4370 -1.1098
15121TIP3   OH266777   2.403   1.322  11.576  0.3104 -0.2768 -0.7204
15121TIP3    H166778   2.308   1.312  11.587  0.0490  1.4153 -1.0161
15121TIP3    H266779   2.424   1.267  11.501 -0.4774 -0.5630 -0.7436
15122TIP3   OH266780   3.588   2.603   4.833 -0.6966 -0.0426 -0.0988
15122TIP3    H166781   3.552   2.689   4.851 -0.0824  0.0576  0.7226
15122TIP3    H266782   3.512   2.546   4.824 -1.1187  0.6679 -1.1420
15123TIP3   OH266783   5.311   4.652  13.742 -0.1928  0.2420  0.4381
15123TIP3    H166784   5.316   4.620  13.651  0.1400 -1.6003  1.0534
15123TIP3    H266785   5.218   4.642  13.765 -0.2606  0.6234  0.3312
15124TIP3   OH266786   1.708   0.326  11.979  0.1432 -0.1652  0.1529
15124TIP3    H166787   1.800   0.346  11.994 -0.0084  0.4486  0.2908
15124TIP3    H266788   1.697   0.237  12.013  0.8889 -0.6102 -0.7095
15125TIP3   OH266789   0.153   3.854  13.582 -0.2450  0.1179 -0.2776
15125TIP3    H166790   0.164   3.946  13.560 -2.2592  0.4626 -0.0118
15125TIP3    H266791   0.236   3.813  13.556  0.1539  1.7361 -1.7470
15126TIP3   OH266792   2.876   2.125   2.693  0.2489 -0.5679  0.5955
15126TIP3    H166793   2.911   2.153   2.777 -0.0162  1.4248  0.1041
15126TIP3    H266794   2.834   2.203   2.657 -0.3176 -1.5636 -1.0522
15127TIP3   OH266795   6.665   4.974  15.413  0.0863 -0.7329 -0.4042
15127TIP3    H166796   6.710   4.897  15.446  0.0943 -0.6306 -0.1684
15127TIP3    H266797   6.710   4.995  15.332 -0.0982 -1.1395 -0.6125
15128TIP3   OH266798   4.734   2.539   4.301 -0.0967  0.6376 -0.7037
15128TIP3    H166799   4.676   2.590   4.244  2.7305  2.0550 -2.5489
15128TIP3    H266800   4.767   2.469   4.246  1.6198  1.1946 -0.4546
15129TIP3   OH266801   3.701   2.652   3.037  0.5421 -0.4845  0.2815
15129TIP3    H166802   3.649   2.664   3.116 -0.4952 -0.2443 -0.4224
15129TIP3    H266803   3.748   2.735   3.027  0.8811 -0.6114  0.7813
15130TIP3   OH266804   3.086   3.112   3.377 -0.5684 -0.0015 -0.0004
15130TIP3    H166805   3.130   3.195   3.397  0.3015 -1.2180  4.0445
15130TIP3    H266806   3.151   3.062   3.328  0.5382  0.2429  1.1506
15131TIP3   OH266807   4.459   0.014  13.765  0.2261  0.1613  0.7339
15131TIP3    H166808   4.538   0.001  13.713 -1.0348 -0.3602 -1.1540
15131TIP3    H266809   4.397   0.054  13.704 -0.9914  0.5198  2.1553
15132TIP3   OH266810   2.292   2.103  16.212 -0.5125  0.2959  0.4487
15132TIP3    H166811   2.386   2.088  16.224 -0.5779 -0.4980  0.0664
15132TIP3    H266812   2.251   2.020  16.237 -0.9076 -0.1990 -1.5857
15133TIP3   OH266813   0.704   1.848   5.076 -0.3968  0.6803 -0.3603
15133TIP3    H166814   0.650   1.778   5.112  0.0889  0.8048  0.6649
15133TIP3    H266815   0.642   1.917   5.052 -0.7591  0.4984  0.0438
15134TIP3   OH266816   3.367   5.823  14.917  0.0653  0.5199  0.1222
15134TIP3    H166817   3.365   5.778  14.833  0.4880  1.8521 -0.6383
15134TIP3    H266818   3.361   5.916  14.895 -0.6808  0.8751  1.6190
15135TIP3   OH266819   0.175   2.782   2.682 -0.1777  0.3365  0.2426
15135TIP3    H166820   0.179   2.686   2.678 -2.1998  0.2575 -1.0973
15135TIP3    H266821   0.145   2.801   2.770  0.8994 -0.1992  0.7509
15136TIP3   OH266822   5.989   2.599   4.381  0.1808  0.3950  0.5680
15136TIP3    H166823   6.011   2.645   4.462  0.8832 -0.3097  0.7972
15136TIP3    H266824   5.940   2.522   4.409  0.7910 -0.0743  0.3647
15137TIP3   OH266825   1.894   1.350   0.495 -0.1224  0.3308  0.5807
15137TIP3    H166826   1.908   1.426   0.551  0.1149  0.3461  0.5036
15137TIP3    H266827   1.973   1.344   0.442 -0.3697  0.3577  0.2000
15138TIP3   OH266828   4.663   2.794   0.742 -0.3148 -0.2631  0.2487
15138TIP3    H166829   4.599   2.761   0.678 -0.6009  1.4332 -0.3872
15138TIP3    H266830   4.644   2.744   0.822 -1.2005 -1.0877 -0.4466
15139TIP3   OH266831   1.860   5.399   3.423  0.3064 -0.0007 -0.1709
15139TIP3    H166832   1.953   5.423   3.428  0.1470  0.7259 -0.5178
15139TIP3    H266833   1.825   5.424   3.508 -0.2617  2.8857 -1.1460
15140TIP3   OH266834   4.518   2.263   2.938  0.0406  0.3375  0.1958
15140TIP3    H166835   4.511   2.354   2.911 -1.2502  0.1606 -0.1567
15140TIP3    H266836   4.505   2.264   3.032 -0.8898  0.4371  0.0704
15141TIP3   OH266837   0.681   2.286  12.625  0.0756  0.0972 -0.0716
15141TIP3    H166838   0.646   2.208  12.582  0.6570 -0.9129  1.2345
15141TIP3    H266839   0.772   2.291  12.597  0.2081 -0.0486  0.3269
15142TIP3   OH266840   6.565   0.513   2.941  0.1487  0.1205  0.4134
15142TIP3    H166841   6.559   0.605   2.915  0.7824  0.4638  1.4485
15142TIP3    H266842   6.474   0.488   2.958 -0.0894  0.3884 -0.3834
15143TIP3   OH266843   5.303   3.883  13.554 -1.0275  0.3093  0.4571
15143TIP3    H166844   5.208   3.872  13.559 -0.9055 -0.5509  1.0661
15143TIP3    H266845   5.336   3.845  13.636  0.0681 -2.2558 -1.0592
15144TIP3   OH266846   0.096   4.426   0.449  0.1382 -0.0572  0.2730
15144TIP3    H166847   0.010   4.385   0.441  1.1289 -2.0244 -1.1911
15144TIP3    H266848   0.124   4.442   0.359  1.8873 -0.8350  0.6304
15145TIP3   OH266849   5.826   1.556  16.151  0.1864  0.5008 -0.1618
15145TIP3    H166850   5.744   1.529  16.193  0.1100  0.5337 -0.2886
15145TIP3    H266851   5.889   1.561  16.222  0.3219 -0.4657 -0.2020
15146TIP3   OH266852   0.928   3.434   5.426 -0.3116  0.0314  0.0859
15146TIP3    H166853   0.982   3.456   5.350 -1.0857  3.7359  0.4227
15146TIP3    H266854   0.838   3.444   5.395 -0.6394  1.7220  1.4512
15147TIP3   OH266855   2.448   1.612  12.381  0.0694 -0.1460  0.0588
15147TIP3    H166856   2.489   1.631  12.296  0.8718  0.4154  0.5529
15147TIP3    H266857   2.394   1.689  12.399 -0.4176 -0.4416 -0.1226
15148TIP3   OH266858   6.025   3.828   5.551  0.5794 -0.0793  0.1503
15148TIP3    H166859   6.079   3.906   5.536 -0.1259  0.6064  1.0209
15148TIP3    H266860   6.027   3.781   5.468  1.3564  0.6499 -0.2676
15149TIP3   OH266861   2.464   3.736   5.213 -0.1346  0.3514  0.3051
15149TIP3    H166862   2.431   3.825   5.204 -1.0698 -0.0716 -0.8214
15149TIP3    H266863   2.550   3.745   5.254  0.1301  1.8269 -0.5101
15150TIP3   OH266864   1.550   2.970   3.692  0.4636 -0.0160 -0.2424
15150TIP3    H166865   1.543   2.887   3.739  0.3798 -0.5167 -1.1053
15150TIP3    H266866   1.615   3.020   3.741 -1.3097  0.4534  1.7842
15151TIP3   OH266867   1.218   1.226  15.702  0.0104  0.0405 -0.1025
15151TIP3    H166868   1.291   1.174  15.735  1.1803 -0.3665 -3.0569
15151TIP3    H266869   1.154   1.162  15.672 -0.3125  0.3787 -0.1461
15152TIP3   OH266870   3.164   1.353  13.029  0.5610 -0.7140  0.3562
15152TIP3    H166871   3.230   1.342  13.097 -1.3259 -2.5481  1.9900
15152TIP3    H266872   3.097   1.408  13.069  1.0204  1.2045 -1.3139
15153TIP3   OH266873   0.482   6.223  15.514  0.8695  0.2563  0.5698
15153TIP3    H166874   0.565   6.179  15.532  0.8693  0.4460  1.0303
15153TIP3    H266875   0.448   6.247  15.600 -1.0832 -2.3979  0.6468
15154TIP3   OH266876   5.501   0.546  15.831 -0.1157 -0.1866  0.2712
15154TIP3    H166877   5.563   0.614  15.804  0.1111 -0.1192  0.9520
15154TIP3    H266878   5.556   0.472  15.855 -0.3245 -0.2959  0.4153
15155TIP3   OH266879   3.774   4.062  11.652  0.4870  0.4214  0.2483
15155TIP3    H166880   3.708   4.130  11.660  0.1315  0.1253 -0.1473
15155TIP3    H266881   3.854   4.102  11.687  0.6324  1.5554 -1.2571
15156TIP3   OH266882   2.708   5.622   4.070  0.9024 -0.5515 -0.7582
15156TIP3    H166883   2.699   5.530   4.096  0.1143 -0.0771  0.7925
15156TIP3    H266884   2.802   5.636   4.062  1.0262 -1.4946 -1.0511
15157TIP3   OH266885   5.254   4.202   0.481 -0.0512  0.0599 -0.0001
15157TIP3    H166886   5.230   4.148   0.406 -0.9158  0.2757  0.1155
15157TIP3    H266887   5.336   4.244   0.455  0.0896 -0.5053 -0.4942
15158TIP3   OH266888   0.174   3.133   4.202  0.1903 -0.4719 -0.2122
15158TIP3    H166889   0.117   3.056   4.204  0.8602 -0.9875 -0.6082
15158TIP3    H266890   0.152   3.177   4.119 -1.3355  0.6695  0.7466
15159TIP3   OH266891   0.134   0.832   1.564  0.4771 -0.4613  0.0742
15159TIP3    H166892   0.138   0.844   1.469  2.6301 -0.1839  0.1363
15159TIP3    H266893   0.221   0.799   1.587  0.8252  1.6650  2.2015
15160TIP3   OH266894   0.396   4.074  13.291 -0.2416  0.7069  0.4822
15160TIP3    H166895   0.394   4.155  13.342 -0.6306  0.3243  1.0803
15160TIP3    H266896   0.489   4.056  13.279 -0.1487  1.4846 -0.0523
15161TIP3   OH266897   4.797   0.314   0.150 -0.2352 -0.8091 -0.2585
15161TIP3    H166898   4.787   0.408   0.140  2.5722 -0.3338  0.4766
15161TIP3    H266899   4.709   0.282   0.172 -1.0172  1.8081  0.7785
15162TIP3   OH266900   0.465   5.543   7.078 -0.5609  0.2679  0.3716
15162TIP3    H166901   0.549   5.496   7.078 -1.6691 -1.8840  1.8816
15162TIP3    H266902   0.417   5.508   7.004 -0.3538  1.1135 -0.1751
15163TIP3   OH266903   6.187   5.577   0.490  0.2547 -0.7049  0.6001
15163TIP3    H166904   6.210   5.647   0.551  0.3929 -1.4958  1.4753
15163TIP3    H266905   6.264   5.520   0.489  1.2243  0.4739 -2.1017
15164TIP3   OH266906   0.450   0.891  12.011 -0.4048  0.4396  0.3413
15164TIP3    H166907   0.531   0.903  11.962 -0.1345  1.2663  0.9798
15164TIP3    H266908   0.448   0.963  12.074 -1.1765 -0.0992  0.9598
15165TIP3   OH266909   6.180   5.145  11.630  0.0188  0.2075 -0.1012
15165TIP3    H166910   6.146   5.098  11.706  0.0046  0.4879  0.0697
15165TIP3    H266911   6.119   5.125  11.559 -0.1327  0.1794  0.0371
15166TIP3   OH266912   0.839   3.361  13.279 -0.3769  0.3262 -0.2773
15166TIP3    H166913   0.911   3.300  13.261  0.8630  1.4724  0.6398
15166TIP3    H266914   0.837   3.368  13.374 -0.1013  2.1373 -0.3689
15167TIP3   OH266915   2.717   0.020   1.276  0.1127 -0.1721  0.1402
15167TIP3    H166916   2.648  -0.046   1.275 -0.4991  0.4560 -0.0282
15167TIP3    H266917   2.755   0.015   1.364 -0.1653 -0.5088  0.2400
15168TIP3   OH266918   5.164   3.676   2.248 -0.4491  0.2932 -0.3765
15168TIP3    H166919   5.187   3.601   2.193  1.5958  0.7501 -0.2091
15168TIP3    H266920   5.114   3.733   2.190  1.6764  0.7737 -1.8499
15169TIP3   OH266921   5.599   1.085   0.753  0.4346 -0.2626 -0.3726
15169TIP3    H166922   5.649   1.009   0.783 -1.6162 -1.6338 -0.2716
15169TIP3    H266923   5.508   1.060   0.763 -0.3212  1.8372 -1.3596
15170TIP3   OH266924   0.622   3.293  16.902 -0.4018  0.9427 -0.3637
15170TIP3    H166925   0.607   3.347  16.825  0.6295 -0.7666 -1.8544
15170TIP3    H266926   0.681   3.224  16.872  1.2107  0.9944  2.3302
15171TIP3   OH266927   6.389   5.195  11.354  0.3306 -0.1040  0.0062
15171TIP3    H166928   6.414   5.112  11.313 -0.7279 -1.0060  1.1149
15171TIP3    H266929   6.455   5.258  11.323  0.5123 -1.0909 -1.7446
15172TIP3   OH266930   5.442   2.542   0.849 -0.0955  0.3056 -0.3880
15172TIP3    H166931   5.438   2.453   0.814 -0.9669  0.2491 -0.1739
15172TIP3    H266932   5.536   2.561   0.855  0.1343  0.4968 -3.1572
15173TIP3   OH266933   4.412   6.332   3.526  0.0900 -0.5576  0.4375
15173TIP3    H166934   4.504   6.339   3.499 -0.0376 -0.0976  0.1200
15173TIP3    H266935   4.417   6.310   3.619  0.5424  0.8747  0.7929
15174TIP3   OH266936   3.501   5.747  12.688 -0.1759 -0.6862 -0.5651
15174TIP3    H166937   3.494   5.658  12.653 -0.8995 -0.4983 -0.9237
15174TIP3    H266938   3.513   5.802  12.611 -1.5752 -0.2864 -0.5184
15175TIP3   OH266939   5.337   4.361  14.942  0.4535  0.0663 -0.6566
15175TIP3    H166940   5.291   4.423  14.886 -0.4172  1.0284  1.0528
15175TIP3    H266941   5.277   4.345  15.015  0.2041 -3.5305 -1.4298
15176TIP3   OH266942   0.465   6.115   4.656  0.2260 -0.5834 -0.2588
15176TIP3    H166943   0.546   6.120   4.605  0.7191 -1.3739  0.4173
15176TIP3    H266944   0.493   6.092   4.744 -0.5753  1.1635  0.5145
15177TIP3   OH266945   5.198   6.563   1.453  0.6830 -0.1787  0.2077
15177TIP3    H166946   5.280   6.573   1.406  0.3081 -0.6963 -0.5857
15177TIP3    H266947   5.211   6.610   1.535  2.1962 -1.2745  0.6384
15178TIP3   OH266948   5.063   1.007  12.185 -0.1996  0.1045 -0.2914
15178TIP3    H166949   5.089   0.927  12.230  4.5483  1.3148 -0.3533
15178TIP3    H266950   5.045   1.069  12.256  1.5216  0.4142 -0.0960
15179TIP3   OH266951   1.475   3.268  16.391 -0.1037 -0.2300 -0.0323
15179TIP3    H166952   1.515   3.299  16.472  1.2787 -0.5386 -0.5657
15179TIP3    H266953   1.515   3.322  16.323  0.8676 -1.8043 -0.7728
15180TIP3   OH266954   6.581   2.911  11.685  0.1218  0.9748  0.1541
15180TIP3    H166955   6.498   2.921  11.730 -0.6679  0.5577 -1.1517
15180TIP3    H266956   6.647   2.913  11.755 -0.9992  0.9416  1.2436
15181TIP3   OH266957   5.987   4.047  17.340 -0.1815  0.4566  0.0449
15181TIP3    H166958   6.060   4.093  17.380  0.7779 -1.3627  0.5175
15181TIP3    H266959   6.026   3.999  17.267 -0.9879 -0.1931  0.0249
15182TIP3   OH266960   5.814   4.493  16.564  0.4748  0.1394 -0.6460
15182TIP3    H166961   5.750   4.528  16.502  0.4353  0.4706 -0.4224
15182TIP3    H266962   5.765   4.481  16.645  0.3196 -1.1015 -0.9058
15183TIP3   OH266963   3.679   5.025  12.768 -0.2069 -0.0693  0.5666
15183TIP3    H166964   3.645   5.106  12.806 -0.4057 -0.3985  1.0863
15183TIP3    H266965   3.743   4.993  12.832  1.6947  0.9265 -0.7067
15184TIP3   OH266966   0.012   6.573   3.697 -0.5490  0.0269 -0.0784
15184TIP3    H166967  -0.070   6.543   3.659 -0.7381  0.6307 -0.1516
15184TIP3    H266968   0.040   6.644   3.640 -1.1083  1.3039  1.2002
15185TIP3   OH266969   3.697   6.335   4.274  0.0562 -0.4179  0.3833
15185TIP3    H166970   3.684   6.409   4.214 -0.3007  0.3977  1.4327
15185TIP3    H266971   3.615   6.287   4.271 -0.5996  0.5756  1.4527
15186TIP3   OH266972   3.479   0.795  13.912 -0.1449  0.4917 -0.0157
15186TIP3    H166973   3.390   0.790  13.947 -0.5553 -2.4180 -1.1969
15186TIP3    H266974   3.483   0.881  13.870 -2.1566  0.9837  0.6928
15187TIP3   OH266975   5.157   1.409   3.783  0.3245 -0.6143 -0.1976
15187TIP3    H166976   5.211   1.451   3.850  0.3232 -0.8506 -0.0475
15187TIP3    H266977   5.158   1.470   3.709 -0.6072  0.1931  0.4263
15188TIP3   OH266978   3.155   3.863  12.018 -0.3834 -0.5037 -0.2220
15188TIP3    H166979   3.242   3.898  12.033  0.0935 -2.2426  1.5633
15188TIP3    H266980   3.096   3.937  12.031  0.6184 -0.0987  2.5448
15189TIP3   OH266981   5.586   1.893  15.050 -0.5436 -0.2377  0.3640
15189TIP3    H166982   5.531   1.816  15.062  0.3407 -0.6644  2.0575
15189TIP3    H266983   5.542   1.944  14.982 -0.5882 -2.7220 -1.6296
15190TIP3   OH266984   3.074   1.687  17.295 -0.8227  0.6820 -0.0508
15190TIP3    H166985   3.034   1.608  17.259  0.2714 -0.1258  0.4384
15190TIP3    H266986   3.041   1.758  17.240  0.6376 -0.4543 -2.5667
15191TIP3   OH266987   3.164   2.915   5.545  0.2597 -0.2696  0.2573
15191TIP3    H166988   3.230   2.898   5.612  0.3300 -1.6796 -0.1238
15191TIP3    H266989   3.131   3.003   5.565 -0.0075 -0.7801  2.3923
15192TIP3   OH266990   5.080   0.883  15.426 -0.6331 -0.7026 -0.4983
15192TIP3    H166991   5.084   0.801  15.377  0.1502 -1.0638  0.1586
15192TIP3    H266992   4.987   0.897  15.440 -0.7510 -1.8812  0.0373
15193TIP3   OH266993   4.096   3.763  17.408  0.0333 -0.1022 -0.0945
15193TIP3    H166994   4.122   3.797  17.322 -0.4393 -0.3550 -0.3374
15193TIP3    H266995   4.075   3.842  17.459  1.7699  0.1620  0.2935
15194TIP3   OH266996   5.879   3.284   3.958  0.5389  0.5546 -0.6336
15194TIP3    H166997   5.811   3.332   4.006 -1.3317 -0.4390 -2.1653
15194TIP3    H266998   5.901   3.211   4.015 -0.1406  0.5372 -0.3838
15195TIP3   OH266999   2.614   3.225  14.221 -0.2693 -0.4608 -0.0405
15195TIP3    H167000   2.623   3.168  14.297  1.0162  1.5443  1.4188
15195TIP3    H267001   2.651   3.175  14.149  1.2126 -1.3474  1.2648
15196TIP3   OH267002   2.017   0.450  16.077  0.1911  0.2617  0.1338
15196TIP3    H167003   2.097   0.480  16.119 -0.6730  0.7283  1.5094
15196TIP3    H267004   1.988   0.524  16.024  0.1099  0.4910  0.4923
15197TIP3   OH267005   2.489   1.811   4.928 -0.0476  0.0447 -0.4038
15197TIP3    H167006   2.582   1.808   4.910  0.1293 -1.4217  0.5956
15197TIP3    H267007   2.455   1.879   4.869  1.6977  0.9270 -0.4477
15198TIP3   OH267008   6.136   5.959   3.161 -0.3463 -0.3628  0.2025
15198TIP3    H167009   6.149   6.049   3.190  0.4048 -0.3136 -0.2684
15198TIP3    H267010   6.114   5.911   3.242  0.9414 -0.0748  0.7510
15199TIP3   OH267011   4.387   1.230   3.030 -0.1667  0.2524 -0.2133
15199TIP3    H167012   4.437   1.186   3.099  0.2897 -0.7433 -1.1432
15199TIP3    H267013   4.441   1.220   2.952 -1.1509  0.4431 -0.9374
15200TIP3   OH267014   6.641   1.218  11.404 -0.1523 -0.3086  0.3386
15200TIP3    H167015   6.733   1.231  11.426 -0.1778 -0.1178  0.3340
15200TIP3    H267016   6.640   1.142  11.347 -0.2023 -1.6083  1.9841
15201TIP3   OH267017   1.112   1.064   3.881 -0.4641 -0.7680  0.3310
15201TIP3    H167018   1.089   0.978   3.914  0.6217 -1.2029  0.0209
15201TIP3    H267019   1.149   1.110   3.957  0.8972 -1.3369  0.0488
15202TIP3   OH267020   4.347   6.336   3.834  0.5787 -0.3234  0.0094
15202TIP3    H167021   4.426   6.386   3.814  0.9579 -1.3578 -1.1918
15202TIP3    H267022   4.350   6.322   3.928  1.4729  0.2315  0.0717
15203TIP3   OH267023   1.521   6.373  13.683  0.4033 -0.2392  0.0009
15203TIP3    H167024   1.617   6.374  13.678  0.5022 -0.5084  1.3744
15203TIP3    H267025   1.500   6.422  13.762 -0.5551 -0.7884  0.1111
15204TIP3   OH267026   2.028   4.642   4.942 -0.5206  0.3469 -0.8181
15204TIP3    H167027   2.096   4.637   4.876 -0.3544 -1.7772 -0.5677
15204TIP3    H267028   1.955   4.686   4.899  0.0280  0.1179 -2.0036
15205TIP3   OH267029   2.923   2.233  15.913 -0.0324  0.2575 -0.0292
15205TIP3    H167030   3.003   2.229  15.965 -0.9115  0.3376  1.3896
15205TIP3    H267031   2.940   2.176  15.839  0.9599 -0.5605  0.7919
15206TIP3   OH267032   3.528   3.416   4.228  0.7058  0.6700  0.4758
15206TIP3    H167033   3.480   3.398   4.309  1.3403 -0.0739  0.7008
15206TIP3    H267034   3.613   3.450   4.258  0.4868  1.5782  0.0923
15207TIP3   OH267035   6.397   0.018  12.161 -0.0367  0.0946 -0.0564
15207TIP3    H167036   6.439  -0.023  12.237 -2.0839 -1.1046  0.5016
15207TIP3    H267037   6.451  -0.010  12.087  1.9876  1.2555  0.8920
15208TIP3   OH267038   5.159   1.346  11.413  0.2728  0.1049  0.3172
15208TIP3    H167039   5.101   1.387  11.477 -1.3474  0.0010 -1.0260
15208TIP3    H267040   5.121   1.368  11.328 -0.1256 -3.2765 -0.5421
15209TIP3   OH267041   5.418   3.718   5.395 -0.2331 -0.2074  0.4484
15209TIP3    H167042   5.440   3.728   5.302  0.8966 -0.9995  0.6179
15209TIP3    H267043   5.327   3.744   5.401 -0.5557 -0.9248 -1.0298
15210TIP3   OH267044   1.556   2.636   3.528  0.1593  0.4525  0.3666
15210TIP3    H167045   1.544   2.554   3.480 -2.1727  2.0191 -1.9927
15210TIP3    H267046   1.629   2.679   3.483  0.4665  0.2695  0.6920
15211TIP3   OH267047   2.578   5.274   2.140 -0.4802  0.0485 -0.1758
15211TIP3    H167048   2.628   5.228   2.208  1.3950  1.6945 -0.3322
15211TIP3    H267049   2.528   5.340   2.189  0.6264  1.0248 -0.3210
15212TIP3   OH267050   1.419   6.263   2.256 -0.6318  0.0427 -0.0818
15212TIP3    H167051   1.343   6.232   2.306 -0.8716 -0.8535 -0.9684
15212TIP3    H267052   1.381   6.301   2.177 -0.3249  2.4272  0.8348
15213TIP3   OH267053   2.954   0.883   6.267 -0.2136 -0.3461 -0.2375
15213TIP3    H167054   2.971   0.864   6.359  1.0957  2.2471  0.1306
15213TIP3    H267055   2.859   0.891   6.261 -0.1943  1.9485  1.4853
15214TIP3   OH267056   1.525   1.360   4.654  0.6243  0.1550  0.6304
15214TIP3    H167057   1.509   1.268   4.674  0.8840  0.3799  2.0023
15214TIP3    H267058   1.465   1.407   4.713  0.2810  0.8623 -0.2650
15215TIP3   OH267059   2.467   2.612   3.572 -0.0871  0.4260  0.0006
15215TIP3    H167060   2.514   2.683   3.616  0.0095  0.1145  0.4109
15215TIP3    H267061   2.515   2.598   3.490  0.0184  0.6890  0.0170
15216TIP3   OH267062   3.645   0.767  15.642  0.4096 -0.1711  0.2989
15216TIP3    H167063   3.673   0.782  15.552  0.0581  1.0105  0.3782
15216TIP3    H267064   3.569   0.824  15.654  0.6362 -0.0887  1.4430
15217TIP3   OH267065   0.862   5.815  12.716  0.0403  0.1919  0.6096
15217TIP3    H167066   0.953   5.845  12.709  0.6205 -1.2717  1.3522
15217TIP3    H267067   0.825   5.832  12.629  1.2686  0.1018  0.0391
15218TIP3   OH267068   1.048   5.500  11.384  0.1143 -0.1058 -0.4652
15218TIP3    H167069   0.984   5.441  11.425  0.0723  1.7198  2.3847
15218TIP3    H267070   1.133   5.461  11.405  0.0587  0.3680  0.7488
15219TIP3   OH267071   2.802   6.499   2.103  0.2312 -0.1773  0.9103
15219TIP3    H167072   2.782   6.574   2.047 -0.1356 -1.2992 -0.5123
15219TIP3    H267073   2.734   6.500   2.170  0.6971  1.2063  1.3941
15220TIP3   OH267074   1.274   6.438   5.512 -0.0714 -0.3665  0.4679
15220TIP3    H167075   1.279   6.430   5.607 -2.8682  1.1995  0.8818
15220TIP3    H267076   1.279   6.349   5.479  1.9405 -0.8619  1.9558
15221TIP3   OH267077   2.356   3.072   3.592 -0.0932 -0.8746  0.1653
15221TIP3    H167078   2.449   3.051   3.593  0.0550 -1.1302 -3.7093
15221TIP3    H267079   2.353   3.166   3.572 -0.6288 -1.0976 -0.8457
15222TIP3   OH267080   1.143   5.292  12.560  0.2267 -0.0399 -0.1271
15222TIP3    H167081   1.078   5.312  12.628 -2.3642 -0.7113 -2.2476
15222TIP3    H267082   1.144   5.197  12.555  1.1723 -0.0247 -0.3449
15223TIP3   OH267083   4.510   5.274  16.774  0.4639  0.1514 -0.5307
15223TIP3    H167084   4.463   5.191  16.761 -2.0272  1.3755  0.0565
15223TIP3    H267085   4.467   5.335  16.714  2.0821  1.1038 -0.7605
15224TIP3   OH267086   6.163   3.198  17.061  0.6114 -0.8269  0.0154
15224TIP3    H167087   6.072   3.229  17.056  1.3015  1.1724 -1.1576
15224TIP3    H267088   6.182   3.196  17.155  0.1278  1.2893  0.2158
15225TIP3   OH267089   0.444   0.489   4.387  0.1046 -0.1397  0.3652
15225TIP3    H167090   0.520   0.539   4.356  0.6801  0.1456  2.1073
15225TIP3    H267091   0.453   0.404   4.345  0.8274  0.2180 -0.2399
15226TIP3   OH267092   5.814   3.158  15.849  0.0506  0.0543 -0.0611
15226TIP3    H167093   5.761   3.236  15.830 -0.8317  0.0224  2.0137
15226TIP3    H267094   5.755   3.085  15.834 -1.0335  0.0550  3.3809
15227TIP3   OH267095   2.351   6.385   1.124 -0.5085 -0.2959  0.1831
15227TIP3    H167096   2.344   6.315   1.188  0.6312 -0.1961  0.4399
15227TIP3    H267097   2.280   6.369   1.062 -1.8688 -0.1707  1.6640
15228TIP3   OH267098   0.952   2.278  16.195 -0.1690  0.2787  0.5734
15228TIP3    H167099   0.971   2.211  16.260  1.0770 -0.0662 -0.1090
15228TIP3    H267100   0.940   2.229  16.113  2.2771  0.8940 -0.2631
15229TIP3   OH267101   2.260   3.750   0.808 -0.1651  0.1227 -0.0376
15229TIP3    H167102   2.296   3.662   0.814  1.0748  0.4575 -1.8262
15229TIP3    H267103   2.165   3.737   0.813  0.0386 -1.1919  0.7769
15230TIP3   OH267104   6.227   6.341   4.593 -0.2877 -0.4102 -0.0986
15230TIP3    H167105   6.265   6.300   4.515 -1.1316  0.7845 -1.1955
15230TIP3    H267106   6.301   6.383   4.636  0.3986 -2.1270  0.4557
15231TIP3   OH267107   1.722   4.016   6.481 -0.0812 -0.3847 -0.0288
15231TIP3    H167108   1.658   4.082   6.455 -0.5765 -0.3702  1.1539
15231TIP3    H267109   1.674   3.959   6.542  1.0690 -0.2616  1.0320
15232TIP3   OH267110   1.484   6.276   1.557 -0.1428  0.2000 -0.1965
15232TIP3    H167111   1.416   6.218   1.523 -0.5400  1.6077 -1.9336
15232TIP3    H267112   1.566   6.230   1.541 -0.5870 -1.1604  1.1872
15233TIP3   OH267113   3.404   0.691  11.846  0.0677 -0.7735 -0.2577
15233TIP3    H167114   3.345   0.620  11.870  0.1709 -0.3770  1.2327
15233TIP3    H267115   3.350   0.770  11.849 -0.3410 -0.8325 -3.0081
15234TIP3   OH267116   4.556   5.094  14.015 -0.6350 -0.3308 -0.2882
15234TIP3    H167117   4.618   5.095  13.942  0.0104 -0.0986  0.2533
15234TIP3    H267118   4.512   5.179  14.010 -0.2897 -0.1428 -0.1526
15235TIP3   OH267119   1.925   0.148   4.583  0.8862 -0.0332 -0.3836
15235TIP3    H167120   1.865   0.103   4.523  0.5293  0.1817 -0.1928
15235TIP3    H267121   2.010   0.144   4.539  1.3919 -2.8704  0.6367
15236TIP3   OH267122   3.940   5.512  17.449 -0.3185  0.0063 -0.4361
15236TIP3    H167123   4.027   5.548  17.464 -1.1680  1.4236  1.4925
15236TIP3    H267124   3.938   5.491  17.356  1.8217  0.5885 -0.6550
15237TIP3   OH267125   2.461   4.756  15.059  0.1026  0.0571 -0.5592
15237TIP3    H167126   2.508   4.756  15.143  0.9216  0.0568 -1.0095
15237TIP3    H267127   2.465   4.665  15.029  0.4909  0.2045 -0.9677
15238TIP3   OH267128   2.074   5.943  13.498 -0.2759 -0.2265 -0.3612
15238TIP3    H167129   2.078   5.962  13.404 -4.7594  1.6386 -0.4117
15238TIP3    H267130   2.013   5.870  13.506 -0.5865  0.1555  1.1236
15239TIP3   OH267131   1.998   2.197  17.118  0.4595 -0.9020  0.2843
15239TIP3    H167132   1.975   2.233  17.032  2.6229  0.0476  0.0327
15239TIP3    H267133   1.952   2.252  17.181  1.4322  0.5466 -0.2074
15240TIP3   OH267134   3.390   5.837   4.912  0.2906 -0.2172 -0.7813
15240TIP3    H167135   3.304   5.822   4.874 -0.0443  0.7015 -0.4291
15240TIP3    H267136   3.373   5.892   4.989  1.3191  1.2808 -1.5611
15241TIP3   OH267137   3.352   6.289  12.094 -0.3231  0.0959  0.0241
15241TIP3    H167138   3.404   6.362  12.061  0.9227 -0.3410  0.9344
15241TIP3    H267139   3.265   6.326  12.107  0.5152  1.7314  1.4284
15242TIP3   OH267140   5.124   1.850   3.464 -0.6264  0.7390  0.6300
15242TIP3    H167141   5.122   1.801   3.381  0.6623 -0.3106  1.1756
15242TIP3    H267142   5.166   1.933   3.441  1.5257 -0.2811  0.5154
15243TIP3   OH267143   4.979   3.721   5.854 -0.1054  0.5444 -0.7983
15243TIP3    H167144   5.049   3.657   5.845  0.0154  0.6455 -0.6042
15243TIP3    H267145   4.960   3.749   5.765  0.0331  0.4431 -0.8599
15244TIP3   OH267146   5.854   0.926   1.740  0.2777 -0.1134 -0.2466
15244TIP3    H167147   5.885   0.837   1.752  0.4017 -0.3536 -2.0755
15244TIP3    H267148   5.861   0.942   1.646 -2.8412  0.6673 -0.4629
15245TIP3   OH267149   5.016   3.324  11.838  0.1959 -0.5235 -0.4725
15245TIP3    H167150   5.058   3.329  11.752  1.8903 -0.8705  0.2869
15245TIP3    H267151   5.019   3.231  11.860  2.2115 -0.1777  1.0476
15246TIP3   OH267152   0.013   1.358  14.406  0.0310  0.0565  0.4401
15246TIP3    H167153   0.058   1.283  14.447  1.5948  0.4129 -0.5220
15246TIP3    H267154   0.022   1.429  14.469  0.6813  0.0722  0.3361
15247TIP3   OH267155   0.536   4.532  13.415  0.3746  0.1994  0.2231
15247TIP3    H167156   0.464   4.595  13.423  1.5660  1.4771  1.6960
15247TIP3    H267157   0.566   4.520  13.505  1.0913 -1.4314 -0.2047
15248TIP3   OH267158   0.045   1.374  12.596  0.5631  0.1876  0.2936
15248TIP3    H167159   0.132   1.333  12.594  0.2935 -0.4883 -2.5209
15248TIP3    H267160  -0.016   1.301  12.603  0.1799  0.4828  0.0716
15249TIP3   OH267161   4.576   0.057   0.079  0.4328  0.4102 -0.8184
15249TIP3    H167162   4.647  -0.006   0.086 -0.1087 -0.1341 -0.0554
15249TIP3    H267163   4.597   0.124   0.144 -0.1286 -0.1450 -0.0476
15250TIP3   OH267164   4.688   5.820  14.611  0.0979 -0.1897 -0.3243
15250TIP3    H167165   4.646   5.825  14.696 -2.1629 -0.2106 -1.3861
15250TIP3    H267166   4.768   5.769  14.627  0.0454  0.3264  1.8536
15251TIP3   OH267167   5.761   0.972  13.296 -0.5585  0.0108 -0.3587
15251TIP3    H167168   5.824   0.977  13.368 -1.1581 -1.4817  0.3108
15251TIP3    H267169   5.784   0.892  13.250  0.6824  1.6256 -2.7399
15252TIP3   OH267170   4.036   1.907   1.563 -0.1460 -0.3960 -0.3697
15252TIP3    H167171   4.075   1.914   1.651 -1.4053  2.2031  0.0998
15252TIP3    H267172   4.107   1.933   1.504 -0.0400  0.5494  0.1449
15253TIP3   OH267173   0.794   1.472  14.316 -0.4433  0.3329 -0.6456
15253TIP3    H167174   0.821   1.548  14.369 -0.4867  0.3006 -0.5765
15253TIP3    H267175   0.791   1.400  14.379  1.7973 -0.2482 -1.0934
15254TIP3   OH267176   3.429   4.483   4.945  0.3520  0.3702 -0.2730
15254TIP3    H167177   3.459   4.566   4.907  2.2055  0.2631  0.8747
15254TIP3    H267178   3.478   4.475   5.027 -0.1616 -1.6390 -0.1281
15255TIP3   OH267179   0.669   0.793   3.842 -0.6948  0.5740  0.2905
15255TIP3    H167180   0.654   0.853   3.915 -1.8662  0.3306  0.2814
15255TIP3    H267181   0.641   0.707   3.876 -1.6803  0.5361 -0.5580
15256TIP3   OH267182   0.661   1.103  14.768 -0.2546 -0.8257  0.6510
15256TIP3    H167183   0.572   1.135  14.784  0.5091  2.3425 -0.5812
15256TIP3    H267184   0.684   1.054  14.847 -2.2785  0.3016  2.0304
15257TIP3   OH267185   2.374   2.335  14.021 -0.2601  0.2439 -0.1939
15257TIP3    H167186   2.392   2.278  13.947  0.0494 -0.5264  0.4546
15257TIP3    H267187   2.431   2.303  14.091 -0.8298  0.6986  0.5001
15258TIP3   OH267188   3.908   3.567  14.299  0.3171  0.4766  0.3347
15258TIP3    H167189   3.943   3.540  14.215 -0.5226  0.2968  0.0359
15258TIP3    H267190   3.981   3.612  14.342  1.1407 -0.5539  0.0525
15259TIP3   OH267191   0.740   0.230   1.303 -0.2881  0.4055  0.1696
15259TIP3    H167192   0.681   0.206   1.231  0.8833 -1.3593 -0.2749
15259TIP3    H267193   0.743   0.152   1.359  0.5573  0.9538  0.9284
15260TIP3   OH267194   0.901   2.578   3.918 -0.8361 -0.6172 -0.1962
15260TIP3    H167195   0.939   2.558   3.833 -0.5868  1.2147 -0.5556
15260TIP3    H267196   0.841   2.650   3.902  0.8027  1.2563  1.4650
15261TIP3   OH267197   2.272   4.081  12.759  0.0745  0.5433 -0.2607
15261TIP3    H167198   2.330   4.013  12.724 -0.3801 -0.3731  0.7482
15261TIP3    H267199   2.185   4.041  12.759  0.0741  0.4433  2.0299
15262TIP3   OH267200   3.368   4.469  12.814  0.1673 -0.4226 -0.5721
15262TIP3    H167201   3.281   4.460  12.854 -0.4765  1.4689 -1.4308
15262TIP3    H267202   3.395   4.559  12.835 -0.0456  0.5510 -3.9396
15263TIP3   OH267203   6.206   1.270   4.653  0.2041  0.0082  0.0328
15263TIP3    H167204   6.198   1.340   4.717  0.3727 -0.2198  0.3069
15263TIP3    H267205   6.158   1.301   4.576  1.1890  0.8907 -0.2508
15264TIP3   OH267206   4.726   1.903  16.059  0.1622 -0.2521 -0.1858
15264TIP3    H167207   4.740   1.989  16.099 -0.9446 -0.7649  1.4186
15264TIP3    H267208   4.680   1.853  16.126  2.3651 -2.7209 -0.3465
15265TIP3   OH267209   2.404   2.396  13.417 -0.0002 -0.7647 -0.1171
15265TIP3    H167210   2.335   2.423  13.478  1.7788  1.6077  1.0423
15265TIP3    H267211   2.378   2.433  13.333 -0.2290  0.0055  0.2822
15266TIP3   OH267212   6.168   2.783   5.332 -0.0587 -0.3444 -0.0658
15266TIP3    H167213   6.077   2.799   5.354  0.1408 -1.1245  1.4720
15266TIP3    H267214   6.187   2.695   5.366  0.6890 -1.1196 -2.2984
15267TIP3   OH267215   2.592   5.871   0.780  0.2574  0.0249  0.5632
15267TIP3    H167216   2.632   5.785   0.766 -2.7177 -1.2656 -1.0718
15267TIP3    H267217   2.517   5.853   0.837 -0.9018  1.3752 -0.4822
15268TIP3   OH267218   2.412   5.033   3.528 -0.2094  1.0828  0.3346
15268TIP3    H167219   2.384   5.120   3.556 -1.1224  0.5501  1.1329
15268TIP3    H267220   2.371   4.973   3.590  0.3996  0.0757 -0.2061
15269TIP3   OH267221   5.299   5.100  12.025 -0.3110 -0.1332 -0.2431
15269TIP3    H167222   5.324   5.080  11.935 -0.4314 -1.9463  0.0873
15269TIP3    H267223   5.207   5.074  12.030  0.0927 -1.4717  0.7689
15270TIP3   OH267224   4.481   4.587   1.891  0.0455  0.0555 -0.4222
15270TIP3    H167225   4.408   4.629   1.937  0.5301  1.8537 -1.2272
15270TIP3    H267226   4.447   4.568   1.804  0.6164  1.2618 -0.9313
15271TIP3   OH267227   4.671   6.544   5.001 -0.3926  0.0814  0.3211
15271TIP3    H167228   4.606   6.491   4.955 -2.3708  2.3456  0.3018
15271TIP3    H267229   4.701   6.489   5.073 -1.7529 -1.3295 -0.1527
15272TIP3   OH267230   5.927   1.923   2.474  0.0159 -0.1668 -0.4455
15272TIP3    H167231   6.022   1.921   2.469  0.0122 -2.7587 -0.8122
15272TIP3    H267232   5.905   1.860   2.543 -1.4494  0.4551 -0.2985
15273TIP3   OH267233   4.847   3.181   6.483 -0.0955 -0.4430 -0.1024
15273TIP3    H167234   4.776   3.210   6.540  0.5162 -0.8055  0.8548
15273TIP3    H267235   4.882   3.262   6.446 -0.3617 -0.1862  0.1960
15274TIP3   OH267236   1.172   4.008   3.877  0.4246  0.1381  0.7355
15274TIP3    H167237   1.173   3.986   3.784 -0.0926  2.3764  0.1409
15274TIP3    H267238   1.146   3.927   3.921  0.8033 -0.9921 -1.0494
15275TIP3   OH267239   4.936   4.343   0.774 -0.4060  0.2744 -0.7005
15275TIP3    H167240   4.957   4.354   0.867  0.5962 -0.4926 -0.8166
15275TIP3    H267241   4.950   4.430   0.736 -1.4735  0.7595 -0.0320
15276TIP3   OH267242   0.896   1.178  14.017  0.3402  0.2114  0.1528
15276TIP3    H167243   0.940   1.232  14.083 -0.4346  0.7605  0.2273
15276TIP3    H267244   0.874   1.097  14.064 -1.9060  1.3305  1.1512
15277TIP3   OH267245   5.066   5.234   0.682 -0.7775  0.0364  0.5546
15277TIP3    H167246   5.081   5.288   0.605 -0.2823  0.6228  1.0572
15277TIP3    H267247   5.125   5.269   0.749 -1.8279  0.0992  1.4759
15278TIP3   OH267248   0.267   1.472  12.262  0.2610  0.5140 -0.7074
15278TIP3    H167249   0.223   1.402  12.214  0.5539 -1.6394  1.8873
15278TIP3    H267250   0.337   1.501  12.204  1.2311 -2.6018 -1.3240
15279TIP3   OH267251   0.259   3.326  12.565 -0.0416  0.2384 -0.5092
15279TIP3    H167252   0.249   3.270  12.643 -5.7628 -0.3405 -1.2820
15279TIP3    H267253   0.299   3.406  12.598 -2.0996 -0.0297  3.1084
15280TIP3   OH267254   4.306   6.391  10.450 -0.0891 -0.5562 -0.5080
15280TIP3    H167255   4.319   6.479  10.415 -1.5331  0.8692  2.1729
15280TIP3    H267256   4.259   6.344  10.381  0.2782  0.9035 -1.8106
15281TIP3   OH267257   5.565   0.023   6.054 -0.0303  0.4572 -0.0730
15281TIP3    H167258   5.612  -0.005   6.132 -0.4650 -0.0850  0.0003
15281TIP3    H267259   5.487   0.066   6.088 -0.5395 -0.3416 -0.2042
15282TIP3   OH267260   2.630   1.128   4.202  0.0284 -0.2161  0.0888
15282TIP3    H167261   2.594   1.091   4.283 -0.7531  0.1950 -0.0572
15282TIP3    H267262   2.602   1.067   4.133 -0.7831  0.3326 -0.0805
15283TIP3   OH267263   2.892   2.117  13.556 -0.3102  0.2250  0.5870
15283TIP3    H167264   2.985   2.102  13.536  0.1155  1.3608  1.5894
15283TIP3    H267265   2.852   2.030  13.547  1.0071 -0.4479  0.9017
15284TIP3   OH267266   5.289   1.383  16.186  0.2443  1.2037 -0.1676
15284TIP3    H167267   5.252   1.415  16.269 -0.5436 -0.2593  0.0680
15284TIP3    H267268   5.383   1.397  16.196  0.2360  0.3909  1.2972
15285TIP3   OH267269   3.711   2.039   3.899  0.0104  0.0320  0.1366
15285TIP3    H167270   3.637   2.007   3.951 -0.8608  1.8135  0.0674
15285TIP3    H267271   3.670   2.088   3.828  1.1914 -1.8848 -1.9917
15286TIP3   OH267272   2.082   5.587   3.451 -0.0665  0.2633 -0.7229
15286TIP3    H167273   2.111   5.678   3.442 -2.4732  1.2552  0.6677
15286TIP3    H267274   2.135   5.552   3.524 -0.0238  0.9578 -0.4154
15287TIP3   OH267275   4.461   4.982   6.298 -0.0064  0.6076 -0.0902
15287TIP3    H167276   4.405   5.026   6.363 -0.6506 -0.4286  0.0804
15287TIP3    H267277   4.504   4.912   6.347  1.3919  1.3312 -0.2530
15288TIP3   OH267278   1.950   4.136  11.069 -0.3964  0.3093 -0.1376
15288TIP3    H167279   2.037   4.112  11.035  0.0762  1.3185  0.3100
15288TIP3    H267280   1.964   4.220  11.113 -1.4913  0.2004  0.4516
15289TIP3   OH267281   4.122   4.395  15.230  0.4485 -0.1269  0.1077
15289TIP3    H167282   4.199   4.364  15.181  1.9690  0.9800  1.6655
15289TIP3    H267283   4.065   4.318  15.236  1.5175 -1.0414 -0.9239
15290TIP3   OH267284   0.772   4.334  15.842  0.0071 -0.3780 -0.2194
15290TIP3    H167285   0.702   4.314  15.780  0.2510 -0.6838 -0.3986
15290TIP3    H267286   0.726   4.353  15.924 -0.2871 -0.6100 -0.3278
15291TIP3   OH267287   6.659   5.098  16.998 -0.3289 -0.7392  0.1406
15291TIP3    H167288   6.577   5.114  17.046 -0.8511  0.0209 -0.9611
15291TIP3    H267289   6.679   5.183  16.958  0.1839 -1.3119 -0.8355
15292TIP3   OH267290   5.796   3.302  14.013  0.1561 -0.6687 -0.1547
15292TIP3    H167291   5.871   3.357  13.991  0.2254 -0.3694  0.8221
15292TIP3    H267292   5.720   3.351  13.981  0.1603  0.3346  1.3080
15293TIP3   OH267293   4.432   2.530   2.913 -0.0215 -0.3766 -0.0223
15293TIP3    H167294   4.501   2.587   2.947  1.7357 -2.0704 -0.5822
15293TIP3    H267295   4.368   2.525   2.984  1.5391 -0.5507  1.4309
15294TIP3   OH267296   1.914   2.898   2.351  0.6226 -0.2302 -0.1711
15294TIP3    H167297   1.937   2.873   2.440  1.2106 -1.0122 -0.5271
15294TIP3    H267298   1.997   2.914   2.308  0.3189  0.6595 -0.4433
15295TIP3   OH267299   1.077   5.986   4.989 -0.0703  0.5404 -0.1552
15295TIP3    H167300   1.064   6.070   4.945  0.8510  1.0640  0.5334
15295TIP3    H267301   1.004   5.979   5.050 -0.1023  0.8944 -0.1502
15296TIP3   OH267302   4.422   4.566  15.038 -0.1630 -0.3026  0.0157
15296TIP3    H167303   4.426   4.550  15.133  1.5900 -0.0726  0.0148
15296TIP3    H267304   4.513   4.575  15.012 -0.6455  0.0286 -1.6482
15297TIP3   OH267305   2.437   2.251  12.963  0.0608 -0.7647  0.3352
15297TIP3    H167306   2.382   2.242  13.041 -0.1860  0.0309  0.2615
15297TIP3    H267307   2.506   2.312  12.989 -0.5812  0.2882 -0.3448
15298TIP3   OH267308   1.922   5.479  16.451 -0.2369  0.0518  0.5899
15298TIP3    H167309   1.871   5.399  16.467 -0.9231  0.6044  1.1999
15298TIP3    H267310   1.993   5.450  16.393 -1.5733 -0.6235 -0.7870
15299TIP3   OH267311   2.665   2.130  14.780  0.0196  0.2351 -0.1131
15299TIP3    H167312   2.680   2.209  14.728  0.2771 -0.7050 -1.5063
15299TIP3    H267313   2.657   2.162  14.870 -0.6971  1.9233 -0.7424
15300TIP3   OH267314   2.967   3.966   5.055  0.4596 -0.4683 -0.6031
15300TIP3    H167315   3.023   3.892   5.079  0.4280  0.0055  1.1019
15300TIP3    H267316   2.885   3.948   5.100  0.0636  0.0398 -1.1203
15301TIP3   OH267317   6.111   2.328  16.151 -0.3482  0.5958  0.3014
15301TIP3    H167318   6.112   2.339  16.246 -0.3935 -0.3437  0.4231
15301TIP3    H267319   6.091   2.235  16.138  1.0009  0.4055 -0.5932
15302TIP3   OH267320   6.052   6.624   5.501  0.3417 -0.2911  0.0003
15302TIP3    H167321   6.004   6.603   5.421  0.9622 -1.2757 -0.1366
15302TIP3    H267322   5.995   6.684   5.548 -0.1088  0.1775 -1.1001
15303TIP3   OH267323   3.865   4.174   3.185  0.6156  0.1287 -0.8211
15303TIP3    H167324   3.779   4.206   3.213  1.0059 -0.6281  1.4365
15303TIP3    H267325   3.924   4.248   3.199  0.6249  0.0848 -0.6181
15304TIP3   OH267326   2.307   2.635  14.852  0.2223 -0.9555 -0.2192
15304TIP3    H167327   2.358   2.704  14.809 -0.1481  0.1469  1.0420
15304TIP3    H267328   2.330   2.555  14.805  2.4265 -0.3504 -0.2560
15305TIP3   OH267329   6.373   1.893   4.012 -0.8253  0.4228 -0.4926
15305TIP3    H167330   6.350   1.805   4.039  1.4808  0.0730  0.5567
15305TIP3    H267331   6.448   1.882   3.953  2.0194  1.7068  2.5548
15306TIP3   OH267332   3.976   0.541   3.125 -0.4501 -0.0637 -0.3587
15306TIP3    H167333   3.975   0.628   3.166 -3.0858 -0.4076  0.4384
15306TIP3    H267334   3.892   0.502   3.146 -0.2133 -2.0133 -2.5100
15307TIP3   OH267335   1.119   2.106   1.943 -0.1602 -0.3096  0.1145
15307TIP3    H167336   1.024   2.098   1.956 -0.1532 -1.1414 -0.2973
15307TIP3    H267337   1.138   2.047   1.871  0.7284 -0.3973  0.4138
15308TIP3   OH267338   5.052   1.691   3.230  0.2051 -0.3951 -0.2782
15308TIP3    H167339   5.054   1.698   3.135 -2.3815 -1.5610 -0.4965
15308TIP3    H267340   5.028   1.600   3.247  0.6265 -0.2193  1.5150
15309TIP3   OH267341   0.337   3.265  15.763  0.1028 -0.1226  0.0530
15309TIP3    H167342   0.432   3.268  15.750  0.0698 -0.5210 -0.3177
15309TIP3    H267343   0.310   3.182  15.722 -0.5076  0.3706 -0.5732
15310TIP3   OH267344   1.632   5.222  11.101 -0.0217  0.2395 -0.5830
15310TIP3    H167345   1.712   5.219  11.048  1.3048  2.2084  1.1442
15310TIP3    H267346   1.598   5.310  11.089 -1.0236 -0.0527 -0.0283
15311TIP3   OH267347   2.832   3.233  13.271  0.4812 -0.3093  0.2324
15311TIP3    H167348   2.786   3.276  13.343 -1.8499 -0.3964 -1.1143
15311TIP3    H267349   2.832   3.140  13.294  1.1871 -0.1755  0.8340
15312TIP3   OH267350   3.623   4.182   0.538 -0.5782  0.6205  0.1170
15312TIP3    H167351   3.718   4.196   0.544 -0.2852 -0.6624 -1.1452
15312TIP3    H267352   3.601   4.206   0.448 -1.6835  2.0619  0.7379
15313TIP3   OH267353   3.994   0.053   4.362  0.5609 -0.3329 -0.5283
15313TIP3    H167354   4.030  -0.033   4.381 -0.9532 -0.9370 -0.2105
15313TIP3    H267355   4.001   0.101   4.445 -0.3810 -0.8451 -0.1358
15314TIP3   OH267356   0.948   2.111  16.763  0.2154  0.5487 -0.1918
15314TIP3    H167357   1.005   2.064  16.702  1.2431  1.1397  0.2781
15314TIP3    H267358   0.999   2.189  16.787 -0.2845  0.4743  1.1759
15315TIP3   OH267359   4.531   1.199   5.439 -0.3873 -0.6097 -0.0544
15315TIP3    H167360   4.483   1.209   5.357  0.0624 -1.5230 -0.4382
15315TIP3    H267361   4.553   1.106   5.443  1.8174 -0.1522 -0.1696
15316TIP3   OH267362   2.082   1.612   1.448  0.2668 -0.2143 -0.4601
15316TIP3    H167363   2.090   1.670   1.372  0.3285  0.1407 -0.1829
15316TIP3    H267364   2.110   1.665   1.522 -0.5274 -0.3111 -0.0741
15317TIP3   OH267365   6.054   3.590   2.171  0.3700 -0.4030  0.3542
15317TIP3    H167366   6.127   3.539   2.138 -0.1327 -2.6922  2.4383
15317TIP3    H267367   5.989   3.525   2.197 -1.8865  1.4832 -0.1937
15318TIP3   OH267368   3.113   5.374  13.893  0.6780 -0.0159 -0.3416
15318TIP3    H167369   3.039   5.317  13.872  0.0941  0.6440 -0.1194
15318TIP3    H267370   3.189   5.329  13.855  0.1123 -0.4992 -0.9409
15319TIP3   OH267371   3.431   1.597  12.991 -0.3477 -0.1469  0.0992
15319TIP3    H167372   3.420   1.663  13.060 -1.0201  0.6846 -0.7703
15319TIP3    H267373   3.517   1.614  12.954 -0.6321  0.4500 -0.3089
15320TIP3   OH267374   6.711   1.707   3.169 -0.1879  0.5055 -0.4501
15320TIP3    H167375   6.645   1.767   3.203 -1.2176 -0.2480 -1.0989
15320TIP3    H267376   6.769   1.691   3.244  1.2033  3.6467 -0.6659
15321TIP3   OH267377   2.214   6.537   1.986  0.4072  0.2821 -0.2728
15321TIP3    H167378   2.206   6.633   1.993  0.5137  0.2065  1.2143
15321TIP3    H267379   2.166   6.515   1.906  0.6534  1.6114 -0.8137
15322TIP3   OH267380   4.540   6.054  11.474 -0.4497 -0.0141 -0.6202
15322TIP3    H167381   4.556   6.005  11.555  2.1687  3.1957  1.0255
15322TIP3    H267382   4.618   6.038  11.421  0.7739  2.6056  0.2136
15323TIP3   OH267383   1.551   4.187   4.209 -0.2181  0.0182 -0.3315
15323TIP3    H167384   1.476   4.232   4.171 -0.0163  0.7384  0.1062
15323TIP3    H267385   1.558   4.105   4.159 -1.5801 -0.2809 -0.0654
15324TIP3   OH267386   6.309   1.365   3.954 -0.1977 -0.3189 -0.1079
15324TIP3    H167387   6.297   1.273   3.979  0.3642 -0.2705  0.3486
15324TIP3    H267388   6.395   1.367   3.912 -0.3408 -0.0538 -0.3909
15325TIP3   OH267389   0.002   1.901   4.211  1.2285  0.0759  0.0115
15325TIP3    H167390   0.067   1.888   4.281  1.1944 -1.6636 -0.2156
15325TIP3    H267391  -0.001   1.816   4.166 -1.7449 -0.2076  0.5042
15326TIP3   OH267392   0.535   6.420  15.299  0.1470 -0.0358  0.4152
15326TIP3    H167393   0.566   6.482  15.364 -0.8149 -0.0781  0.9196
15326TIP3    H267394   0.494   6.350  15.349 -1.7016  0.5125 -0.2481
15327TIP3   OH267395   2.312   5.134  12.987  0.0602  0.2404  0.2038
15327TIP3    H167396   2.240   5.176  13.034  0.1521  0.2659  0.3209
15327TIP3    H267397   2.287   5.142  12.895 -0.9331 -1.2686  0.2969
15328TIP3   OH267398   2.785   1.547   1.871 -0.4960 -0.5974 -1.1672
15328TIP3    H167399   2.735   1.577   1.947 -1.1862 -1.1209 -1.3962
15328TIP3    H267400   2.844   1.619   1.851 -0.9502 -0.0825 -0.6900
15329TIP3   OH267401   2.049   5.344  11.649 -0.5646 -0.2654  0.2556
15329TIP3    H167402   2.142   5.336  11.627 -0.6807  1.4526 -1.1080
15329TIP3    H267403   2.014   5.256  11.637  0.9692 -1.0682  1.3518
15330TIP3   OH267404   4.244   6.441   4.865 -0.5655  0.2544 -0.3997
15330TIP3    H167405   4.238   6.376   4.935 -1.1497 -0.2398 -0.9020
15330TIP3    H267406   4.312   6.503   4.896 -0.6637 -0.0665  0.4986
15331TIP3   OH267407   0.132   2.722   6.318 -0.2209  0.0220 -0.0230
15331TIP3    H167408   0.200   2.660   6.345  0.6162  0.7434 -0.4147
15331TIP3    H267409   0.109   2.769   6.398 -1.8955 -1.7150  0.5936
15332TIP3   OH267410   2.562   5.603   4.513  0.3877  0.1184 -0.8642
15332TIP3    H167411   2.548   5.647   4.429 -1.3434 -1.4033 -1.4618
15332TIP3    H267412   2.656   5.606   4.527  0.4272  3.3811 -1.1525
15333TIP3   OH267413   6.128   4.213  15.899 -0.3062 -0.8644  0.0917
15333TIP3    H167414   6.132   4.173  15.985 -0.3350 -1.6666 -0.2695
15333TIP3    H267415   6.169   4.150  15.840 -2.4177 -1.4615 -0.8686
15334TIP3   OH267416   4.198   1.922  13.299 -0.0908 -0.3702  0.5381
15334TIP3    H167417   4.294   1.915  13.299 -0.0619  0.0163  0.2078
15334TIP3    H267418   4.170   1.852  13.359  0.3951 -0.4876  0.6400
15335TIP3   OH267419   1.494   0.041   6.575 -0.2702 -0.0200  0.1389
15335TIP3    H167420   1.410   0.013   6.540 -0.1469 -0.7210  0.4004
15335TIP3    H267421   1.472   0.099   6.648 -0.5231  0.1892 -0.1022
15336TIP3   OH267422   5.717   3.915  11.483 -0.5080  0.6146  0.6144
15336TIP3    H167423   5.768   3.966  11.421 -1.4124 -0.5476 -1.1903
15336TIP3    H267424   5.667   3.854  11.428 -1.3548 -0.4834  2.4998
15337TIP3   OH267425   3.431   3.991   2.521  0.4328  0.1005  0.3376
15337TIP3    H167426   3.401   4.081   2.532 -3.0641 -0.7191 -0.9567
15337TIP3    H267427   3.446   3.982   2.426  4.1502  0.1196  0.7807
15338TIP3   OH267428   6.279   4.422  10.702  0.1821 -0.4607 -0.4189
15338TIP3    H167429   6.252   4.402  10.791 -0.7300  0.5984 -0.4344
15338TIP3    H267430   6.265   4.516  10.693  1.4159 -0.3276 -1.3016
15339TIP3   OH267431   0.576   3.308   1.840  0.7985  0.1946 -0.0773
15339TIP3    H167432   0.547   3.367   1.910 -1.1585  0.2354 -0.8678
15339TIP3    H267433   0.671   3.301   1.853  0.4007 -0.9299  3.4854
15340TIP3   OH267434   6.529   4.340   5.441  0.1654 -1.0061  0.9590
15340TIP3    H167435   6.546   4.248   5.458 -0.1014 -1.2495 -0.0508
15340TIP3    H267436   6.459   4.341   5.375  0.3419 -0.0916  0.7616
15341TIP3   OH267437   1.846   3.058  13.205 -0.1678  0.2714  0.1583
15341TIP3    H167438   1.803   2.993  13.149  0.1829  0.9811 -0.9755
15341TIP3    H267439   1.930   3.018  13.227  0.1677  0.4227 -0.7666
15342TIP3   OH267440   4.874   1.317  17.261  0.2713  0.2055  0.0491
15342TIP3    H167441   4.951   1.282  17.306  0.7191  0.9243 -0.1270
15342TIP3    H267442   4.808   1.248  17.267  1.2386 -0.8182 -0.6321
15343TIP3   OH267443   3.742   3.035  12.618  0.0864  0.4229 -0.2611
15343TIP3    H167444   3.731   2.942  12.638  0.8955  0.1754 -0.9493
15343TIP3    H267445   3.793   3.037  12.538 -2.1247  1.4077 -1.7354
15344TIP3   OH267446   3.616   4.132  13.303  0.4574 -0.3374  0.1791
15344TIP3    H167447   3.679   4.106  13.370  0.3203  0.0821  0.4715
15344TIP3    H267448   3.645   4.218  13.274 -0.9929  0.6896  1.6032
15345TIP3   OH267449   3.555   0.441   2.397 -0.1083 -0.3567 -0.2816
15345TIP3    H167450   3.471   0.463   2.357  0.1038  0.0968 -0.4896
15345TIP3    H267451   3.619   0.457   2.328  0.1787 -0.4169 -0.0319
15346TIP3   OH267452   4.738   4.945   6.500 -0.1313  0.1119  0.0906
15346TIP3    H167453   4.825   4.908   6.514  0.0145 -0.5508 -2.2252
15346TIP3    H267454   4.678   4.875   6.528  0.0686  0.1873  0.7299
15347TIP3   OH267455   2.487   0.704  14.993  0.4545 -0.3680  0.1567
15347TIP3    H167456   2.499   0.685  14.900  0.7503 -0.8791  0.2935
15347TIP3    H267457   2.429   0.780  14.995  1.0757  0.1366 -0.4669
15348TIP3   OH267458   3.059   6.601   4.559 -0.1809 -0.0292  0.3031
15348TIP3    H167459   3.007   6.611   4.638 -0.2801  0.6676  0.1556
15348TIP3    H267460   3.147   6.582   4.591 -0.5126 -1.2340  0.5523
15349TIP3   OH267461   1.533   0.408   4.641  0.2569 -0.5449  0.2646
15349TIP3    H167462   1.618   0.420   4.685 -0.1576  1.6771  0.5723
15349TIP3    H267463   1.528   0.480   4.579 -0.9232 -1.3402 -0.5953
15350TIP3   OH267464   2.117   2.666   1.212 -0.2037  0.7441  0.2963
15350TIP3    H167465   2.136   2.629   1.299  0.0146 -0.7499 -0.3506
15350TIP3    H267466   2.025   2.694   1.218 -1.1046 -1.8637  0.2546
15351TIP3   OH267467   2.431   0.071   4.994  0.0812 -0.4504 -0.1305
15351TIP3    H167468   2.492   0.057   5.066 -0.2492  0.4837  0.3493
15351TIP3    H267469   2.437   0.165   4.975 -0.3215 -0.5652 -0.8878
15352TIP3   OH267470   5.460   0.957   2.093 -0.0797  0.1052 -0.4635
15352TIP3    H167471   5.499   0.874   2.066  1.1453  1.0440 -1.7469
15352TIP3    H267472   5.437   0.945   2.185  2.3163 -0.8716  0.0621
15353TIP3   OH267473   1.377   2.939  12.876  0.0026 -0.0965  0.5432
15353TIP3    H167474   1.351   3.031  12.883 -2.0444 -0.6795  1.4528
15353TIP3    H267475   1.428   2.934  12.795 -0.4168  1.7116  0.1338
15354TIP3   OH267476   5.349   2.376   3.470  0.0523 -0.3138  0.5907
15354TIP3    H167477   5.410   2.398   3.400  1.2455 -1.8071  1.1083
15354TIP3    H267478   5.405   2.358   3.546 -1.1960  1.5570  2.0779
15355TIP3   OH267479   5.775   2.460  15.875  0.2007  0.6338 -0.2901
15355TIP3    H167480   5.697   2.516  15.869  0.2657  0.6086 -1.5051
15355TIP3    H267481   5.757   2.387  15.815  0.9474  0.3667 -0.1974
15356TIP3   OH267482   3.637   4.594   1.442  0.3117  0.2053 -0.0415
15356TIP3    H167483   3.610   4.586   1.351 -0.2799 -0.4342  0.1813
15356TIP3    H267484   3.673   4.509   1.465 -2.1375 -0.5981  1.1237
15357TIP3   OH267485   5.329   0.769   0.099 -0.3931  0.3111  0.3976
15357TIP3    H167486   5.317   0.861   0.077 -1.0089 -0.1285 -1.1922
15357TIP3    H267487   5.385   0.734   0.030 -0.4506 -0.5942  0.7871
15358TIP3   OH267488   3.972   6.691   3.446 -0.8068  0.3399 -0.1000
15358TIP3    H167489   3.970   6.595   3.452 -1.8381  0.3346 -0.3408
15358TIP3    H267490   4.065   6.712   3.435 -0.8075 -0.8527 -3.3493
15359TIP3   OH267491   6.432   5.002   3.147  0.9247  0.2380 -0.0110
15359TIP3    H167492   6.487   4.981   3.223 -0.7076 -1.8916  0.6661
15359TIP3    H267493   6.452   4.934   3.083 -1.2920 -0.9603  0.4832
15360TIP3   OH267494   0.492   4.136  16.143 -0.1296  0.3725 -0.1819
15360TIP3    H167495   0.500   4.228  16.169  0.4400  0.5947 -1.0688
15360TIP3    H267496   0.412   4.132  16.092 -1.2004 -0.0455  1.4436
15361TIP3   OH267497   3.966   5.210   1.176 -0.4192  0.1966  0.1690
15361TIP3    H167498   3.888   5.196   1.123 -1.0387 -0.0324  1.1128
15361TIP3    H267499   3.968   5.304   1.191  1.1295  0.6495 -2.2515
15362TIP3   OH267500   1.289   1.780  11.007 -0.5764  0.0812 -0.5470
15362TIP3    H167501   1.306   1.872  11.029  0.3503  0.0332 -1.0237
15362TIP3    H267502   1.360   1.756  10.948 -0.2165 -1.2441  0.3779
15363TIP3   OH267503   4.914   1.767   4.148  0.3432 -0.0307  0.0058
15363TIP3    H167504   4.854   1.738   4.079  0.9094  0.9314 -0.9224
15363TIP3    H267505   4.858   1.798   4.218 -0.2436  0.3245 -0.6143
15364TIP3   OH267506   5.535   0.430  17.162 -0.4742  0.2476  0.3113
15364TIP3    H167507   5.522   0.524  17.154  0.9672  0.4014 -0.4680
15364TIP3    H267508   5.625   0.420  17.194 -0.0901 -0.8881 -1.0171
15365TIP3   OH267509   2.122   0.607  12.207  1.1617 -0.3849  0.1013
15365TIP3    H167510   2.152   0.696  12.226  0.2539 -0.2700  1.1240
15365TIP3    H267511   2.163   0.553  12.275 -0.5259 -0.2854  1.2675
15366TIP3   OH267512   2.510   6.227  12.710 -0.0351  0.2388  0.3580
15366TIP3    H167513   2.575   6.234  12.640 -0.7596  0.9659 -0.2684
15366TIP3    H267514   2.553   6.264  12.787  1.4305 -2.1790  0.8317
15367TIP3   OH267515   5.239   2.205   1.032  0.5737 -0.0694 -0.1426
15367TIP3    H167516   5.245   2.279   0.973  1.1771 -0.0699 -0.0900
15367TIP3    H267517   5.298   2.226   1.104  0.6075 -0.5175 -0.0345
15368TIP3   OH267518   1.037   5.552   0.603 -0.5211  0.3720 -0.0790
15368TIP3    H167519   0.943   5.548   0.621 -0.0847 -0.0079  2.5834
15368TIP3    H267520   1.071   5.467   0.633  0.8492  1.1040  0.5685
15369TIP3   OH267521   6.569   2.292   4.343 -0.0490  0.0070 -0.0116
15369TIP3    H167522   6.552   2.229   4.273  0.2402  0.5596 -0.5883
15369TIP3    H267523   6.593   2.372   4.298  1.3545  0.0404  0.7398
15370TIP3   OH267524   2.949   0.066  10.788 -0.6129  0.1223  0.8783
15370TIP3    H167525   2.906  -0.017  10.811 -0.1136 -0.7022 -0.9096
15370TIP3    H267526   2.910   0.090  10.704  0.4150  0.8419  0.5923
15371TIP3   OH267527   2.819   4.620   6.244 -0.2442 -0.3583 -0.3149
15371TIP3    H167528   2.864   4.667   6.314  1.0354 -0.5730 -0.9551
15371TIP3    H267529   2.749   4.572   6.288 -0.9359  1.3195  0.4774
15372TIP3   OH267530   4.926   6.551  14.467 -0.7398 -0.6040  0.3356
15372TIP3    H167531   4.995   6.506  14.516 -0.4817  0.9507  1.4508
15372TIP3    H267532   4.938   6.644  14.487 -2.0866 -0.1369 -0.8393
15373TIP3   OH267533   2.224   5.654  17.122 -0.2464  0.1949 -0.1631
15373TIP3    H167534   2.276   5.735  17.118 -2.0191  1.3612 -0.7053
15373TIP3    H267535   2.163   5.670  17.194 -0.1736 -0.9690  0.1695
15374TIP3   OH267536   6.619   2.356   0.692 -0.3431 -0.3790  0.1544
15374TIP3    H167537   6.639   2.361   0.786 -0.2387 -0.7527  0.1524
15374TIP3    H267538   6.693   2.400   0.650 -1.1528  1.2264  0.3230
15375TIP3   OH267539   3.371   0.837   2.902 -0.0309 -0.0936  0.3626
15375TIP3    H167540   3.418   0.804   2.825 -1.8434  1.1011 -1.3552
15375TIP3    H267541   3.386   0.931   2.900  0.0653 -0.0685  1.6335
15376TIP3   OH267542   0.508   1.146  13.747 -0.4675 -0.3630  0.6185
15376TIP3    H167543   0.415   1.122  13.742 -0.7029  0.7876 -2.9112
15376TIP3    H267544   0.553   1.063  13.766 -2.0364 -1.3647  0.1757
15377TIP3   OH267545   0.010   5.490  11.044  0.5188  0.0172 -0.3211
15377TIP3    H167546   0.029   5.535  11.126 -0.2599 -1.7548  0.8938
15377TIP3    H267547   0.095   5.482  11.001  0.8770  1.3193  0.1149
15378TIP3   OH267548   4.497   1.492  14.491 -0.4858 -0.3465  0.1619
15378TIP3    H167549   4.480   1.421  14.429  1.3530  0.4198 -1.3198
15378TIP3    H267550   4.492   1.572  14.438  0.7184  0.3728  1.0803
15379TIP3   OH267551   4.343   2.563  16.093  0.0724  0.7306  0.0915
15379TIP3    H167552   4.397   2.520  16.026 -0.6984  0.5589 -0.4364
15379TIP3    H267553   4.292   2.627  16.044 -1.9974 -0.7703  0.1633
15380TIP3   OH267554   6.094   0.186   2.240 -0.2624 -0.8967 -0.9781
15380TIP3    H167555   6.147   0.238   2.180  1.6965  0.4148  1.6647
15380TIP3    H267556   6.004   0.213   2.222  0.5100  1.8157 -1.2461
15381TIP3   OH267557   0.192   1.308  16.328 -0.1639  0.3125 -0.3811
15381TIP3    H167558   0.252   1.235  16.314 -1.2642 -0.8213  0.4754
15381TIP3    H267559   0.107   1.275  16.297 -0.4341  1.7578 -1.2997
15382TIP3   OH267560   4.220   1.433  17.178 -0.6138  0.1556 -0.2248
15382TIP3    H167561   4.315   1.435  17.190 -0.9766  0.8445  3.4970
15382TIP3    H267562   4.201   1.344  17.147  1.2532  0.2847 -1.9105
15383TIP3   OH267563   1.884   3.701   3.809 -0.0981 -0.2692 -0.2863
15383TIP3    H167564   1.873   3.778   3.865  1.3912  1.0497 -1.7206
15383TIP3    H267565   1.796   3.680   3.779 -0.3801  2.0367 -1.3093
15384TIP3   OH267566   5.169   5.267  15.694  0.7271  0.3741 -0.4252
15384TIP3    H167567   5.077   5.240  15.704  0.4983  0.7996 -1.2896
15384TIP3    H267568   5.164   5.361  15.676  1.4222  0.6806  0.8524
15385TIP3   OH267569   4.189   3.847   2.265 -0.4705 -0.5551 -0.1202
15385TIP3    H167570   4.231   3.920   2.221 -0.1370  0.4205  1.7078
15385TIP3    H267571   4.231   3.769   2.228  1.4545  0.3099  0.1124
15386TIP3   OH267572   2.500   1.623  16.892 -0.7544 -0.1298  0.7260
15386TIP3    H167573   2.448   1.664  16.961  0.2820  2.4183  0.0955
15386TIP3    H267574   2.447   1.632  16.813 -0.5731 -0.1473  0.6030
15387TIP3   OH267575   0.133   1.625   5.314  0.1202 -0.1361 -0.2817
15387TIP3    H167576   0.167   1.563   5.251 -1.2540  0.7883 -2.0113
15387TIP3    H267577   0.063   1.578   5.359 -1.1468  0.1893 -1.8190
15388TIP3   OH267578   2.513   6.158   1.882  0.3170  0.4644  0.0043
15388TIP3    H167579   2.427   6.199   1.872  0.0659 -0.3204 -1.1865
15388TIP3    H267580   2.569   6.203   1.819  0.3913 -0.0422 -0.2989
15389TIP3   OH267581   3.898   5.442   2.241 -0.2909  0.3990 -0.0208
15389TIP3    H167582   3.825   5.498   2.266 -0.3019 -0.8041  3.0973
15389TIP3    H267583   3.974   5.500   2.239 -1.0871  1.4910 -2.4313
15390TIP3   OH267584   0.639   4.141  16.599  0.6473 -0.5499  0.2322
15390TIP3    H167585   0.556   4.189  16.599  0.8873 -0.0728  1.5939
15390TIP3    H267586   0.704   4.206  16.571  0.6089 -0.8454 -0.5584
15391TIP3   OH267587   3.866   3.310   5.544 -0.0622  0.5660 -0.1460
15391TIP3    H167588   3.923   3.372   5.590  0.6921 -0.0666 -0.1954
15391TIP3    H267589   3.915   3.228   5.545 -2.1489 -0.7914  2.2449
15392TIP3   OH267590   2.556   1.065   1.919  0.1431  0.1829 -0.0583
15392TIP3    H167591   2.497   1.060   1.844 -2.9511 -1.3615  2.3033
15392TIP3    H267592   2.616   0.991   1.907 -0.6265 -0.3470 -0.7610
15393TIP3   OH267593   6.515   4.806  11.726 -0.4695  0.1423  0.5492
15393TIP3    H167594   6.551   4.806  11.637  0.3850 -0.1197  0.8869
15393TIP3    H267595   6.479   4.718  11.738 -0.8036  0.2531  0.3837
15394TIP3   OH267596   6.580   0.642  17.149 -0.2256  0.2848  0.2017
15394TIP3    H167597   6.488   0.621  17.165  0.0992 -0.8623  0.6032
15394TIP3    H267598   6.578   0.698  17.071 -1.0857 -2.0365 -1.5736
15395TIP3   OH267599   1.642   4.445   0.780 -0.4800  0.5661 -0.0574
15395TIP3    H167600   1.631   4.364   0.830 -0.1963 -0.4547 -1.5668
15395TIP3    H267601   1.555   4.486   0.781 -0.6117  0.2765  0.7650
15396TIP3   OH267602   2.632   6.249   3.805 -0.5857  0.3241  0.3610
15396TIP3    H167603   2.685   6.296   3.869 -1.0006  1.4883 -0.1145
15396TIP3    H267604   2.555   6.220   3.853 -0.2774  0.0459  0.6871
15397TIP3   OH267605   4.397   1.924  13.922 -0.5132 -0.4501  0.4886
15397TIP3    H167606   4.408   1.930  14.017  0.6284  1.4443  0.2849
15397TIP3    H267607   4.423   2.010  13.889 -1.5317 -0.8370 -1.5031
15398TIP3   OH267608   1.322   4.057   1.223  0.0844 -0.3768  0.5083
15398TIP3    H167609   1.288   4.005   1.150 -0.7506  2.1929 -1.0524
15398TIP3    H267610   1.417   4.047   1.217 -0.0558 -2.1741  0.6734
15399TIP3   OH267611   5.957   5.263  11.966  0.2247  0.2316  0.4569
15399TIP3    H167612   6.005   5.327  11.913 -1.9199  2.1614  0.6860
15399TIP3    H267613   5.878   5.244  11.915  0.1656 -1.2486  1.0342
15400TIP3   OH267614   5.043   5.118   0.306  0.5113 -0.1517  0.3632
15400TIP3    H167615   5.054   5.192   0.366  1.0580 -0.7367  1.0084
15400TIP3    H267616   5.110   5.055   0.334  0.0088 -0.9169 -0.1342
15401TIP3   OH267617   2.910   2.329  14.287  0.1817 -0.2555  0.5212
15401TIP3    H167618   2.925   2.409  14.337  0.2268 -0.1950  0.4128
15401TIP3    H267619   2.960   2.342  14.206 -1.1971  0.3663 -0.2850
15402TIP3   OH267620   5.430   1.744  13.046  0.1140  0.1143 -0.2790
15402TIP3    H167621   5.491   1.807  13.086 -1.1973 -0.0506  2.2283
15402TIP3    H267622   5.367   1.798  12.999  1.5032  0.3467 -1.9594
15403TIP3   OH267623   3.112   4.754  12.682  0.4435  0.2937  0.0171
15403TIP3    H167624   3.109   4.849  12.691  0.0380  0.2849  0.0061
15403TIP3    H267625   3.036   4.722  12.730 -0.8304  0.1479 -1.9475
15404TIP3   OH267626   0.204   5.016  14.197 -0.7683  0.1958  0.4793
15404TIP3    H167627   0.148   4.939  14.189 -3.0533  1.5170  2.4006
15404TIP3    H267628   0.159   5.083  14.145  1.1087  0.3217 -1.0523
15405TIP3   OH267629   5.377   4.152   1.107 -0.5599 -0.4303  0.0836
15405TIP3    H167630   5.368   4.215   1.036 -1.0317 -0.7864 -0.1839
15405TIP3    H267631   5.348   4.069   1.068  3.0451 -1.5412 -0.5682
15406TIP3   OH267632   0.954   2.963  13.717 -0.1280 -0.4742  0.5814
15406TIP3    H167633   0.867   2.960  13.676  0.1777  0.1997 -0.1477
15406TIP3    H267634   0.939   2.932  13.807 -1.1531 -0.2119  0.5187
15407TIP3   OH267635   1.440   2.774   4.295  0.3957 -0.0265  0.5041
15407TIP3    H167636   1.473   2.697   4.248  0.6175 -1.1155  2.3016
15407TIP3    H267637   1.452   2.847   4.235 -0.6344 -1.5160 -1.6077
15408TIP3   OH267638   1.588   0.173  14.370  0.6088 -0.2088 -0.3693
15408TIP3    H167639   1.583   0.268  14.361  2.7402 -0.1643 -1.7899
15408TIP3    H267640   1.591   0.140  14.280  3.0593 -1.3197  0.0160
15409TIP3   OH267641   1.167   0.901  12.174  0.5337 -0.6240  0.0785
15409TIP3    H167642   1.234   0.865  12.116  1.0310  0.2009  0.1347
15409TIP3    H267643   1.102   0.940  12.115  0.0193 -1.5456  0.0196
15410TIP3   OH267644   5.209   3.368   1.819 -0.3405 -0.3723 -0.2769
15410TIP3    H167645   5.179   3.459   1.812  0.2581 -0.0976  0.5880
15410TIP3    H267646   5.157   3.321   1.753 -0.2073  0.7017 -1.1763
15411TIP3   OH267647   2.014   2.780  14.078  0.6188 -0.4984  0.0356
15411TIP3    H167648   2.094   2.831  14.082  1.0053 -0.8647 -1.9425
15411TIP3    H267649   2.042   2.689  14.091  0.7222 -0.7401 -1.6099
15412TIP3   OH267650   0.608   2.248   4.702  0.1331 -0.4488 -0.0703
15412TIP3    H167651   0.702   2.244   4.691  0.1515  0.2148 -0.1849
15412TIP3    H267652   0.581   2.157   4.715  0.5949 -0.8184 -1.5861
15413TIP3   OH267653   0.801   0.759  11.323  0.5155  0.0587 -0.1897
15413TIP3    H167654   0.750   0.708  11.259 -0.1185  1.2165 -0.6406
15413TIP3    H267655   0.832   0.694  11.386 -3.2696 -0.5864  1.3245
15414TIP3   OH267656   1.858   1.918  17.276  0.2201 -0.0403  0.0615
15414TIP3    H167657   1.785   1.965  17.234 -0.2982  0.6378  1.6264
15414TIP3    H267658   1.935   1.972  17.257 -0.0747  0.4777  0.3100
15415TIP3   OH267659   1.631   4.906   1.852 -0.5615  0.4059  0.3090
15415TIP3    H167660   1.545   4.940   1.826  0.5816  2.3760 -1.1171
15415TIP3    H267661   1.693   4.971   1.821  1.3705  0.0652  3.0585
15416TIP3   OH267662   0.110   6.661  16.862 -0.2143  0.0291  0.2331
15416TIP3    H167663   0.110   6.592  16.796  2.0141  0.3025 -0.1492
15416TIP3    H267664   0.070   6.622  16.939  0.9618 -1.6928  0.0144
15417TIP3   OH267665   0.571   1.751  13.710 -0.0914  0.0039  0.6150
15417TIP3    H167666   0.525   1.792  13.784 -0.9422  1.7373 -0.7995
15417TIP3    H267667   0.656   1.795  13.707 -0.4631  0.6965 -0.0508
15418TIP3   OH267668   5.341   3.919  16.396  0.2728 -0.1458  0.1121
15418TIP3    H167669   5.426   3.879  16.415  0.5121  0.4053  0.2021
15418TIP3    H267670   5.362   4.001  16.351 -0.1642  0.5383  1.1304
15419TIP3   OH267671   5.572   6.566   5.391 -0.6498  0.1732  0.3937
15419TIP3    H167672   5.644   6.583   5.330 -1.5174 -1.7278 -1.2988
15419TIP3    H267673   5.615   6.539   5.472  0.7658 -3.6398 -1.3646
15420TIP3   OH267674   2.893   0.194  17.199 -0.7883 -0.2942  0.0119
15420TIP3    H167675   2.882   0.105  17.233 -1.0203 -0.2216  0.1269
15420TIP3    H267676   2.860   0.190  17.109 -1.5072 -0.1414  0.2654
15421TIP3   OH267677   4.916   6.207   3.852  0.2544  0.7500  0.7240
15421TIP3    H167678   4.885   6.273   3.915 -1.0286  0.7073  0.1809
15421TIP3    H267679   4.892   6.123   3.892  0.0201  0.7000  0.4857
15422TIP3   OH267680   6.041   6.310  12.148  0.2128 -0.0740  0.4472
15422TIP3    H167681   6.039   6.293  12.242  1.4795 -0.4888  0.4209
15422TIP3    H267682   6.110   6.377  12.138 -0.4122  0.4990 -0.1129
15423TIP3   OH267683   6.219   1.230  16.026 -0.4248  0.1272 -0.2972
15423TIP3    H167684   6.162   1.171  16.075 -0.1801  0.7679  0.7864
15423TIP3    H267685   6.182   1.317  16.041 -0.0809  0.3827 -0.8895
15424TIP3   OH267686   2.105   1.590  17.460 -0.1622 -0.1696 -0.0200
15424TIP3    H167687   2.078   1.514  17.511 -2.0581  1.4377  1.5137
15424TIP3    H267688   2.169   1.634  17.516  0.4784 -0.2795 -0.6471
15425TIP3   OH267689   4.440   0.545  11.761 -0.4865 -0.5278 -0.6998
15425TIP3    H167690   4.371   0.490  11.796 -1.5285  1.7215  1.0486
15425TIP3    H267691   4.428   0.542  11.666 -1.4804 -2.0366 -0.5491
15426TIP3   OH267692   3.197   3.429   4.700  0.1739 -0.4868  0.4557
15426TIP3    H167693   3.243   3.464   4.624  0.6520 -0.9463  0.5287
15426TIP3    H267694   3.140   3.360   4.664 -1.1136  0.6383  0.2473
15427TIP3   OH267695   5.844   3.054   2.966 -0.2645  0.3048 -0.4053
15427TIP3    H167696   5.759   3.091   2.944 -0.9498 -0.9710 -0.0358
15427TIP3    H267697   5.842   2.965   2.930 -0.1008 -0.6553  1.7650
15428TIP3   OH267698   1.982   3.519   1.315  1.0110  0.3002 -0.5107
15428TIP3    H167699   1.934   3.588   1.269  1.8365  1.2646  0.0447
15428TIP3    H267700   1.918   3.478   1.373  0.3323  0.0796 -1.3977
15429TIP3   OH267701   2.033   4.131  12.006 -0.3516 -0.5090 -0.0952
15429TIP3    H167702   1.946   4.091  12.001 -0.4410 -0.3165 -0.0633
15429TIP3    H267703   2.073   4.092  12.083 -0.3050 -0.8069 -0.2663
15430TIP3   OH267704   0.638   6.086  11.596 -0.2203 -0.1628 -0.1507
15430TIP3    H167705   0.614   6.020  11.661 -1.6440 -0.3359 -0.7955
15430TIP3    H267706   0.733   6.093  11.602 -0.2655 -0.5990  1.5219
15431TIP3   OH267707   3.505   1.980   0.774  0.9203  0.2941 -0.0381
15431TIP3    H167708   3.574   2.046   0.764 -0.7806  1.9921 -1.2068
15431TIP3    H267709   3.446   2.016   0.840  0.9798 -1.0285  0.7738
15432TIP3   OH267710   4.941   3.595  16.285 -0.2800 -1.0048  0.1108
15432TIP3    H167711   4.915   3.682  16.256  2.3427 -0.4841 -0.9897
15432TIP3    H267712   5.025   3.609  16.329 -0.5141 -2.8245  1.2436
15433TIP3   OH267713   1.594   3.986   1.217  0.1275  0.3157  0.0942
15433TIP3    H167714   1.639   3.945   1.291 -0.6177  0.6601  0.7641
15433TIP3    H267715   1.630   3.943   1.140 -0.2228 -1.2236  0.7347
15434TIP3   OH267716   6.118   4.282   3.257 -0.3602 -0.3285 -0.0389
15434TIP3    H167717   6.025   4.259   3.258 -0.3162 -0.5239 -0.4606
15434TIP3    H267718   6.160   4.215   3.310 -0.1159 -1.7481 -1.9353
15435TIP3   OH267719   2.130   3.463   1.617  0.4319 -0.1177  0.2840
15435TIP3    H167720   2.058   3.407   1.645  0.0637  0.5715  0.7601
15435TIP3    H267721   2.162   3.423   1.536  0.5593 -1.3311  0.9108
15436TIP3   OH267722   2.187   3.001  15.850 -0.3725  0.1694 -0.3399
15436TIP3    H167723   2.126   2.928  15.834  0.1910 -0.6603  1.0739
15436TIP3    H267724   2.169   3.026  15.940  0.8003  0.4782 -0.1907
15437TIP3   OH267725   1.004   2.971   3.820  0.2039  0.0614  0.0320
15437TIP3    H167726   0.911   2.993   3.818  0.1149 -0.3433 -0.7394
15437TIP3    H267727   1.022   2.937   3.732  0.6717 -1.4592  0.6706
15438TIP3   OH267728   5.233   1.148   3.641  0.2974  0.2977 -0.3667
15438TIP3    H167729   5.224   1.232   3.686 -2.3410  0.1246 -0.4229
15438TIP3    H267730   5.302   1.103   3.689 -1.2602  0.7750  2.5509
15439TIP3   OH267731   1.073   0.643   3.194 -0.0353  0.5568  0.7312
15439TIP3    H167732   1.093   0.550   3.181  2.7581  1.3277 -1.3962
15439TIP3    H267733   1.075   0.654   3.289 -0.3197 -1.4971  1.0300
15440TIP3   OH267734   4.061   0.080   1.829 -0.3283 -0.8030  0.1911
15440TIP3    H167735   4.056   0.020   1.755  0.7059  0.2543 -0.7720
15440TIP3    H267736   4.150   0.071   1.861  0.0474  0.6258 -0.3567
15441TIP3   OH267737   3.495   1.745  13.310  0.1188 -0.0882 -0.2139
15441TIP3    H167738   3.411   1.786  13.332  1.2729  1.3630  1.8080
15441TIP3    H267739   3.489   1.656  13.344 -1.1005 -0.5056 -1.4298
15442TIP3   OH267740   6.160   0.390  16.591 -0.7772 -0.2820 -0.2806
15442TIP3    H167741   6.135   0.411  16.681  0.6630  0.9783 -0.1215
15442TIP3    H267742   6.187   0.298  16.594  1.9054  0.4634  1.2690
15443TIP3   OH267743   0.457   5.494  11.020 -0.0463  0.1643  0.2810
15443TIP3    H167744   0.545   5.526  11.040  0.0515  0.7289 -0.9158
15443TIP3    H267745   0.470   5.401  11.000  0.0422 -0.0955  1.4983
15444TIP3   OH267746   5.705   3.622   5.397 -0.3710  0.1934  0.2447
15444TIP3    H167747   5.792   3.616   5.356 -1.0080 -0.2617 -1.0672
15444TIP3    H267748   5.710   3.701   5.451  0.7433  0.3664 -0.0821
15445TIP3   OH267749   1.067   2.399   3.339 -0.6392 -0.0211  0.0312
15445TIP3    H167750   1.033   2.409   3.251 -1.9782  0.9532  0.6244
15445TIP3    H267751   0.997   2.356   3.388  0.7496 -2.2160  0.2559
15446TIP3   OH267752   4.911   1.070  14.612 -0.3586 -0.7965 -0.0431
15446TIP3    H167753   4.847   1.131  14.578 -0.2613 -1.5613 -1.6721
15446TIP3    H267754   4.868   1.030  14.688  1.1455  4.3560  4.0848
15447TIP3   OH267755   1.073   3.185  13.943 -0.6121  0.0368  0.2130
15447TIP3    H167756   1.156   3.146  13.973 -0.5249  1.5443  2.0909
15447TIP3    H267757   1.005   3.134  13.989 -0.6155  0.2837  0.4848
15448TIP3   OH267758   1.750   0.443  12.577  0.2427 -0.4247 -0.9243
15448TIP3    H167759   1.797   0.526  12.574 -2.6191  1.3652 -0.2369
15448TIP3    H267760   1.739   0.419  12.485  2.1034 -0.7549 -1.1104
15449TIP3   OH267761   5.890   0.396  16.465  0.4306  0.1207  0.5788
15449TIP3    H167762   5.985   0.402  16.477  0.4419 -0.1670  0.6358
15449TIP3    H267763   5.859   0.346  16.540 -0.0099  1.8417  1.5809
15450TIP3   OH267764   0.357   0.971  17.453  0.2440  0.0099 -0.5953
15450TIP3    H167765   0.436   0.989  17.403  0.4833  0.8724  0.0684
15450TIP3    H267766   0.314   1.056  17.462  0.2882 -0.0971  0.7904
15451TIP3   OH267767   5.304   0.401  16.977 -0.1625 -0.5678 -0.2086
15451TIP3    H167768   5.364   0.411  17.051  0.8306 -0.3926 -1.0147
15451TIP3    H267769   5.361   0.396  16.901 -1.1882  3.8138 -1.5438
15452TIP3   OH267770   6.667   5.351   3.021  0.2877  0.2239  0.4310
15452TIP3    H167771   6.712   5.302   3.089  1.5321  0.5750 -0.1195
15452TIP3    H267772   6.736   5.379   2.961 -0.8292 -0.6809 -1.3826
15453TIP3   OH267773   5.738   2.320   6.421 -0.1571 -0.2389  0.2889
15453TIP3    H167774   5.741   2.414   6.400 -1.0304 -0.0146  1.0948
15453TIP3    H267775   5.644   2.301   6.430 -0.1551 -1.6816 -1.9575
15454TIP3   OH267776   0.075   6.283   3.315  0.1654  0.3958 -0.3517
15454TIP3    H167777   0.006   6.339   3.351  0.0133  1.2921 -1.9312
15454TIP3    H267778   0.095   6.322   3.230  0.3901 -1.6763 -1.3110
15455TIP3   OH267779   0.639   1.660  16.507  0.4943 -0.0073 -0.5213
15455TIP3    H167780   0.629   1.565  16.517  0.6219 -0.0164 -0.4780
15455TIP3    H267781   0.571   1.697  16.565 -0.0808 -0.0745 -1.1437
15456TIP3   OH267782   5.471   2.172   6.068  0.4883 -0.4035 -0.4435
15456TIP3    H167783   5.484   2.255   6.115 -0.2704  0.3332 -1.5079
15456TIP3    H267784   5.559   2.135   6.063  0.8986  0.5020 -0.2517
15457TIP3   OH267785   4.803   5.279   6.097  0.0586 -0.1624 -0.0663
15457TIP3    H167786   4.785   5.254   6.007  1.7046 -1.6112 -0.0413
15457TIP3    H267787   4.813   5.196   6.144  1.2114  0.5374  1.0014
15458TIP3   OH267788   3.756   1.319   5.496  0.3327  0.6622 -0.6445
15458TIP3    H167789   3.792   1.403   5.469  1.7693  0.8713  1.7037
15458TIP3    H267790   3.831   1.266   5.522 -0.6781 -0.7199 -0.3578
15459TIP3   OH267791   2.899   0.149   6.179 -0.0986  0.1601 -0.4218
15459TIP3    H167792   2.916   0.234   6.138 -1.3954  0.5257 -0.2402
15459TIP3    H267793   2.973   0.135   6.238  1.2328  0.1513 -2.0111
15460TIP3   OH267794   6.149   0.339  15.546 -0.0641 -0.4102  0.1432
15460TIP3    H167795   6.159   0.284  15.623  0.0890  0.1909  0.5592
15460TIP3    H267796   6.140   0.428  15.580  2.8387  0.2745 -0.5485
15461TIP3   OH267797   6.021   0.362  12.240 -0.6113 -0.4675 -0.5264
15461TIP3    H167798   6.111   0.360  12.208  0.2187 -1.6107  1.6174
15461TIP3    H267799   6.024   0.425  12.312 -1.9989  0.8343 -1.5658
15462TIP3   OH267800   6.704   6.250   4.234 -0.2168 -0.0310  0.2353
15462TIP3    H167801   6.696   6.158   4.208 -1.9329 -0.1587  1.0908
15462TIP3    H267802   6.797   6.270   4.221  0.0247 -1.6106 -0.8166
15463TIP3   OH267803   5.813   3.303   3.664 -0.1157 -0.1949 -0.7575
15463TIP3    H167804   5.763   3.269   3.738  1.2749 -1.8792 -0.5233
15463TIP3    H267805   5.898   3.327   3.702  0.5699 -0.9696 -1.7645
15464TIP3   OH267806   4.703   2.565  12.727 -0.5419 -0.1515 -0.6421
15464TIP3    H167807   4.674   2.488  12.678  2.1278 -1.2106 -0.7165
15464TIP3    H267808   4.673   2.549  12.817 -0.8672 -0.7817 -0.8584
15465TIP3   OH267809   1.929   5.048   0.987 -0.2097 -0.1002  0.3187
15465TIP3    H167810   1.889   5.114   0.931 -1.4589  0.7478  2.0946
15465TIP3    H267811   1.975   5.098   1.055 -2.2386 -0.9431  2.4452
15466TIP3   OH267812   2.811   4.016  12.807 -0.7968  0.5886 -1.0604
15466TIP3    H167813   2.889   4.038  12.756 -0.1876  0.7550 -0.0989
15466TIP3    H267814   2.766   4.099  12.821 -0.4989  0.6817 -0.6117
15467TIP3   OH267815   5.057   3.698   4.643 -0.4151  0.3152  0.4751
15467TIP3    H167816   5.015   3.756   4.580  0.3604 -0.0349 -0.4015
15467TIP3    H267817   5.077   3.754   4.718 -0.4831  0.9783  0.0088
15468TIP3   OH267818   0.430   0.212   4.276  0.6170  0.1003  0.6912
15468TIP3    H167819   0.492   0.143   4.300 -0.5234 -1.2683 -0.2019
15468TIP3    H267820   0.344   0.177   4.299  0.0226  1.3183  0.4091
15469TIP3   OH267821   0.751   4.132  14.071  0.1886  0.4369  0.0666
15469TIP3    H167822   0.833   4.107  14.112  0.1689  0.9321  0.4180
15469TIP3    H267823   0.774   4.208  14.016 -0.4022  1.9060  1.7715
15470TIP3   OH267824   5.234   1.075  14.408 -0.3111  0.0062 -0.0747
15470TIP3    H167825   5.249   1.157  14.456  0.1406  0.1312 -0.4146
15470TIP3    H267826   5.141   1.057  14.419 -0.1041 -0.3074  1.3702
15471TIP3   OH267827   6.588   0.457   1.547  0.4762 -0.6537  0.3646
15471TIP3    H167828   6.554   0.547   1.549 -0.4360 -0.8587  4.6194
15471TIP3    H267829   6.510   0.403   1.534  0.6922 -0.8688 -0.0180
15472TIP3   OH267830   4.212   0.520  16.247 -0.2021 -0.4708 -0.2277
15472TIP3    H167831   4.189   0.458  16.178  2.0346 -2.4753  0.6760
15472TIP3    H267832   4.180   0.480  16.328  0.3438  0.0818  0.2733
15473TIP3   OH267833   5.174   0.093   3.445  0.2383  0.3950 -0.7063
15473TIP3    H167834   5.159   0.178   3.403  1.5313 -0.4637 -3.1686
15473TIP3    H267835   5.128   0.030   3.389  0.4123 -0.6676  0.3007
15474TIP3   OH267836   0.486   5.322  16.890 -0.3306 -0.0311  0.1212
15474TIP3    H167837   0.445   5.396  16.844  0.8244  1.9125  2.0128
15474TIP3    H267838   0.438   5.316  16.972  1.6110  0.7701  1.3675
15475TIP3   OH267839   4.675   0.719  13.697  0.5444  0.2179 -0.0924
15475TIP3    H167840   4.699   0.766  13.776  0.1569  0.9023 -0.3682
15475TIP3    H267841   4.630   0.785  13.643  0.6762 -0.2719 -0.8143
15476TIP3   OH267842   0.164   3.039  14.911  0.2422 -0.0058 -0.5259
15476TIP3    H167843   0.071   3.064  14.907 -0.1987 -1.3332  0.5705
15476TIP3    H267844   0.163   2.950  14.947  2.0911  1.0569  2.4808
15477TIP3   OH267845   4.330   1.011  11.189  0.7088  0.2794  0.1549
15477TIP3    H167846   4.365   1.072  11.124 -0.3987 -0.4183 -1.1432
15477TIP3    H267847   4.304   1.066  11.263 -0.2380  1.3837 -0.9642
15478TIP3   OH267848   4.185   1.783   3.371  0.1912 -0.1074 -0.0889
15478TIP3    H167849   4.185   1.693   3.405  1.6068 -0.0136  0.2174
15478TIP3    H267850   4.157   1.774   3.280 -0.6030 -0.7349  0.2027
15479TIP3   OH267851   3.078   5.210   0.586  0.3835  0.1623  0.0907
15479TIP3    H167852   3.140   5.167   0.527 -0.9419 -0.7649 -0.6711
15479TIP3    H267853   3.034   5.275   0.532  0.6774  0.8344  0.6361
15480TIP3   OH267854   5.860   0.760   5.995  0.1212 -0.1895 -0.7041
15480TIP3    H167855   5.765   0.762   6.013  0.0407 -1.7074 -0.9013
15480TIP3    H267856   5.898   0.806   6.070 -0.7108 -0.4104 -0.1214
15481TIP3   OH267857   4.413   2.057   3.712 -0.6647 -0.1288 -0.1639
15481TIP3    H167858   4.342   1.992   3.701 -0.7044  0.0930 -1.3704
15481TIP3    H267859   4.493   2.005   3.711 -0.7437 -0.2520 -0.1406
15482TIP3   OH267860   5.951   3.377  17.098  0.0220 -0.0596  0.3418
15482TIP3    H167861   5.934   3.412  17.011  2.1097 -0.6190 -0.3378
15482TIP3    H267862   5.949   3.454  17.155  1.3485  0.7377 -0.6286
15483TIP3   OH267863   2.254   1.372   3.464 -0.1204 -0.3644  0.1295
15483TIP3    H167864   2.226   1.295   3.513  0.0756  0.5321  1.7322
15483TIP3    H267865   2.212   1.445   3.508  0.3026  0.5249 -0.8838
15484TIP3   OH267866   2.143   2.357   4.548 -0.6455  0.1508 -0.0040
15484TIP3    H167867   2.079   2.422   4.577 -1.4786  0.2182 -1.8736
15484TIP3    H267868   2.090   2.288   4.507  0.4155 -0.3634 -0.5327
15485TIP3   OH267869   3.723   6.268  16.041 -0.1177  0.0467 -0.6824
15485TIP3    H167870   3.781   6.240  15.970 -1.3157 -2.6090 -0.7275
15485TIP3    H267871   3.716   6.363  16.030  2.0042  0.0897 -2.3294
15486TIP3   OH267872   4.502   0.095  16.742 -0.6949 -0.0064 -0.3360
15486TIP3    H167873   4.529   0.173  16.692 -1.1046 -0.1865 -0.8465
15486TIP3    H267874   4.496   0.126  16.833 -1.0186  0.6034 -0.5592
15487TIP3   OH267875   5.815   2.674  12.106 -0.3011 -0.3062 -0.0475
15487TIP3    H167876   5.900   2.707  12.077  0.5516 -1.0813  1.4502
15487TIP3    H267877   5.751   2.736  12.070  0.7246 -0.5891 -2.5665
15488TIP3   OH267878   1.602   1.102  17.346  0.7633  0.4859  0.2566
15488TIP3    H167879   1.610   1.073  17.437  0.1093  0.1880  0.2205
15488TIP3    H267880   1.604   1.198  17.351 -0.2484  0.4880  0.6766
15489TIP3   OH267881   1.789   5.487  15.970 -0.4886 -0.2518 -0.4459
15489TIP3    H167882   1.847   5.513  15.898  1.9906 -0.2568  1.3982
15489TIP3    H267883   1.747   5.568  15.998 -0.4112 -0.0136 -0.9991
15490TIP3   OH267884   3.937   0.489   0.882 -0.3405 -0.5187 -0.7523
15490TIP3    H167885   3.862   0.545   0.904  0.4602 -0.1942  1.4383
15490TIP3    H267886   3.989   0.542   0.821 -0.8282  0.1210 -0.6276
15491TIP3   OH267887   3.639   0.536  11.159 -0.2796 -0.0678 -0.6199
15491TIP3    H167888   3.555   0.577  11.182 -0.0475  0.7513 -1.1893
15491TIP3    H267889   3.624   0.442  11.171 -0.6814  0.1881  1.2161
15492TIP3   OH267890   1.229   2.051  11.294  0.1479 -0.1202 -0.0766
15492TIP3    H167891   1.159   2.084  11.238 -1.0334 -0.0895  1.3623
15492TIP3    H267892   1.307   2.052  11.238 -1.1497 -0.9908 -2.0005
15493TIP3   OH267893   5.399   3.881  14.613 -0.5134  0.3239 -0.6662
15493TIP3    H167894   5.416   3.966  14.573  0.5960 -0.7375 -2.6414
15493TIP3    H267895   5.329   3.843  14.559 -1.1626  0.0489  0.3395
15494TIP3   OH267896   2.198   0.504   4.479 -0.3139  0.0402  0.3512
15494TIP3    H167897   2.176   0.415   4.452 -0.0654  0.2001 -0.4095
15494TIP3    H267898   2.135   0.559   4.432 -0.1062  0.3002  0.3736
15495TIP3   OH267899   6.555   6.446  11.406  0.0143  0.0215 -0.4930
15495TIP3    H167900   6.610   6.457  11.484 -1.2052  0.1527  0.3719
15495TIP3    H267901   6.610   6.396  11.345  0.7233 -0.7367  0.7292
15496TIP3   OH267902   5.937   1.350  14.826  0.1587 -0.0082 -0.1163
15496TIP3    H167903   5.887   1.322  14.902  0.9495  2.5386  1.4837
15496TIP3    H267904   5.873   1.395  14.770 -0.6302 -2.7288 -1.5679
15497TIP3   OH267905   1.381   6.221   1.272  0.0548  0.0417  0.3993
15497TIP3    H167906   1.375   6.143   1.217  0.1429  0.9435 -0.9630
15497TIP3    H267907   1.465   6.261   1.249  0.2708  0.2503  1.4928
15498TIP3   OH267908   5.487   4.493   2.685 -0.0488  0.5682  0.0155
15498TIP3    H167909   5.424   4.552   2.645  0.9206  3.0430  1.9046
15498TIP3    H267910   5.442   4.408   2.688 -2.3029  1.6560 -0.9357
15499TIP3   OH267911   2.222   4.634   2.486  0.0104  1.1484  0.0794
15499TIP3    H167912   2.186   4.722   2.487 -0.9028  0.7807  0.3763
15499TIP3    H267913   2.286   4.634   2.557  1.6105  2.1868 -1.2781
15500TIP3   OH267914   5.845   0.287  17.400  0.2237 -0.1125  0.0640
15500TIP3    H167915   5.755   0.275  17.431 -0.2459  0.1097 -1.1476
15500TIP3    H267916   5.899   0.281  17.479 -1.0500  2.3920  1.2607
15501TIP3   OH267917   5.885   5.342  14.739 -0.4577 -0.6293 -0.0544
15501TIP3    H167918   5.838   5.343  14.822  0.4736  0.4315  0.4799
15501TIP3    H267919   5.965   5.392  14.755 -1.1477  1.3404 -2.0871
15502TIP3   OH267920   2.997   3.193   4.662  0.6196 -0.1830 -0.6794
15502TIP3    H167921   2.998   3.182   4.757 -0.1724  0.2709 -0.6122
15502TIP3    H267922   3.015   3.105   4.628  2.4714 -0.0598 -0.1229
15503TIP3   OH267923   4.598   1.434   0.707 -0.5172  0.1849  0.1184
15503TIP3    H167924   4.559   1.371   0.767 -0.2487  0.7231  0.8641
15503TIP3    H267925   4.625   1.507   0.762 -1.9774  1.5472 -0.8767
15504TIP3   OH267926   5.946   2.674   0.745  0.4216 -0.7361  0.0466
15504TIP3    H167927   6.039   2.670   0.721  0.1756 -0.3695 -1.0618
15504TIP3    H267928   5.922   2.583   0.761  0.6963 -0.9855 -0.8613
15505TIP3   OH267929   1.306   4.047  14.288  0.0916  0.1010 -0.6110
15505TIP3    H167930   1.305   4.133  14.330  0.1423  0.0329 -0.4703
15505TIP3    H267931   1.214   4.029  14.269 -0.0722 -0.3850  0.5369
15506TIP3   OH267932   0.045   6.087  16.115 -1.0228  0.4506 -0.1712
15506TIP3    H167933   0.123   6.113  16.164 -1.1934  1.6635 -0.5002
15506TIP3    H267934   0.000   6.170  16.096 -0.8592  0.0657 -2.5244
15507TIP3   OH267935   6.607   2.744   5.369 -0.3612 -0.7446  0.2841
15507TIP3    H167936   6.533   2.742   5.307  0.1890 -0.5143 -0.3910
15507TIP3    H267937   6.573   2.700   5.447 -0.9724 -1.3183 -0.2867
15508TIP3   OH267938   1.180   4.108  11.334 -0.2377 -0.5823 -0.2276
15508TIP3    H167939   1.120   4.095  11.260  1.5499  0.3515 -1.9352
15508TIP3    H267940   1.266   4.119  11.294  1.1436 -1.9101  2.1318
15509TIP3   OH267941   0.839   0.911  15.394 -0.3840 -0.3201 -0.3540
15509TIP3    H167942   0.810   0.830  15.437  0.2476 -0.2697  0.1812
15509TIP3    H267943   0.850   0.886  15.303 -1.8380 -0.4064 -0.5251
15510TIP3   OH267944   2.315   0.350   2.111  0.4511  0.0713 -0.5751
15510TIP3    H167945   2.338   0.443   2.106  0.3209  0.1939  0.7643
15510TIP3    H267946   2.399   0.305   2.109  0.9380  0.4772  3.3867
15511TIP3   OH267947   2.005   3.625  17.261  0.4799 -0.1700  0.0403
15511TIP3    H167948   1.966   3.677  17.191  1.0614  0.2188  0.0037
15511TIP3    H267949   2.099   3.644  17.256  0.8458 -1.8766 -0.5384
15512TIP3   OH267950   6.518   3.229  17.211 -0.0392  0.1347  0.4143
15512TIP3    H167951   6.580   3.273  17.155  0.6204 -2.1956 -0.8237
15512TIP3    H267952   6.492   3.295  17.276  2.0997  1.7662 -0.2949
15513TIP3   OH267953   0.230   3.157  13.194  0.4090 -0.1088 -0.2684
15513TIP3    H167954   0.147   3.172  13.149  0.3498 -1.1142 -0.5023
15513TIP3    H267955   0.217   3.076  13.243  1.8187 -1.2995 -1.7484
15514TIP3   OH267956   4.506   1.835   5.305 -0.0025 -0.1019  0.2089
15514TIP3    H167957   4.555   1.884   5.371  1.2970 -0.8567 -0.1543
15514TIP3    H267958   4.503   1.746   5.340 -1.6388  0.0381  0.4865
15515TIP3   OH267959   5.240   5.153  16.359 -0.4741  0.7674  0.2651
15515TIP3    H167960   5.189   5.131  16.281 -1.9485  1.6425  0.9571
15515TIP3    H267961   5.306   5.215  16.328 -2.3900  2.8131  0.0211
15516TIP3   OH267962   6.123   2.533   3.276  0.0531  0.2053 -0.6409
15516TIP3    H167963   6.105   2.616   3.233  1.0165 -0.0924 -1.6711
15516TIP3    H267964   6.207   2.505   3.240  0.3765 -0.5913  0.6489
15517TIP3   OH267965   2.667   2.681   4.447  0.0763 -0.2887  0.2343
15517TIP3    H167966   2.665   2.764   4.494 -1.6106 -0.0206 -0.2392
15517TIP3    H267967   2.656   2.614   4.515  1.3280 -0.1385  0.6027
15518TIP3   OH267968   1.305   5.624  16.241  0.0861 -0.6850  0.0045
15518TIP3    H167969   1.384   5.622  16.294  0.4680 -0.7959 -0.5610
15518TIP3    H267970   1.336   5.642  16.152 -0.6488  0.7055  0.0061
15519TIP3   OH267971   1.863   5.668   3.613 -0.6617  0.1268 -0.1209
15519TIP3    H167972   1.955   5.648   3.594 -0.7509  0.3484 -0.8186
15519TIP3    H267973   1.831   5.592   3.660  0.5614  1.0775  2.4505
15520TIP3   OH267974   1.763   4.742  13.723  0.3403  0.3879  0.3762
15520TIP3    H167975   1.767   4.813  13.659 -1.9336 -0.0363 -0.3385
15520TIP3    H267976   1.799   4.666  13.677 -2.5985 -0.2728 -1.0514
15521TIP3   OH267977   2.193   0.295  11.893 -0.2454  0.1660 -0.0314
15521TIP3    H167978   2.138   0.250  11.830 -0.1694 -0.0392  0.0491
15521TIP3    H267979   2.266   0.331  11.841 -0.9705  1.3038 -0.3015
15522TIP3   OH267980   1.817   0.137   0.975 -0.4149  0.8382 -0.0100
15522TIP3    H167981   1.870   0.217   0.975  0.5733  0.1961  0.4533
15522TIP3    H267982   1.875   0.069   0.940 -0.9023  0.0982  0.5972
15523TIP3   OH267983   6.201   0.070  16.161 -0.4627  0.2960  0.0524
15523TIP3    H167984   6.170   0.114  16.081 -3.2697 -1.5930 -0.0198
15523TIP3    H267985   6.149  -0.009  16.167  1.6260 -1.0528  2.3350
15524TIP3   OH267986   6.333   6.087  12.294 -0.4210  0.2093  0.0580
15524TIP3    H167987   6.353   6.042  12.376 -0.0405  1.4493  0.6628
15524TIP3    H267988   6.300   6.173  12.321 -0.9465  0.3830 -1.0785
15525TIP3   OH267989   1.627   1.464   3.668 -0.0308 -0.0800  0.4032
15525TIP3    H167990   1.657   1.378   3.640 -0.0308  0.1559 -0.3268
15525TIP3    H267991   1.628   1.459   3.764 -0.6684 -1.1096  0.3693
15526TIP3   OH267992   6.224   1.840  12.080 -0.7781 -0.2513  0.1466
15526TIP3    H167993   6.276   1.779  12.027 -0.8529  1.5379 -2.1483
15526TIP3    H267994   6.264   1.926  12.064 -1.3238  0.4855  2.4309
15527TIP3   OH267995   0.329   0.022   0.932 -0.0098  0.0828  0.0729
15527TIP3    H167996   0.245  -0.025   0.926  0.5386 -0.7263 -2.5900
15527TIP3    H267997   0.329   0.059   1.020 -2.4050 -1.3170  0.7655
15528TIP3   OH267998   0.730   0.951  12.500 -0.4859 -0.0619 -0.4837
15528TIP3    H167999   0.806   0.896  12.478 -0.2688 -1.2125  2.6682
15528TIP3    H268000   0.708   0.927  12.590 -1.6499  3.6124  0.4003
15529TIP3   OH268001   5.499   6.646   1.335 -0.5892  0.6272  0.6209
15529TIP3    H168002   5.497   6.657   1.240 -0.1134 -0.0388  0.5297
15529TIP3    H268003   5.467   6.730   1.369  1.0394  1.5847 -0.0806
15530TIP3   OH268004   2.556   6.482  16.072 -0.0200 -0.0423 -0.2075
15530TIP3    H168005   2.596   6.468  15.987 -1.9714  0.3800 -1.2580
15530TIP3    H268006   2.531   6.575  16.072  0.8471  0.2308  1.2600
15531TIP3   OH268007   5.762   6.593   5.618  0.5934  0.0516  0.8573
15531TIP3    H168008   5.809   6.675   5.600  1.4717 -0.4570  0.7603
15531TIP3    H268009   5.704   6.614   5.691 -1.0820  1.4447 -0.7973
15532TIP3   OH268010   2.115   6.461  14.425 -0.2215  0.2953  0.4701
15532TIP3    H168011   2.084   6.533  14.479 -0.1900 -0.0427  0.9391
15532TIP3    H268012   2.069   6.472  14.341 -0.4057  0.7092  0.6269
15533TIP3   OH268013   2.307   3.406   3.274  0.2025 -0.2248  1.0319
15533TIP3    H168014   2.314   3.311   3.269  0.0038 -0.2741  1.6278
15533TIP3    H268015   2.292   3.424   3.367  2.3848  0.5225  1.2883
15534TIP3   OH268016   4.050   5.806   5.584  0.3952 -0.3175 -0.5941
15534TIP3    H168017   3.991   5.813   5.659  0.2179 -1.4150 -0.6057
15534TIP3    H268018   4.014   5.866   5.519  0.1669  0.1478 -0.0428
15535TIP3   OH268019   6.570   2.441  17.082 -0.0705  0.0028 -0.4748
15535TIP3    H168020   6.663   2.424  17.095  0.0596 -0.4464 -1.8312
15535TIP3    H268021   6.553   2.523  17.128  0.8693 -0.1904  0.2334
15536TIP3   OH268022   6.171   2.827   0.496  0.4906  0.1578  0.0327
15536TIP3    H168023   6.190   2.783   0.579  0.3320 -3.0617 -1.4719
15536TIP3    H268024   6.075   2.824   0.489  0.5721 -1.8305 -1.2327
15537TIP3   OH268025   5.453   3.698  12.772 -0.3972  0.2582 -0.0818
15537TIP3    H168026   5.448   3.780  12.822  2.6502  0.8140 -0.4847
15537TIP3    H268027   5.507   3.720  12.696 -1.1013 -1.7001 -1.2173
15538TIP3   OH268028   3.332   4.277   2.247  0.1506 -0.1643  0.7663
15538TIP3    H168029   3.350   4.349   2.308  1.1662 -2.3043  3.1412
15538TIP3    H268030   3.419   4.250   2.216 -0.1394 -0.9546  0.6193
15539TIP3   OH268031   2.236   1.856  15.834  0.6246 -0.4222  0.2897
15539TIP3    H168032   2.193   1.799  15.897 -0.3255 -0.7394 -0.6191
15539TIP3    H268033   2.325   1.822  15.828 -0.3347 -2.9516 -1.4598
15540TIP3   OH268034   0.172   2.660   0.493 -0.4422 -0.0640  0.3548
15540TIP3    H168035   0.179   2.658   0.398 -0.4774 -0.2828  0.3556
15540TIP3    H268036   0.231   2.730   0.520 -0.0613 -0.3176  0.1991
15541TIP3   OH268037   3.038   0.078  16.959 -0.3202 -0.2283 -0.1298
15541TIP3    H168038   3.069   0.106  16.873 -0.2812  0.4500  0.1006
15541TIP3    H268039   2.985   0.000  16.941 -0.9772  0.3729 -0.8542
15542TIP3   OH268040   5.808   6.208  13.272  0.0481  0.0006  0.2205
15542TIP3    H168041   5.845   6.209  13.183  0.7144  0.8239  0.4973
15542TIP3    H268042   5.821   6.117  13.301  2.5782  0.4012  0.5763
15543TIP3   OH268043   4.215   2.504   4.926 -0.5872 -0.3863  0.0977
15543TIP3    H168044   4.198   2.532   4.836  2.6504 -0.5696 -0.6933
15543TIP3    H268045   4.291   2.447   4.920  0.3410  0.3437  3.0634
15544TIP3   OH268046   5.065   5.614   1.257 -0.2627 -0.1057 -0.3596
15544TIP3    H168047   5.092   5.550   1.190 -2.0010  0.1893 -1.4035
15544TIP3    H268048   4.979   5.643   1.228 -0.7800  0.5327  1.7000
15545TIP3   OH268049   5.566   4.473   5.514  0.2990  0.1434 -0.0268
15545TIP3    H168050   5.538   4.500   5.601 -0.0831 -1.4300  0.3773
15545TIP3    H268051   5.649   4.428   5.528 -0.1774 -0.8637 -0.3411
15546TIP3   OH268052   0.764   1.568   3.614  0.4356 -0.0837 -0.4408
15546TIP3    H168053   0.727   1.555   3.701  4.2575 -0.2648  1.3688
15546TIP3    H268054   0.736   1.656   3.589 -3.0079 -1.0129 -0.4543
15547TIP3   OH268055   0.862   4.921   6.458  0.1074 -0.4538  0.7726
15547TIP3    H168056   0.948   4.930   6.499 -0.4761 -0.8126  2.1494
15547TIP3    H268057   0.801   4.915   6.532 -0.9852 -1.3689 -0.1651
15548TIP3   OH268058   3.150   2.738   0.750 -0.3778 -0.2028  0.3247
15548TIP3    H168059   3.096   2.673   0.796 -0.6856 -0.1722  0.0159
15548TIP3    H268060   3.240   2.710   0.766 -0.5015 -0.5642  0.4056
15549TIP3   OH268061   5.775   5.109   5.059  0.4505  0.5135  0.0217
15549TIP3    H168062   5.847   5.079   5.113 -0.4942 -3.4413 -0.5789
15549TIP3    H268063   5.698   5.106   5.116  0.0055 -0.3212 -0.5855
15550TIP3   OH268064   1.784   5.918   4.311  0.4631 -0.0905  0.7026
15550TIP3    H168065   1.800   5.943   4.402 -0.4396 -0.6073  1.0145
15550TIP3    H268066   1.840   5.842   4.296 -1.6225 -1.9453  1.8131
15551TIP3   OH268067   1.316   0.150  17.445 -0.1774  0.5063 -0.0128
15551TIP3    H168068   1.366   0.208  17.504  1.3975  1.1106 -1.8343
15551TIP3    H268069   1.258   0.208  17.397  2.6302  1.0531 -3.1060
15552TIP3   OH268070   0.405   5.953  14.991  0.3600  0.2566  0.7066
15552TIP3    H168071   0.328   5.904  15.021 -0.1039  1.4579  1.5453
15552TIP3    H268072   0.450   5.979  15.071  1.2334  0.2261  0.2412
15553TIP3   OH268073   5.099   2.010  14.622  0.0507  0.3089 -0.6465
15553TIP3    H168074   5.165   2.078  14.635  1.1103 -0.8758  0.4390
15553TIP3    H268075   5.016   2.052  14.646  0.4940  1.5869 -1.2764
15554TIP3   OH268076   4.764   5.317   4.360  0.2395  0.2728  0.2515
15554TIP3    H168077   4.790   5.395   4.311 -2.5785  0.6542 -0.8617
15554TIP3    H268078   4.724   5.260   4.294 -0.3810 -0.8205  1.5212
15555TIP3   OH268079   6.540   3.422   1.787  0.3934 -0.0420  0.0239
15555TIP3    H168080   6.554   3.408   1.880 -3.1630 -3.3515  0.2641
15555TIP3    H268081   6.461   3.476   1.782  0.2446 -0.3375 -1.1115
15556TIP3   OH268082   2.094   0.593  11.695 -0.5388  0.3315 -0.3536
15556TIP3    H168083   2.153   0.583  11.770 -1.1421 -3.1594 -0.1647
15556TIP3    H268084   2.152   0.591  11.619 -0.2174 -1.9723 -0.1233
15557TIP3   OH268085   5.445   0.444   6.479  0.4843 -0.1299 -1.1647
15557TIP3    H168086   5.383   0.405   6.418 -1.1278 -1.4976  1.1978
15557TIP3    H268087   5.509   0.375   6.495 -0.2425 -0.5255  0.1617
15558TIP3   OH268088   4.768   5.059   0.511 -0.0478  0.3698  0.4391
15558TIP3    H168089   4.813   5.095   0.435 -0.0029 -0.6015 -0.0045
15558TIP3    H268090   4.757   4.966   0.491 -1.0856  0.3318  1.1053
15559TIP3   OH268091   3.495   6.353  14.691 -0.0027 -0.5354  0.4615
15559TIP3    H168092   3.519   6.446  14.691 -0.4647 -0.4167  0.5281
15559TIP3    H268093   3.575   6.308  14.664  0.1775 -0.1058  0.2735
15560TIP3   OH268094   3.636   3.005  14.893  0.0288  0.0491  0.1443
15560TIP3    H168095   3.566   3.047  14.842  1.0711 -1.0471 -2.3921
15560TIP3    H268096   3.622   2.911  14.880  1.0238 -0.2284  0.9365
15561TIP3   OH268097   5.824   2.940  13.622  0.0062  0.1611  0.4104
15561TIP3    H168098   5.845   2.981  13.538 -2.8994 -0.0757 -0.5619
15561TIP3    H268099   5.852   3.004  13.687  0.4085  1.3159 -0.8320
15562TIP3   OH268100   1.330   6.211  12.237 -0.2255 -0.6365  0.0960
15562TIP3    H168101   1.311   6.281  12.300 -2.2479 -0.1315 -1.0146
15562TIP3    H268102   1.333   6.131  12.290 -0.8621 -0.0861  0.9854
15563TIP3   OH268103   3.894   1.955   4.113  0.0953 -0.5251  0.1172
15563TIP3    H168104   3.845   1.891   4.165 -0.1345 -0.8163 -0.4390
15563TIP3    H268105   3.842   1.965   4.033  0.2515  0.1866  0.0965
15564TIP3   OH268106   6.441   2.370   3.739 -0.3829 -0.2489  0.4684
15564TIP3    H168107   6.469   2.283   3.768 -1.2735 -0.7020  0.0090
15564TIP3    H268108   6.412   2.414   3.819  1.7198  0.3151  1.0029
15565TIP3   OH268109   5.682   5.725  12.196  0.5677 -0.0311  0.3114
15565TIP3    H168110   5.733   5.665  12.141  0.2585  0.9805 -1.1509
15565TIP3    H268111   5.748   5.784  12.234  0.5829  1.3051 -1.6167
15566TIP3   OH268112   5.101   3.180  13.307  0.5328 -0.2625  0.4430
15566TIP3    H168113   5.088   3.087  13.288 -0.4294 -0.2076  0.7388
15566TIP3    H268114   5.139   3.216  13.227  0.1932 -0.7705  0.0472
15567TIP3   OH268115   1.253   0.053   1.972 -0.2429  0.3708  0.2793
15567TIP3    H168116   1.309  -0.025   1.975  0.1662  0.7005  2.1697
15567TIP3    H268117   1.307   0.119   1.928  0.0014  0.0460  0.0862
15568TIP3   OH268118   6.604   3.910  16.981 -0.4627 -0.6469 -0.0675
15568TIP3    H168119   6.608   3.824  16.938  0.1842 -1.3881  1.4132
15568TIP3    H268120   6.535   3.956  16.934 -0.3835 -1.7258 -1.3295
15569TIP3   OH268121   2.846   6.377  14.131  0.4725 -0.3292  0.5077
15569TIP3    H168122   2.916   6.314  14.117  0.1255 -0.3790 -1.2963
15569TIP3    H268123   2.779   6.354  14.066 -0.8216  0.2934  1.5542
15570TIP3   OH268124   5.052   6.316   2.963 -0.2725  0.0604  0.0583
15570TIP3    H168125   5.077   6.405   2.985  0.2049  0.4088 -1.7070
15570TIP3    H268126   5.109   6.261   3.016 -0.1793  0.7952  0.7442
15571TIP3   OH268127   1.698   3.680  17.275 -0.1553  0.2157  0.0751
15571TIP3    H168128   1.671   3.602  17.323 -0.1730  0.9704  1.3458
15571TIP3    H268129   1.650   3.675  17.192  0.4487 -1.4999 -0.1968
15572TIP3   OH268130   3.859   5.985   1.820  0.2920  0.1395  0.1425
15572TIP3    H168131   3.798   6.055   1.799 -0.2854 -0.3860  0.0449
15572TIP3    H268132   3.815   5.905   1.792  0.9311 -0.2692  0.2736
15573TIP3   OH268133   1.011   2.431   0.583  0.8136 -0.1838  0.1378
15573TIP3    H168134   1.013   2.379   0.663  2.3284  0.2941  0.4272
15573TIP3    H268135   0.947   2.500   0.601  0.7271 -0.4106  0.7196
15574TIP3   OH268136   6.051   0.198   0.048 -0.1650  0.5096  0.3794
15574TIP3    H168137   6.117   0.267   0.051 -0.2569  0.6486 -0.4767
15574TIP3    H268138   6.100   0.116   0.049 -0.0011  0.6062  0.2466
15575TIP3   OH268139   1.755   1.084   3.211 -0.2846 -0.4960  0.2407
15575TIP3    H168140   1.844   1.086   3.175  0.1974 -0.9988  1.3484
15575TIP3    H268141   1.751   1.001   3.259 -2.2270 -1.7513 -1.9220
15576TIP3   OH268142   1.997   3.967  16.254  1.1108  0.6833 -0.0484
15576TIP3    H168143   2.011   4.001  16.342  0.0823 -0.4263  0.5803
15576TIP3    H268144   2.056   3.891  16.249 -0.6427 -0.7846  0.6530
15577TIP3   OH268145   5.127   5.821  15.797  0.5107 -0.2628  0.0590
15577TIP3    H168146   5.086   5.805  15.882 -0.0285 -0.2397 -0.1947
15577TIP3    H268147   5.189   5.892  15.813 -1.3990  1.5335 -0.0722
15578TIP3   OH268148   6.289   5.911   5.895 -0.1511  0.0127  0.0933
15578TIP3    H168149   6.315   5.997   5.863  0.4390  0.1867  0.9871
15578TIP3    H268150   6.291   5.854   5.818 -1.1752  0.9250 -0.6347
15579TIP3   OH268151   3.299   1.534  16.872  0.9225  0.0380  0.2182
15579TIP3    H168152   3.387   1.550  16.838 -0.2197  1.5289 -2.2786
15579TIP3    H268153   3.263   1.622  16.888 -1.2445 -0.3206 -2.0568
15580TIP3   OH268154   6.637   1.816  16.863 -0.1988 -0.0968 -0.2908
15580TIP3    H168155   6.641   1.897  16.914 -0.2931  0.5734 -1.3264
15580TIP3    H268156   6.719   1.814  16.814 -0.5723 -0.1891 -0.9174
15581TIP3   OH268157   1.348   1.576  12.772  0.2396 -0.6267 -0.2812
15581TIP3    H168158   1.270   1.561  12.826 -1.2602  4.1622 -0.6562
15581TIP3    H268159   1.318   1.561  12.683 -0.5240  1.4921 -0.4518
15582TIP3   OH268160   1.609   3.574  17.024 -0.5862  0.0797 -0.1405
15582TIP3    H168161   1.606   3.483  17.053 -3.5818  0.6802  1.9292
15582TIP3    H268162   1.547   3.579  16.952  0.0275  0.3897 -0.6574
15583TIP3   OH268163   2.842   5.272  12.353 -0.3689 -0.2249  0.2586
15583TIP3    H168164   2.884   5.285  12.437 -1.2370 -0.0489  0.6770
15583TIP3    H268165   2.768   5.333  12.353 -1.1257 -1.1014 -0.1015
15584TIP3   OH268166   2.622   0.867   3.230  0.2585  0.2918  0.5883
15584TIP3    H168167   2.717   0.865   3.234  0.4993  1.4265 -2.1512
15584TIP3    H268168   2.601   0.957   3.205 -1.2445 -0.7185 -2.2702
15585TIP3   OH268169   5.365   3.867   5.016 -0.0702 -0.5178 -0.2802
15585TIP3    H168170   5.391   3.780   4.988 -0.4789 -0.7145 -0.0609
15585TIP3    H268171   5.287   3.887   4.963  0.1469 -0.2006 -0.4799
15586TIP3   OH268172   1.090   0.060  11.072 -0.3290 -0.4271 -0.1549
15586TIP3    H168173   1.052   0.148  11.073 -0.8271 -0.6372 -0.5973
15586TIP3    H268174   1.151   0.060  11.147  1.1695  0.9330 -1.3086
15587TIP3   OH268175   4.923   2.542   3.128  0.4509  0.0171  0.6433
15587TIP3    H168176   4.975   2.471   3.091  0.2530 -0.3154  0.9989
15587TIP3    H268177   4.970   2.566   3.208  0.1457 -0.1764  0.8808
15588TIP3   OH268178   0.889   0.428   1.864 -0.6001  0.0173  0.6291
15588TIP3    H168179   0.817   0.367   1.877 -0.0793 -0.7802 -0.0864
15588TIP3    H268180   0.899   0.434   1.769 -0.0341  0.4910  0.7083
15589TIP3   OH268181   6.526   3.534   1.055  0.7679 -0.1497  0.0332
15589TIP3    H168182   6.532   3.578   0.970  2.3334 -0.6244 -0.1359
15589TIP3    H268183   6.504   3.604   1.117  0.2282  0.3136 -0.6627
15590TIP3   OH268184   3.354   6.621  10.272  0.0904 -0.3013  0.0365
15590TIP3    H168185   3.386   6.590  10.357  2.2493 -0.2354 -0.6862
15590TIP3    H268186   3.333   6.540  10.224  0.0865 -0.3923  0.1897
15591TIP3   OH268187   6.191   1.113  15.185  0.1022 -0.1589 -0.2089
15591TIP3    H168188   6.280   1.148  15.188 -0.0788  0.4531 -1.3768
15591TIP3    H268189   6.175   1.098  15.092 -1.2247  0.3227 -0.0754
15592TIP3   OH268190   5.851   6.722  17.280  0.7525 -0.2238  0.4163
15592TIP3    H168191   5.908   6.786  17.238  1.3964 -0.4690  0.8931
15592TIP3    H268192   5.850   6.748  17.372 -0.6798  0.3418  0.2693
15593TIP3   OH268193   3.144   5.571  16.844 -0.0248 -0.2492  0.4965
15593TIP3    H168194   3.172   5.641  16.903  0.0329 -0.3421  0.5795
15593TIP3    H268195   3.096   5.616  16.774  2.2015  0.1707 -0.8659
15594TIP3   OH268196   2.654   2.394   3.610 -0.8574  0.7053  0.5121
15594TIP3    H168197   2.633   2.421   3.700  0.7804  1.0616  0.8287
15594TIP3    H268198   2.675   2.475   3.565 -1.8894  0.5487 -0.2797
15595TIP3   OH268199   4.983   0.085  15.395 -0.2983 -0.0808  0.3065
15595TIP3    H168200   5.043   0.120  15.461  1.2313  1.2652 -1.6621
15595TIP3    H268201   4.941   0.162  15.358  1.0861 -0.4233 -2.2449
15596TIP3   OH268202   1.770   1.652   4.683  0.0207  0.7056 -0.3220
15596TIP3    H168203   1.691   1.705   4.679 -2.8737 -3.2631 -3.1558
15596TIP3    H268204   1.807   1.656   4.594  0.7659 -0.4960 -0.1026
15597TIP3   OH268205   1.584   3.852  15.004  0.0293  0.0345  0.7176
15597TIP3    H168206   1.513   3.790  15.020  0.9215 -1.1167  0.3125
15597TIP3    H268207   1.616   3.875  15.091 -0.4391  0.0959  0.8774
15598TIP3   OH268208   1.465   0.808   0.757 -0.6027  0.4636  0.4497
15598TIP3    H168209   1.460   0.800   0.852 -1.5038  1.8091  0.5411
15598TIP3    H268210   1.483   0.719   0.726  0.5329  0.1599  1.9129
15599TIP3   OH268211   4.605   3.884   6.430  0.5932  0.4874 -0.0792
15599TIP3    H168212   4.617   3.920   6.342 -0.3219  1.2883  0.1081
15599TIP3    H268213   4.692   3.887   6.469  1.3718 -1.4750 -1.5238
15600TIP3   OH268214   6.730   1.121  17.201  0.4847 -0.2116  0.3015
15600TIP3    H168215   6.794   1.059  17.166 -0.1964 -0.0286 -1.3873
15600TIP3    H268216   6.661   1.124  17.134  0.6668  2.6444  0.1257
15601TIP3   OH268217   2.069   1.355   1.495  0.5697  0.0860 -0.1625
15601TIP3    H168218   2.073   1.443   1.458  0.0973 -0.6431 -2.0790
15601TIP3    H268219   2.158   1.322   1.488  0.4331 -0.1360 -0.9096
15602TIP3   OH268220   6.655   5.783   3.479 -0.2424 -0.3705 -0.2528
15602TIP3    H168221   6.746   5.762   3.459  0.2302  0.7693  0.5987
15602TIP3    H268222   6.611   5.781   3.394  0.7212 -0.2538 -0.7702
15603TIP3   OH268223   1.669   4.099  14.713 -0.0531 -0.0305 -0.0005
15603TIP3    H168224   1.645   4.061  14.798  0.7858 -0.6388 -0.0261
15603TIP3    H268225   1.765   4.103  14.715 -0.0333  0.0356 -0.8830
15604TIP3   OH268226   5.344   0.821   4.797  0.4104 -0.2053  0.0880
15604TIP3    H168227   5.327   0.896   4.739 -0.1596 -0.8961 -0.6513
15604TIP3    H268228   5.435   0.798   4.780  0.6466  0.4172  0.4501
15605TIP3   OH268229   2.658   0.200   3.398  0.7876  0.4319  0.3928
15605TIP3    H168230   2.659   0.121   3.344  1.7157  0.7109 -0.0316
15605TIP3    H268231   2.683   0.170   3.485 -0.5033  0.0127  0.6377
15606TIP3   OH268232   3.147   1.853   5.671  0.0980 -0.0942  0.3685
15606TIP3    H168233   3.091   1.834   5.746 -2.2426  0.3179 -1.1763
15606TIP3    H268234   3.098   1.919   5.621  1.8328  0.0432 -1.2554
15607TIP3   OH268235   2.929   0.386   4.723 -0.4459  0.3768 -0.0725
15607TIP3    H168236   2.924   0.298   4.759  0.6231  0.5512  0.5380
15607TIP3    H268237   2.912   0.375   4.629 -2.5545 -0.1761  0.3266
15608TIP3   OH268238   6.079   4.957  13.338  0.0170  0.0673 -0.3012
15608TIP3    H168239   6.059   5.012  13.414  1.6312  0.6996 -0.2924
15608TIP3    H268240   6.137   4.889  13.373 -2.5232 -2.1863 -0.1493
15609TIP3   OH268241   5.437   0.525  15.415  0.0670  0.5474 -0.3321
15609TIP3    H168242   5.477   0.438  15.414 -1.2738 -0.0918  0.1261
15609TIP3    H268243   5.355   0.515  15.367  0.7907  2.0506 -2.0521
15610TIP3   OH268244   3.069   3.097   4.174  0.6837 -0.6007  0.2242
15610TIP3    H168245   3.123   3.028   4.137  0.3481 -1.6034  1.5496
15610TIP3    H268246   2.998   3.109   4.110  0.8513 -1.3437 -0.1061
15611TIP3   OH268247   4.402   2.136   2.297 -0.0686 -0.0949  0.0650
15611TIP3    H168248   4.477   2.185   2.266 -0.5729  1.5937  1.3933
15611TIP3    H268249   4.334   2.152   2.232  0.0668  0.1522 -0.0148
15612TIP3   OH268250   6.485   1.581   1.145 -0.4058  0.1837 -0.7063
15612TIP3    H168251   6.561   1.627   1.180 -0.1033 -1.3860  0.8786
15612TIP3    H268252   6.471   1.508   1.206 -1.9128 -0.7831 -2.1085
15613TIP3   OH268253   6.658   5.317  10.694  0.4967 -0.2038 -0.0275
15613TIP3    H168254   6.696   5.238  10.655 -2.1963 -1.8462  0.4301
15613TIP3    H268255   6.621   5.365  10.620 -0.6709 -1.0340 -0.0020
15614TIP3   OH268256   1.072   4.841  15.140  0.4949 -0.1884  0.0731
15614TIP3    H168257   1.137   4.874  15.201 -0.8430 -1.7857  2.5475
15614TIP3    H268258   1.102   4.753  15.118  0.5111  0.0521 -0.9130
15615TIP3   OH268259   4.089   3.472   0.395  1.0119 -0.5875  0.1820
15615TIP3    H168260   4.084   3.412   0.321 -0.3691 -0.8927  0.4929
15615TIP3    H268261   4.129   3.551   0.359 -1.5566  0.0774 -1.5105
15616TIP3   OH268262   4.712   4.196   3.087 -0.1901 -0.1943  0.2150
15616TIP3    H168263   4.750   4.146   3.160 -1.7740 -1.2109  0.3869
15616TIP3    H268264   4.690   4.130   3.022  1.2074  0.7090 -1.2322
15617TIP3   OH268265   2.483   1.274  11.932  0.0947 -0.2439 -0.6100
15617TIP3    H168266   2.566   1.227  11.937 -0.2898 -0.8249  0.7950
15617TIP3    H268267   2.508   1.366  11.928  0.8105 -0.3900  0.1510
15618TIP3   OH268268   1.918   3.241  16.383 -0.2799  0.0364  0.3371
15618TIP3    H168269   1.958   3.304  16.324 -1.3613 -0.7722 -1.3658
15618TIP3    H268270   1.872   3.294  16.448 -0.2641  0.9826 -0.4113
15619TIP3   OH268271   4.788   3.722  13.107  0.6292  0.0787 -0.1620
15619TIP3    H168272   4.700   3.753  13.086  0.2258 -1.8734 -1.6247
15619TIP3    H268273   4.820   3.683  13.026  2.4675 -0.1432  0.6166
15620TIP3   OH268274   0.476   3.102   2.990  0.5316  0.0440  0.0241
15620TIP3    H168275   0.400   3.087   2.934 -0.5511  1.0017  1.1630
15620TIP3    H268276   0.490   3.018   3.034 -1.4178  0.4463  1.5676
15621TIP3   OH268277   3.305   4.591   1.978 -0.4565  0.0518  0.6072
15621TIP3    H168278   3.363   4.620   1.908 -0.5948 -1.2543 -0.0708
15621TIP3    H268279   3.297   4.496   1.965 -3.4273  0.2808  0.1556
15622TIP3   OH268280   4.451   4.143  13.619 -0.1235  0.0979  0.1227
15622TIP3    H168281   4.493   4.188  13.546  0.0623 -0.4268 -0.0990
15622TIP3    H268282   4.523   4.104  13.668 -0.1341  1.4623  1.3051
15623TIP3   OH268283   4.769   4.215   5.622  0.5155 -0.2199 -0.0063
15623TIP3    H168284   4.741   4.176   5.705  2.3679  0.9405  1.2500
15623TIP3    H268285   4.691   4.214   5.567 -0.9889 -0.3341  2.0213
15624TIP3   OH268286   5.289   0.415   2.980  0.1997 -0.3874 -0.2512
15624TIP3    H168287   5.335   0.498   2.983 -1.4207  0.5333  1.4441
15624TIP3    H268288   5.317   0.369   3.060  1.1702 -1.5665 -1.2277
15625TIP3   OH268289   2.737   2.220  11.345 -0.3140  0.3461 -0.4234
15625TIP3    H168290   2.759   2.311  11.326 -1.5986  0.2827 -2.4013
15625TIP3    H268291   2.790   2.169  11.284 -0.2705 -0.2028  0.0582
15626TIP3   OH268292   0.806   4.004   1.711  0.4678  0.5277  0.4019
15626TIP3    H168293   0.886   4.030   1.756  0.7949  0.0215  0.1162
15626TIP3    H268294   0.777   3.925   1.757 -0.3946  1.2310  1.1138
15627TIP3   OH268295   2.071   1.054   4.459 -0.0108 -0.0372  0.3090
15627TIP3    H168296   2.011   1.107   4.512  0.7050 -0.2844  1.3926
15627TIP3    H268297   2.154   1.057   4.506  0.9070  0.4721 -1.2787
15628TIP3   OH268298   4.729   3.918   4.280 -0.0367 -0.0073 -0.6041
15628TIP3    H168299   4.736   4.001   4.327 -0.3235  1.4674 -3.0415
15628TIP3    H268300   4.817   3.880   4.287 -0.1238  0.0246  1.2679
15629TIP3   OH268301   6.222   4.486   0.689 -0.0275 -0.2174 -0.5752
15629TIP3    H168302   6.146   4.503   0.745  0.7560 -1.0020  0.7777
15629TIP3    H268303   6.297   4.496   0.747  0.8479 -0.5555 -1.6221
15630TIP3   OH268304   2.738   2.030  10.546  0.0848 -0.2718  0.0092
15630TIP3    H168305   2.649   2.001  10.524  0.6088 -2.2484  0.2922
15630TIP3    H268306   2.793   1.953  10.531  1.4574  0.2987  1.7153
15631TIP3   OH268307   2.083   4.185  16.701 -0.4550  0.3612  0.4994
15631TIP3    H168308   1.996   4.203  16.737 -1.0171  0.6781 -0.9488
15631TIP3    H268309   2.144   4.220  16.766 -1.3787 -0.4621  1.8523
15632TIP3   OH268310   4.893   6.437  16.617 -0.0898 -0.6861  0.2049
15632TIP3    H168311   4.828   6.367  16.610  0.1434 -0.8174 -0.7255
15632TIP3    H268312   4.965   6.408  16.561  0.5529 -0.2953  0.8121
15633TIP3   OH268313   6.122   6.424  16.459 -0.0384 -0.2896  0.0424
15633TIP3    H168314   6.067   6.497  16.430  2.1470  1.0261 -0.9807
15633TIP3    H268315   6.087   6.401  16.546 -0.4124  2.3851  0.6696
15634TIP3   OH268316   4.805   2.861   2.891  0.4669 -0.0776 -0.0302
15634TIP3    H168317   4.821   2.940   2.839  0.8708 -0.2312 -0.1430
15634TIP3    H268318   4.864   2.869   2.965 -0.8131  0.6306  0.9558
15635TIP3   OH268319   0.302   2.787  15.004  0.1138  0.2186  0.4290
15635TIP3    H168320   0.252   2.751  14.930 -1.4653 -1.0152  2.0030
15635TIP3    H268321   0.378   2.730  15.010 -0.5507 -0.6726  0.6792
15636TIP3   OH268322   0.421   4.283  16.542 -0.6141  0.5878 -0.0421
15636TIP3    H168323   0.435   4.359  16.486  0.8539 -0.7334 -1.5787
15636TIP3    H268324   0.349   4.235  16.499 -0.9797  0.6909  0.4534
15637TIP3   OH268325   0.583   4.533   4.329  0.6959 -0.3068  0.0320
15637TIP3    H168326   0.602   4.459   4.386  1.6452 -1.9535 -2.2635
15637TIP3    H268327   0.523   4.587   4.380  0.9816 -1.9679  2.3078
15638TIP3   OH268328   6.686   6.656   4.245 -0.2370  0.2735  0.4754
15638TIP3    H168329   6.688   6.603   4.166  1.5817 -0.6413  1.0877
15638TIP3    H268330   6.629   6.730   4.223  0.0267 -0.0933 -1.5847
15639TIP3   OH268331   0.505   6.187   1.401 -0.1845 -0.8034 -0.0750
15639TIP3    H168332   0.539   6.268   1.364  1.3708 -0.7129  1.4460
15639TIP3    H268333   0.410   6.196   1.394 -0.1460  1.8814  1.4413
15640TIP3   OH268334   0.011   3.134  13.050  0.7595 -0.8101 -0.2384
15640TIP3    H168335   0.021   3.044  13.081 -0.7414 -0.7046  0.6578
15640TIP3    H268336  -0.017   3.125  12.959  2.7406 -1.1686 -0.8691
15641TIP3   OH268337   3.370   1.702   5.609  0.0601 -0.3276  0.2939
15641TIP3    H168338   3.402   1.647   5.679 -0.0030 -0.4122  0.2572
15641TIP3    H268339   3.284   1.732   5.639 -1.1183 -2.4046 -0.8010
15642TIP3   OH268340   1.431   0.748   5.766  0.4438 -0.4498 -0.4322
15642TIP3    H168341   1.347   0.791   5.780  0.5664  0.6772 -2.7042
15642TIP3    H268342   1.475   0.754   5.851 -1.2439  0.0880  0.4451
15643TIP3   OH268343   1.653   3.303  17.114 -0.0733  0.1499 -0.1418
15643TIP3    H168344   1.701   3.343  17.186 -1.6362  1.5535  0.1647
15643TIP3    H268345   1.711   3.232  17.084  0.9251 -0.0377  2.0011
15644TIP3   OH268346   3.770   4.421  12.887 -0.0709 -0.3988 -0.5207
15644TIP3    H168347   3.816   4.338  12.895 -0.4441 -0.8765 -2.7052
15644TIP3    H268348   3.692   4.410  12.941 -1.5361 -2.6153 -2.8361
15645TIP3   OH268349   5.321   3.005   1.265  0.1696 -0.1408 -0.0085
15645TIP3    H168350   5.237   2.967   1.240  0.2507 -1.3491  1.3890
15645TIP3    H268351   5.387   2.944   1.232  0.3426 -0.7621  1.3857
15646TIP3   OH268352   1.452   5.964   3.962  0.2664  0.0951  1.1908
15646TIP3    H168353   1.436   6.057   3.976  0.4832  0.1002  1.4144
15646TIP3    H268354   1.534   5.961   3.912 -0.7006  0.0960 -0.4781
15647TIP3   OH268355   3.738   1.064  15.166 -0.6220 -0.2680  0.2593
15647TIP3    H168356   3.734   1.051  15.261  0.7841 -0.1107  0.3583
15647TIP3    H268357   3.649   1.086  15.142 -0.4471  2.9450  2.0285
15648TIP3   OH268358   3.356   6.478  13.662  0.6087  0.2185  0.4138
15648TIP3    H168359   3.315   6.406  13.711  1.3910 -1.5125 -1.3368
15648TIP3    H268360   3.286   6.512  13.607  0.4573  0.1613  0.5700
15649TIP3   OH268361   4.996   4.220   6.829  0.5708 -0.2289  0.3534
15649TIP3    H168362   5.036   4.138   6.804  2.3422  1.1545 -1.7025
15649TIP3    H268363   5.067   4.285   6.824 -0.9502  1.5977  0.9432
15650TIP3   OH268364   5.546   6.194   3.128 -0.5963 -0.1379  0.0606
15650TIP3    H168365   5.483   6.225   3.064 -0.2090  1.1493  0.2748
15650TIP3    H268366   5.540   6.258   3.200  1.0949  0.1420 -0.0182
15651TIP3   OH268367   2.875   4.861  12.117 -0.1511  0.2606  0.0257
15651TIP3    H168368   2.804   4.842  12.178 -0.1688 -2.9949 -0.8497
15651TIP3    H268369   2.953   4.866  12.172 -0.5223 -0.0383  0.5907
15652TIP3   OH268370   3.465   5.770  17.375 -0.2160 -0.5994 -0.5399
15652TIP3    H168371   3.406   5.735  17.309  0.2784  0.0183 -1.3282
15652TIP3    H268372   3.474   5.699  17.439 -0.5519 -1.2824 -1.2290
15653TIP3   OH268373   1.383   5.131   3.886  0.1880  0.1327 -0.1795
15653TIP3    H168374   1.288   5.142   3.881 -0.1227 -2.0867 -0.3076
15653TIP3    H268375   1.409   5.111   3.796  0.6822  0.1244 -0.0374
15654TIP3   OH268376   3.079   0.717  12.200 -0.4440 -0.6778  0.2899
15654TIP3    H168377   3.007   0.777  12.214  0.7611  0.3851  2.4017
15654TIP3    H268378   3.039   0.641  12.157 -2.9842 -0.4929  2.1092
15655TIP3   OH268379   6.566   5.356  11.528  0.4136  0.1903  0.5356
15655TIP3    H168380   6.573   5.386  11.437 -1.2267 -2.8393 -0.7613
15655TIP3    H268381   6.654   5.325  11.550  0.3400 -1.3006 -1.0053
15656TIP3   OH268382   0.076   1.988  17.158 -0.0261  0.4137  0.1437
15656TIP3    H168383   0.014   2.036  17.102  1.9923  0.0912 -2.5990
15656TIP3    H268384   0.043   1.898  17.158 -0.3458  0.5273 -0.0745
15657TIP3   OH268385   5.354   1.415  13.696  0.2064  0.2812  0.1816
15657TIP3    H168386   5.435   1.371  13.721  0.0947  0.2818  0.5520
15657TIP3    H268387   5.382   1.499  13.660  0.3025  0.9085  1.6615
15658TIP3   OH268388   0.061   4.350  12.670 -0.3708  0.1137  0.3630
15658TIP3    H168389   0.060   4.272  12.726 -0.7790 -0.0262  0.1625
15658TIP3    H268390   0.040   4.422  12.729  2.1251  0.4041  1.0259
15659TIP3   OH268391   0.030   4.604   3.787 -0.2183  0.8004  0.6706
15659TIP3    H168392   0.012   4.683   3.837  1.3478  1.0330  0.9269
15659TIP3    H268393   0.119   4.578   3.814 -0.7119 -1.0789  0.6502
15660TIP3   OH268394   3.330   4.880  11.350 -0.6063 -0.1869  0.2200
15660TIP3    H168395   3.294   4.869  11.438  0.4614  0.7492  0.8061
15660TIP3    H268396   3.282   4.955  11.314 -1.2313 -0.7376 -0.1112
15661TIP3   OH268397   2.308   4.243   6.334  0.3467  0.9340  0.8356
15661TIP3    H168398   2.354   4.229   6.251  1.0851  1.7151  1.0995
15661TIP3    H268399   2.375   4.280   6.392  0.3129 -1.1393  2.3052
15662TIP3   OH268400   3.180   1.140  15.536  0.3899  0.2297 -0.0424
15662TIP3    H168401   3.169   1.068  15.474  2.5065  0.1681 -0.3905
15662TIP3    H268402   3.198   1.217  15.483 -4.1055  1.7207  0.1446
15663TIP3   OH268403   1.096   6.486   0.521  0.1454 -0.1558  0.1996
15663TIP3    H168404   1.019   6.508   0.468 -2.1208 -1.8823  2.5537
15663TIP3    H268405   1.135   6.411   0.476 -0.3144 -0.0965 -0.3137
15664TIP3   OH268406   6.563   1.843  10.786 -0.4008 -0.0979 -0.3662
15664TIP3    H168407   6.557   1.783  10.860  0.8161 -0.6769 -0.7139
15664TIP3    H268408   6.531   1.793  10.711  0.5923 -0.3297 -0.6518
15665TIP3   OH268409   1.893   2.365   5.335  0.4482  0.2142 -0.5628
15665TIP3    H168410   1.898   2.460   5.338  0.3837  0.1828  1.1081
15665TIP3    H268411   1.803   2.344   5.359  0.5286 -0.2837 -0.6692
15666TIP3   OH268412   6.264   5.077   3.751  0.0392 -0.7136 -0.0395
15666TIP3    H168413   6.322   5.151   3.735 -1.9784  0.4299 -2.7914
15666TIP3    H268414   6.198   5.112   3.811  0.6202 -1.2071  0.9219
15667TIP3   OH268415   4.060   3.239  11.883  0.1927  0.3000  0.2762
15667TIP3    H168416   4.019   3.234  11.797  0.8061 -1.7204  0.0702
15667TIP3    H268417   4.147   3.201  11.871  1.2946  2.3503  1.2372
15668TIP3   OH268418   1.799   4.621   3.389  0.5096  0.0224 -0.6808
15668TIP3    H168419   1.795   4.716   3.389  0.2499  0.0150 -1.2653
15668TIP3    H268420   1.814   4.597   3.297 -0.6909 -0.5347 -0.7488
15669TIP3   OH268421   2.820   0.996  11.903  0.1370  0.1437 -0.3711
15669TIP3    H168422   2.772   1.056  11.847 -0.8916 -0.9540 -0.7143
15669TIP3    H268423   2.858   0.931  11.843 -0.7180 -0.8664  0.1466
15670TIP3   OH268424   5.133   5.700   0.254  0.4358  0.0900  0.3921
15670TIP3    H168425   5.105   5.670   0.167 -0.5554  0.3218  0.6121
15670TIP3    H268426   5.121   5.625   0.311 -2.5801  0.9405  1.0538
15671TIP3   OH268427   1.286   2.440   1.146 -0.2071  0.1245  0.1154
15671TIP3    H168428   1.369   2.436   1.193 -0.3420 -2.0296  0.2546
15671TIP3    H268429   1.300   2.387   1.068 -0.8062  1.5403 -0.9995
15672TIP3   OH268430   1.593   2.594   6.383 -0.2282 -0.0609  0.4117
15672TIP3    H168431   1.622   2.520   6.329  0.6982 -0.9814  2.1010
15672TIP3    H268432   1.549   2.553   6.458 -0.9133  1.1600  0.7047
15673TIP3   OH268433   0.694   1.327   6.558 -0.3443 -0.1535  0.4685
15673TIP3    H168434   0.632   1.318   6.630 -0.1290 -2.0280  0.4755
15673TIP3    H268435   0.655   1.276   6.487  0.4416 -0.0584 -0.0429
15674TIP3   OH268436   6.686   6.013   5.534  0.4799  0.1054 -0.3802
15674TIP3    H168437   6.696   6.103   5.564  1.3550  0.3067 -1.2522
15674TIP3    H268438   6.701   5.960   5.612 -2.1200  0.7339  0.6477
15675TIP3   OH268439   3.239   1.084   3.344 -0.3817  0.2201 -0.2010
15675TIP3    H168440   3.197   1.170   3.352  0.8418  0.8955 -0.8060
15675TIP3    H268441   3.302   1.095   3.273  0.1163 -1.0571  0.0236
15676TIP3   OH268442   1.233   0.126   3.554 -0.5052 -0.2208 -0.4279
15676TIP3    H168443   1.219   0.073   3.475  0.6281 -1.1798 -0.0103
15676TIP3    H268444   1.226   0.216   3.523  1.4037 -0.5348 -1.9579
15677TIP3   OH268445   5.663   5.428   4.002  0.0815 -0.2153  0.1543
15677TIP3    H168446   5.593   5.433   4.067 -0.2401 -0.3891 -0.1703
15677TIP3    H268447   5.625   5.377   3.930  0.0065  0.9602 -0.6815
15678TIP3   OH268448   2.719   3.660   1.686  0.0353 -0.0841 -0.2232
15678TIP3    H168449   2.646   3.705   1.642 -0.8498 -1.4442 -0.2072
15678TIP3    H268450   2.792   3.721   1.679 -1.0856  1.3075 -0.2929
15679TIP3   OH268451   6.562   4.132  15.989  0.9058 -0.1461 -0.3754
15679TIP3    H168452   6.521   4.070  15.928  1.0572 -0.4143 -0.2071
15679TIP3    H268453   6.570   4.213  15.939 -0.1992  0.0316 -0.2783
15680TIP3   OH268454   1.483   5.501   3.780  0.2870  0.4662  0.3960
15680TIP3    H168455   1.578   5.503   3.790  0.4277  1.2652 -0.9277
15680TIP3    H268456   1.450   5.484   3.869  1.6309  0.7318  0.9681
15681TIP3   OH268457   3.225   2.446  13.520 -0.4350 -0.1782  0.0832
15681TIP3    H168458   3.179   2.455  13.436  0.4834  0.1672 -0.3983
15681TIP3    H268459   3.243   2.535  13.548 -0.5588 -0.2983  0.5546
15682TIP3   OH268460   4.737   3.451   0.417 -0.2626  0.5353 -0.3934
15682TIP3    H168461   4.775   3.438   0.330 -0.1057  0.8783 -0.3799
15682TIP3    H268462   4.742   3.365   0.459 -1.7182  0.0035 -1.2491
15683TIP3   OH268463   2.600   4.231   6.848 -0.2824 -0.3214 -0.1799
15683TIP3    H168464   2.517   4.220   6.803  0.3920  1.9988 -2.1677
15683TIP3    H268465   2.666   4.232   6.779  1.0063  1.4578  0.9647
15684TIP3   OH268466   6.649   3.402   1.272  0.4704  0.6047 -0.5042
15684TIP3    H168467   6.574   3.448   1.310  3.2780  4.2218  1.1987
15684TIP3    H268468   6.642   3.421   1.178 -2.0208 -1.3910 -0.8400
15685TIP3   OH268469   0.890   0.288  16.363 -0.4085 -0.0957  0.1658
15685TIP3    H168470   0.871   0.379  16.382 -0.2303  0.2716 -1.3168
15685TIP3    H268471   0.830   0.264  16.293 -0.6501 -1.2205  0.7198
15686TIP3   OH268472   0.049   5.467  14.346  0.2844  0.5999  0.2115
15686TIP3    H168473   0.009   5.380  14.343  0.9978  0.2901 -0.9396
15686TIP3    H268474  -0.024   5.527  14.362 -0.4763 -0.0549 -0.7009
15687TIP3   OH268475   4.098   6.257  16.951  0.3733  0.1782  0.0373
15687TIP3    H168476   4.128   6.308  17.026 -0.0628 -2.3140  2.0451
15687TIP3    H268477   4.035   6.314  16.908  1.2886  2.0393  1.0035
15688TIP3   OH268478   3.250   3.058  13.267 -0.5417 -0.1113 -0.7977
15688TIP3    H168479   3.303   2.978  13.262 -0.2112  0.1093 -0.8915
15688TIP3    H268480   3.183   3.039  13.332  0.4909  0.0860  0.3638
15689TIP3   OH268481   3.573   2.288   0.154  0.8293  0.2713  0.3838
15689TIP3    H168482   3.548   2.240   0.075 -3.0132  1.8884  0.4518
15689TIP3    H268483   3.639   2.351   0.123  0.6245 -0.2144 -1.1654
15690TIP3   OH268484   3.391   5.234  11.390 -0.5711  0.5056  0.1212
15690TIP3    H168485   3.354   5.222  11.302  0.8921 -0.6492 -0.3802
15690TIP3    H268486   3.449   5.309  11.381  3.0603 -2.1406 -1.2350
15691TIP3   OH268487   6.456   1.202  15.157  0.0099 -0.9167 -0.5278
15691TIP3    H168488   6.524   1.214  15.223 -0.6437 -1.4057  0.2378
15691TIP3    H268489   6.482   1.261  15.085  1.3969 -1.3206 -0.3804
15692TIP3   OH268490   0.687   0.493   1.362  0.0447 -0.0398  0.0496
15692TIP3    H168491   0.598   0.506   1.328  0.3886  1.5826 -0.2747
15692TIP3    H268492   0.712   0.407   1.329 -1.5705 -0.7414  0.5281
15693TIP3   OH268493   6.480   4.667  12.756  0.0866 -0.4496 -0.3847
15693TIP3    H168494   6.463   4.743  12.701 -2.3132  0.2048  1.1122
15693TIP3    H268495   6.487   4.702  12.845 -1.0782 -1.9316  0.3401
15694TIP3   OH268496   4.201   2.743  15.948 -0.5504  0.6134 -0.0701
15694TIP3    H168497   4.215   2.814  16.010 -0.1966  0.0649  0.4819
15694TIP3    H268498   4.111   2.715  15.963 -0.4099  0.3682  0.3136
15695TIP3   OH268499   0.810   4.605  15.788 -0.0042 -0.3857  0.5827
15695TIP3    H168500   0.841   4.531  15.840  1.7540 -0.9677 -1.1666
15695TIP3    H268501   0.870   4.676  15.811 -1.0092  0.2077  1.4396
15696TIP3   OH268502   4.313   1.973  15.740 -0.3087  0.0718  0.2409
15696TIP3    H168503   4.319   2.048  15.680  0.2310 -0.1125  0.0564
15696TIP3    H268504   4.376   1.910  15.706 -0.0607 -0.0776  0.9469
15697TIP3   OH268505   4.121   3.748   5.769 -0.4241  0.3285 -0.6689
15697TIP3    H168506   4.142   3.794   5.687  2.4537  0.0962 -0.1735
15697TIP3    H268507   4.141   3.812   5.838 -0.6104 -0.2339 -0.0904
15698TIP3   OH268508   2.945   6.431   4.336  0.2336 -0.0228  0.2252
15698TIP3    H168509   2.994   6.501   4.380  0.4606 -0.6776  1.0437
15698TIP3    H268510   2.891   6.393   4.406 -1.2622  0.5153 -0.5968
15699TIP3   OH268511   4.668   3.273   4.974 -0.4273 -0.6117  0.1079
15699TIP3    H168512   4.725   3.291   5.049  1.8940 -0.7325 -1.5185
15699TIP3    H268513   4.726   3.279   4.898 -2.1978 -2.6752 -1.5236
15700TIP3   OH268514   6.060   3.905   0.654 -0.4912 -0.2611  0.4136
15700TIP3    H168515   6.120   3.974   0.682  1.1541  0.1254 -3.3970
15700TIP3    H268516   5.987   3.910   0.716  0.5077  3.4677  1.5669
15701TIP3   OH268517   4.145   5.114   4.028  0.1115 -0.0394  0.2657
15701TIP3    H168518   4.110   5.129   3.941 -2.3123 -1.3911  0.9088
15701TIP3    H268519   4.236   5.089   4.014  0.1106  0.9417 -1.7439
15702TIP3   OH268520   3.707   5.329  16.642 -0.1783 -0.6383 -0.3896
15702TIP3    H168521   3.724   5.415  16.602  0.5733 -1.1023 -1.0865
15702TIP3    H268522   3.718   5.344  16.736  2.0714 -0.4250 -0.6399
15703TIP3   OH268523   1.629   5.928   0.692 -0.1278  0.1592 -0.4392
15703TIP3    H168524   1.723   5.907   0.687 -0.1250 -0.2320  0.9050
15703TIP3    H268525   1.585   5.845   0.675 -0.1676 -0.2445  1.4344
15704TIP3   OH268526   4.049   1.369  11.980  0.3188 -0.3534 -0.1658
15704TIP3    H168527   4.001   1.305  11.928 -0.7805 -1.5021  2.1410
15704TIP3    H268528   3.994   1.446  11.981  0.4121 -0.2752 -0.7973
15705TIP3   OH268529   0.453   1.851  14.465  0.4844 -0.5921  0.0601
15705TIP3    H168530   0.438   1.863  14.371 -0.9379  3.4938  0.6170
15705TIP3    H268531   0.530   1.904  14.484  0.1197 -0.4800  1.3249
15706TIP3   OH268532   5.296   0.697  13.550  0.4111  0.0055  0.4135
15706TIP3    H168533   5.261   0.659  13.469  0.6549 -0.0881  0.3504
15706TIP3    H268534   5.221   0.740  13.591  0.1167 -0.6108  0.5287
15707TIP3   OH268535   4.989   2.824  14.632  0.0222 -0.0420 -0.0029
15707TIP3    H168536   5.037   2.907  14.637  1.1844 -0.6420 -0.7114
15707TIP3    H268537   5.046   2.767  14.580 -1.3921 -0.8439 -0.7358
15708TIP3   OH268538   1.907   1.792  15.524  0.6387  0.3685  0.2022
15708TIP3    H168539   1.972   1.794  15.453  0.0808  0.7715 -0.3008
15708TIP3    H268540   1.906   1.700  15.552  0.0253 -0.0398 -1.0958
15709TIP3   OH268541   4.939   6.261  15.457  0.2587  0.2033 -0.2025
15709TIP3    H168542   5.032   6.285  15.468  0.0585  1.5774 -1.2965
15709TIP3    H268543   4.893   6.345  15.460 -0.7618 -0.2894 -1.5357
15710TIP3   OH268544   0.493   4.044  11.495  0.1937  0.0009  0.4802
15710TIP3    H168545   0.533   4.126  11.523  1.5399 -0.4890  0.0827
15710TIP3    H268546   0.568   3.986  11.478 -0.6067 -0.4845 -1.7470
15711TIP3   OH268547   0.989   1.227   3.630  0.3476 -0.4495  0.3123
15711TIP3    H168548   1.000   1.321   3.647  0.5316 -0.6177  1.1472
15711TIP3    H268549   1.060   1.186   3.679  0.7270 -0.9806 -0.6547
15712TIP3   OH268550   4.851   0.134  13.264 -0.1180 -0.7268  0.0049
15712TIP3    H168551   4.931   0.132  13.212  0.9218  0.1333  1.5054
15712TIP3    H268552   4.855   0.055  13.317 -0.4084 -0.8217 -0.1120
15713TIP3   OH268553   2.756   3.222  14.965  0.3615  0.2404 -0.0581
15713TIP3    H168554   2.843   3.183  14.976  0.6404  0.4264 -1.3841
15713TIP3    H268555   2.767   3.313  14.994  0.6296  0.2750 -0.2584
15714TIP3   OH268556   0.138   3.578  12.258 -0.3851  0.6130  0.1145
15714TIP3    H168557   0.043   3.568  12.262 -0.4501  1.4080  3.2409
15714TIP3    H268558   0.168   3.503  12.206 -2.4475 -1.9602  2.3643
15715TIP3   OH268559   4.154   3.768  13.085 -0.5208  0.8710 -0.1614
15715TIP3    H168560   4.227   3.804  13.034 -0.8285  1.4021 -0.2289
15715TIP3    H268561   4.190   3.689  13.125  0.8794  2.4532  1.8695
15716TIP3   OH268562   3.153   2.651   2.737 -0.3803 -0.3603  0.0733
15716TIP3    H168563   3.242   2.674   2.711 -0.3528  0.0959  0.5433
15716TIP3    H268564   3.163   2.600   2.817 -0.6036  1.4002  1.2759
15717TIP3   OH268565   5.677   2.316  12.708  0.6745 -0.1739 -0.1227
15717TIP3    H168566   5.770   2.317  12.683  1.2641  0.5127  1.9246
15717TIP3    H268567   5.676   2.345  12.799 -1.5601 -0.3003 -0.0506
15718TIP3   OH268568   1.917   0.825   1.835  0.6204  0.0234 -0.0040
15718TIP3    H168569   2.007   0.819   1.867  0.5145 -2.3224 -0.0091
15718TIP3    H268570   1.917   0.903   1.780  2.0970  1.2632  1.6089
15719TIP3   OH268571   3.098   3.563  15.091 -0.1087 -0.0388  0.0946
15719TIP3    H168572   3.091   3.649  15.051 -0.3785  0.4198  1.1018
15719TIP3    H268573   3.098   3.580  15.185  1.2967 -1.0327  0.2997
15720TIP3   OH268574   0.914   1.342   2.001 -0.7115  0.1420 -0.5021
15720TIP3    H168575   0.841   1.353   1.940 -2.2381  1.4533  1.4280
15720TIP3    H268576   0.874   1.348   2.088  1.3942 -1.4503  0.6688
15721TIP3   OH268577   1.852   6.091  12.912  0.1343 -0.8390 -0.4499
15721TIP3    H168578   1.933   6.124  12.871 -0.6520  1.5184 -0.2514
15721TIP3    H268579   1.788   6.091  12.841 -0.5479  0.6707  0.1328
15722TIP3   OH268580   5.868   2.850   1.326  0.3117  0.2309  0.3923
15722TIP3    H168581   5.902   2.809   1.247 -1.0185  1.2001 -0.7272
15722TIP3    H268582   5.931   2.919   1.347  0.6431  0.0006  0.1593
15723TIP3   OH268583   0.453   1.060   2.067 -0.0352 -0.0830  0.6142
15723TIP3    H168584   0.374   1.046   2.015  0.1685  0.1217  0.2501
15723TIP3    H268585   0.508   0.985   2.047  0.2283  0.2200  0.1899
15724TIP3   OH268586   3.221   6.569   1.152 -0.4509  0.2118  0.0855
15724TIP3    H168587   3.243   6.478   1.134  0.5650  0.8920 -2.6645
15724TIP3    H268588   3.152   6.589   1.090  1.4003  2.0617 -1.5245
15725TIP3   OH268589   3.135   1.471   6.327  0.4874  0.0397 -0.0161
15725TIP3    H168590   3.187   1.542   6.364  0.0595 -0.5850  1.8581
15725TIP3    H268591   3.135   1.403   6.394  0.4462 -1.5517 -1.5374
15726TIP3   OH268592   0.987   6.490   4.440 -0.0724 -0.1525  0.1619
15726TIP3    H168593   0.922   6.475   4.508  1.0517 -0.0920  1.2712
15726TIP3    H268594   0.981   6.583   4.420  0.5861  0.1306  1.2296
15727TIP3   OH268595   5.879   2.315   6.174  0.7021 -0.5109  0.4600
15727TIP3    H168596   5.947   2.247   6.166  0.1269 -1.2089  1.3275
15727TIP3    H268597   5.838   2.298   6.259 -0.9152 -0.4321 -0.2758
15728TIP3   OH268598   2.369   6.182   5.582  0.3301 -0.1073  0.0523
15728TIP3    H168599   2.420   6.141   5.513  1.2380 -0.1846  0.7542
15728TIP3    H268600   2.327   6.109   5.628  0.3395 -0.1075  0.0608
15729TIP3   OH268601   3.411   2.871   3.410  0.8780 -0.5539 -0.0107
15729TIP3    H168602   3.394   2.952   3.362 -3.0204 -0.5117  1.1131
15729TIP3    H268603   3.408   2.897   3.502 -0.6143 -1.9375  0.3729
15730TIP3   OH268604   2.462   2.382  11.594  0.4423 -0.3907 -0.0577
15730TIP3    H168605   2.515   2.319  11.643 -0.4607  0.1985  1.7353
15730TIP3    H268606   2.453   2.342  11.507  4.4069 -0.1925 -0.7597
15731TIP3   OH268607   3.551   6.161  16.666  0.0088 -0.4329 -0.3096
15731TIP3    H168608   3.481   6.225  16.651  1.6111  1.5993  0.4735
15731TIP3    H268609   3.628   6.198  16.622  0.9375 -2.0175 -0.1277
15732TIP3   OH268610   1.868   3.272  14.733  0.5091  0.0091 -0.1012
15732TIP3    H168611   1.782   3.274  14.690  0.8736  0.7320 -0.8069
15732TIP3    H268612   1.867   3.190  14.783  0.0310 -0.8013 -1.3916
15733TIP3   OH268613   0.311   2.188   4.642  1.1498  0.2258  0.7358
15733TIP3    H168614   0.237   2.225   4.691  1.3972 -0.4931  1.6941
15733TIP3    H268615   0.379   2.255   4.647  1.4111 -0.1071  1.9922
15734TIP3   OH268616   2.992   4.078   6.113  0.1266 -0.0678  0.3784
15734TIP3    H168617   2.947   4.086   6.197  0.2378  0.6676  0.3773
15734TIP3    H268618   2.977   3.988   6.085 -1.8160  0.2955  0.1130
15735TIP3   OH268619   4.470   4.241   4.560 -0.3600 -0.3780  0.1970
15735TIP3    H168620   4.401   4.303   4.537 -1.0276 -1.4225 -0.7074
15735TIP3    H268621   4.524   4.289   4.623 -0.1178  1.5678 -1.3699
15736TIP3   OH268622   4.149   4.117   5.184  0.3680 -0.2812 -0.0626
15736TIP3    H168623   4.114   4.168   5.111  0.0776  0.6935  0.7202
15736TIP3    H268624   4.096   4.145   5.259  1.4625 -0.3374  0.7496
15737TIP3   OH268625   2.518   4.599  11.016  0.5105 -0.1289 -0.5233
15737TIP3    H168626   2.570   4.650  11.078  1.6479 -1.8917  0.0624
15737TIP3    H268627   2.570   4.600  10.935  1.4309 -1.7203  0.0016
15738TIP3   OH268628   5.918   4.455   5.241 -0.4821  0.2940 -0.5261
15738TIP3    H168629   5.916   4.436   5.335 -1.7893 -0.5621 -0.7016
15738TIP3    H268630   5.871   4.538   5.233 -0.4493  0.3213 -0.4418
15739TIP3   OH268631   5.226   3.775   4.360 -0.3634 -0.1793 -0.2464
15739TIP3    H168632   5.199   3.771   4.268 -0.8773 -0.4210 -0.0897
15739TIP3    H268633   5.304   3.720   4.364 -1.2294 -1.4381 -0.2398
15740TIP3   OH268634   1.584   2.351  15.279  0.0084  0.0089 -0.0076
15740TIP3    H168635   1.671   2.385  15.260 -0.1306 -0.3276 -1.3574
15740TIP3    H268636   1.528   2.393  15.214 -0.9367  0.5887  1.1364
15741TIP3   OH268637   5.094   1.294   5.167 -0.0603  0.0492  0.2656
15741TIP3    H168638   5.055   1.363   5.113  0.1614 -1.1690 -1.5410
15741TIP3    H268639   5.172   1.268   5.119  0.0087 -1.2686  1.0505
15742TIP3   OH268640   3.823   2.919   5.292  0.2488  0.5156  0.4916
15742TIP3    H168641   3.906   2.934   5.247  0.0215 -0.0686 -0.1361
15742TIP3    H268642   3.776   3.002   5.283 -0.0767  0.1982 -0.9766
15743TIP3   OH268643   6.321   3.145   3.203  0.3218 -0.0778 -0.5602
15743TIP3    H168644   6.230   3.153   3.175  0.0659  0.4914  0.3956
15743TIP3    H268645   6.359   3.231   3.185  0.2297  0.2051  0.5287
15744TIP3   OH268646   4.425   0.210   5.147  0.2180 -0.1008  0.0068
15744TIP3    H168647   4.514   0.212   5.114  0.2074  0.0682 -0.0108
15744TIP3    H268648   4.399   0.302   5.154  0.6123 -0.0721  1.5399
15745TIP3   OH268649   2.190   6.370  16.281 -0.2967  0.1689  0.1659
15745TIP3    H168650   2.275   6.364  16.326 -0.2695  1.2350  0.2852
15745TIP3    H268651   2.197   6.308  16.209  0.1140 -0.6831  0.9160
15746TIP3   OH268652   6.681   3.037  16.836  0.5662  0.3042  0.2393
15746TIP3    H168653   6.753   3.051  16.776  1.4017 -1.5709  0.7265
15746TIP3    H268654   6.619   2.983  16.788  1.1552 -1.0518  0.9432
15747TIP3   OH268655   1.355   0.653  15.700  0.2071 -0.2104  0.5562
15747TIP3    H168656   1.261   0.673  15.694  0.4081  0.5502 -0.3302
15747TIP3    H268657   1.370   0.591  15.629  0.8630  1.7406 -1.0978
15748TIP3   OH268658   1.115   6.359  16.236 -0.1566 -0.3750 -0.3174
15748TIP3    H168659   1.028   6.368  16.274 -0.0062  1.6947 -0.3068
15748TIP3    H268660   1.123   6.436  16.179  1.7500 -0.3677 -0.1000
15749TIP3   OH268661   3.373   2.794  17.375 -0.0445 -0.3418 -0.5467
15749TIP3    H168662   3.348   2.757  17.290 -0.8118  1.9841 -1.4099
15749TIP3    H268663   3.297   2.778  17.431  0.2095 -1.3184 -0.4656
15750TIP3   OH268664   0.040   5.149  15.901 -0.0726 -0.3189  0.0717
15750TIP3    H168665   0.105   5.208  15.864  0.9372 -0.4331  1.5732
15750TIP3    H268666  -0.040   5.200  15.904  0.5485  0.6651  0.4445
15751TIP3   OH268667   3.833   5.065  13.225 -0.9065 -0.0055 -0.1200
15751TIP3    H168668   3.847   5.096  13.314  0.5080 -1.0766  0.0555
15751TIP3    H268669   3.785   5.136  13.182 -1.2418  0.6951  1.3599
15752TIP3   OH268670   0.440   4.586   1.200  0.1953 -0.1412 -0.6030
15752TIP3    H168671   0.354   4.623   1.179  1.1653  1.6961 -1.6518
15752TIP3    H268672   0.423   4.523   1.270 -2.0813 -0.3624 -1.2602
15753TIP3   OH268673   4.667   4.102  17.115  0.3341 -0.0377  0.0548
15753TIP3    H168674   4.682   4.013  17.147  1.8080  0.6424  1.3417
15753TIP3    H268675   4.574   4.104  17.094  0.1478 -1.6985  0.5830
15754TIP3   OH268676   2.116   4.193  17.044 -0.0713  0.3910 -0.1863
15754TIP3    H168677   2.194   4.235  17.009  0.1583  0.8655  0.8358
15754TIP3    H268678   2.067   4.264  17.085 -0.1965 -0.1667  0.6606
15755TIP3   OH268679   1.073   0.224   6.107  0.3278 -0.1481 -0.0093
15755TIP3    H168680   0.984   0.226   6.143  0.9775 -0.8774  1.7501
15755TIP3    H268681   1.128   0.254   6.179  1.5236  0.2682 -1.0654
15756TIP3   OH268682   3.897   3.722  12.643  0.3458 -0.6617  1.1432
15756TIP3    H168683   3.959   3.772  12.696 -0.0287 -0.4829  1.4109
15756TIP3    H268684   3.853   3.665  12.705  0.5695 -1.1294  0.8800
15757TIP3   OH268685   1.619   0.521   5.461  0.7552  0.3176  0.4405
15757TIP3    H168686   1.613   0.604   5.413  0.4548 -0.2796 -0.6000
15757TIP3    H268687   1.528   0.492   5.470  0.9137 -0.3533 -0.0441
15758TIP3   OH268688   1.836   4.717  16.713  0.0714  0.1909 -0.0676
15758TIP3    H168689   1.885   4.636  16.703  0.9418  0.8154 -0.9679
15758TIP3    H268690   1.897   4.786  16.688 -0.3880  1.2097  1.4388
15759TIP3   OH268691   2.325   5.550  16.898 -0.4477 -0.0432  0.0212
15759TIP3    H168692   2.289   5.588  16.978  0.9532  3.9565 -0.9824
15759TIP3    H268693   2.258   5.565  16.832 -0.1921 -0.0444 -0.2422
15760TIP3   OH268694   0.739   5.399   3.149  0.0673  0.0240  0.4542
15760TIP3    H168695   0.690   5.325   3.185 -1.4181  0.1971 -1.0394
15760TIP3    H268696   0.725   5.470   3.212 -0.3876 -0.3526  0.7889
15761TIP3   OH268697   3.765   4.176  14.934  0.4132  0.2091  0.2014
15761TIP3    H168698   3.813   4.113  14.880  0.0123 -0.2170  0.3301
15761TIP3    H268699   3.784   4.261  14.895  0.8767 -0.0036 -0.0419
15762TIP3   OH268700   6.360   6.309   4.971 -0.0787 -0.4596 -0.3982
15762TIP3    H168701   6.442   6.354   4.948 -0.0166 -0.6201 -0.4910
15762TIP3    H268702   6.387   6.237   5.028 -0.2672  0.1360  0.4633
15763TIP3   OH268703   2.715   5.554  16.502  0.5200 -0.2852 -0.1424
15763TIP3    H168704   2.684   5.582  16.416  0.8108 -1.2004 -0.5586
15763TIP3    H268705   2.649   5.588  16.563  1.5634  2.4820 -0.4354
15764TIP3   OH268706   6.486   2.908  11.345  0.3720 -0.0298  0.5699
15764TIP3    H168707   6.437   2.941  11.270 -0.9570  1.1082  1.8648
15764TIP3    H268708   6.451   2.957  11.420  0.8758 -1.8552  2.0904
15765TIP3   OH268709   6.303   3.014   5.375 -0.0412  0.1411  0.1283
15765TIP3    H168710   6.313   3.060   5.291  2.0572 -0.7290 -0.1577
15765TIP3    H268711   6.264   2.930   5.351 -0.1083  0.1717  0.1287
15766TIP3   OH268712   2.597   0.379   4.394  0.2908  0.3472  0.1009
15766TIP3    H168713   2.599   0.472   4.413  0.4609  0.2399  0.6332
15766TIP3    H268714   2.546   0.372   4.313  2.7346  1.1739 -1.6332
15767TIP3   OH268715   3.011   3.360  17.162  0.3040  0.4729 -0.4486
15767TIP3    H168716   2.933   3.400  17.200  1.1556 -0.2480  2.3324
15767TIP3    H268717   2.984   3.273  17.135 -0.0163  0.4510 -0.0667
15768TIP3   OH268718   4.544   2.526  13.854 -0.7711 -0.5339  0.0641
15768TIP3    H168719   4.636   2.517  13.830 -0.6735  0.0172  0.2319
15768TIP3    H268720   4.508   2.588  13.791 -0.6427  0.4882  0.9687
15769TIP3   OH268721   5.070   5.096   1.935 -0.1603  0.1772  0.7868
15769TIP3    H168722   5.045   5.027   1.873 -1.2085  1.3088 -0.0900
15769TIP3    H268723   5.141   5.143   1.891 -1.3922  1.4357  0.0799
15770TIP3   OH268724   1.418   2.731  15.241  0.1810  0.6065 -0.2043
15770TIP3    H168725   1.458   2.670  15.179  0.2984  1.2782 -0.8120
15770TIP3    H268726   1.476   2.807  15.240  0.9729  0.0845  1.8239
15771TIP3   OH268727   3.191   5.446  15.548  0.1978  0.4473  0.0564
15771TIP3    H168728   3.170   5.528  15.502 -0.1919 -0.1066 -0.7725
15771TIP3    H268729   3.107   5.403  15.560  0.4475 -0.0491  0.0661
15772TIP3   OH268730   5.937   6.550   6.421 -0.2447  0.3141  0.1902
15772TIP3    H168731   5.851   6.533   6.458  0.9000 -0.0790  2.8961
15772TIP3    H268732   5.980   6.608   6.485  1.7498 -0.0932 -0.6921
15773TIP3   OH268733   6.069   1.385   2.273 -0.5885 -0.2464 -0.3051
15773TIP3    H168734   6.103   1.475   2.274  0.4285 -0.5891  2.1637
15773TIP3    H268735   6.146   1.331   2.253  0.0240 -0.8558  3.0942
15774TIP3   OH268736   4.706   0.608   2.679  0.3776  0.3184  0.7191
15774TIP3    H168737   4.800   0.624   2.672  0.5717 -0.5801  1.1190
15774TIP3    H268738   4.671   0.633   2.594  0.6480  2.6827  1.2508
15775TIP3   OH268739   1.667   2.087   4.268 -0.7595  0.0760  0.1675
15775TIP3    H168740   1.636   2.171   4.303 -2.9855 -0.4287 -0.4637
15775TIP3    H268741   1.693   2.037   4.345 -0.5253  0.9142  0.6475
15776TIP3   OH268742   5.014   3.385   2.574  0.2608 -0.4284 -0.0440
15776TIP3    H168743   4.919   3.374   2.588  0.5313  0.2250  3.1162
15776TIP3    H268744   5.039   3.309   2.521 -2.0982 -0.2347 -1.5973
15777TIP3   OH268745   0.611   5.291  12.400  0.3109 -0.7786 -0.1005
15777TIP3    H168746   0.584   5.264  12.487 -0.5354 -1.9083 -0.6882
15777TIP3    H268747   0.615   5.209  12.350 -0.1554 -0.0426 -1.3720
15778TIP3   OH268748   6.128   4.308  11.965 -0.6215 -0.1908 -0.1745
15778TIP3    H168749   6.165   4.266  12.043 -3.4266  1.1430  2.0564
15778TIP3    H268750   6.119   4.400  11.989 -1.7574  0.2175 -1.9944
15779TIP3   OH268751   5.601   3.660  14.455  0.0591 -0.2004  0.1566
15779TIP3    H168752   5.628   3.568  14.447  0.9356  0.0922 -0.3449
15779TIP3    H268753   5.524   3.667  14.398  1.5492 -0.0242 -1.9647
15780TIP3   OH268754   4.903   1.336  10.731  0.2684 -0.3591  0.6263
15780TIP3    H168755   4.851   1.258  10.711 -2.7798  1.7608 -0.5154
15780TIP3    H268756   4.860   1.374  10.807 -0.6716  2.0257 -0.9827
15781TIP3   OH268757   5.616   4.191   1.900  0.7086 -0.0987 -0.4423
15781TIP3    H168758   5.615   4.241   1.982 -2.8672  0.2095 -0.5154
15781TIP3    H268759   5.617   4.258   1.832 -0.9156 -0.1398 -0.5517
15782TIP3   OH268760   4.011   6.120  12.116  0.1943  0.3685  0.0519
15782TIP3    H168761   4.034   6.198  12.167 -0.1637  1.5981 -1.5840
15782TIP3    H268762   4.073   6.053  12.147  1.8706  1.8504  0.1197
15783TIP3   OH268763   5.804   0.048  14.309  0.0830 -0.0053  0.1297
15783TIP3    H168764   5.834   0.074  14.397 -1.4865 -1.2835  1.1157
15783TIP3    H268765   5.831   0.119  14.252  1.9808  0.4383  1.4825
15784TIP3   OH268766   5.713   3.038   5.531  0.5770 -0.2687  0.1419
15784TIP3    H168767   5.698   3.110   5.593  0.5419 -0.3034  0.1733
15784TIP3    H268768   5.756   3.079   5.456 -0.9959  0.0991 -0.5951
15785TIP3   OH268769   2.240   1.899   2.073  0.2110 -0.2296  0.2517
15785TIP3    H168770   2.179   1.901   2.147 -0.3357  0.9897 -0.1979
15785TIP3    H268771   2.303   1.830   2.095  1.2971  1.4218  2.8548
15786TIP3   OH268772   2.089   6.227  11.224 -0.2419  0.2976 -0.4718
15786TIP3    H168773   2.070   6.282  11.299 -0.2916 -1.5388  0.9466
15786TIP3    H268774   2.184   6.230  11.215 -0.2789  0.9447 -0.6922
15787TIP3   OH268775   1.415   2.805  16.242 -0.1254  0.4472  0.2921
15787TIP3    H168776   1.441   2.777  16.154  0.3590  0.9879  0.2602
15787TIP3    H268777   1.496   2.799  16.293 -0.9799 -2.8236  1.5103
15788TIP3   OH268778   3.028   6.043  10.778  0.4184  0.0242 -0.7083
15788TIP3    H168779   3.064   6.130  10.759  4.5587 -1.5735 -1.2658
15788TIP3    H268780   3.000   6.009  10.693  0.6624  0.0910 -0.8162
15789TIP3   OH268781   5.737   5.574   0.017 -0.1822 -0.6872 -0.1949
15789TIP3    H168782   5.826   5.540   0.010 -0.2999 -1.0384 -0.0110
15789TIP3    H268783   5.692   5.512   0.075 -0.7239 -0.8778 -0.8025
15790TIP3   OH268784   4.941   5.407   6.305 -0.2159  0.3655  0.1974
15790TIP3    H168785   5.000   5.483   6.297  0.5791 -0.2963 -0.4959
15790TIP3    H268786   4.942   5.368   6.218 -1.9113  0.4727  0.0958
15791TIP3   OH268787   0.934   3.905   4.781  0.4259 -0.1587 -0.3020
15791TIP3    H168788   0.921   3.867   4.695  2.0089 -0.8711 -0.2564
15791TIP3    H268789   0.979   3.988   4.765 -0.1494  0.1804 -0.2050
15792TIP3   OH268790   4.478   5.374  12.879 -0.3659  0.2070  0.4764
15792TIP3    H168791   4.557   5.393  12.828 -1.5240  3.4785 -0.3452
15792TIP3    H268792   4.505   5.387  12.970  0.7213 -1.7429  0.4889
15793TIP3   OH268793   4.565   0.255   2.685  0.3560  0.2863 -0.0661
15793TIP3    H168794   4.616   0.206   2.748  0.2765  1.1034  0.6508
15793TIP3    H268795   4.475   0.250   2.718  0.1152 -0.3339 -0.7954
15794TIP3   OH268796   3.670   2.753  13.217 -0.4013 -0.2761 -0.0056
15794TIP3    H168797   3.720   2.742  13.137 -0.4759 -0.8591  0.0285
15794TIP3    H268798   3.632   2.667  13.234  2.5025 -1.2116  2.6108
15795TIP3   OH268799   6.132   3.548  17.431 -0.0286 -0.4134 -0.2956
15795TIP3    H168800   6.217   3.579  17.398 -0.0059  0.6738  0.7118
15795TIP3    H268801   6.086   3.628  17.457 -0.4924 -1.1326  1.2102
15796TIP3   OH268802   6.156   4.252   2.100  0.4712 -0.2823  0.4545
15796TIP3    H168803   6.208   4.330   2.077  1.0605 -0.0884  2.3083
15796TIP3    H268804   6.074   4.263   2.051  2.1458 -0.6971 -2.7485
15797TIP3   OH268805   4.014   5.882   1.509  0.0112  0.8563 -0.1009
15797TIP3    H168806   3.988   5.928   1.429  0.4226  0.8182 -0.2637
15797TIP3    H268807   4.061   5.948   1.560  1.4501  0.3874 -0.7686
15798TIP3   OH268808   0.061   3.290  15.179 -0.2292  0.4879  0.0664
15798TIP3    H168809   0.055   3.249  15.266  0.1496 -1.0139 -0.5783
15798TIP3    H268810   0.154   3.286  15.157  0.0185  2.7866  0.4306
15799TIP3   OH268811   3.625   0.108  15.051 -0.2076  0.3039  0.2848
15799TIP3    H168812   3.701   0.164  15.035  1.0801 -1.5548 -0.5223
15799TIP3    H268813   3.594   0.083  14.964  0.2231 -1.4225  0.5790
15800TIP3   OH268814   4.790   1.823  11.821  0.4136  0.5224 -0.9189
15800TIP3    H168815   4.875   1.786  11.843 -0.0728 -0.4417 -0.6194
15800TIP3    H268816   4.751   1.846  11.905 -0.3209 -0.6471 -0.9145
15801TIP3   OH268817   2.971   2.454   4.825 -0.2231  0.1150  0.3370
15801TIP3    H168818   2.883   2.482   4.801 -0.1090  0.4701  0.3274
15801TIP3    H268819   3.024   2.534   4.822 -0.1993  0.1860  1.7176
15802TIP3   OH268820   4.153   5.007  14.015  0.1352 -0.2092 -0.3643
15802TIP3    H168821   4.223   5.064  14.048 -0.4679  0.7930 -0.7820
15802TIP3    H268822   4.199   4.938  13.967  0.8808 -0.1297  0.2173
15803TIP3   OH268823   2.796   6.166   1.437 -0.4500 -0.0062 -0.2753
15803TIP3    H168824   2.757   6.243   1.396 -0.5510  0.0966  0.0116
15803TIP3    H268825   2.783   6.095   1.373  2.4052  0.8333 -1.9788
15804TIP3   OH268826   2.737   6.277  11.443  0.3273  0.3236 -0.2427
15804TIP3    H168827   2.804   6.215  11.470 -0.1455  0.6368  1.8375
15804TIP3    H268828   2.775   6.363  11.462 -0.0558  0.5618 -0.5358
15805TIP3   OH268829   2.922   1.057   3.985 -0.2634 -0.3817  0.4261
15805TIP3    H168830   2.840   1.102   4.009  0.7356  1.8723 -0.0781
15805TIP3    H268831   2.989   1.105   4.034  0.8755 -1.4786 -0.0336
15806TIP3   OH268832   6.047   3.916  17.099 -0.1459  0.2025  0.3677
15806TIP3    H168833   6.109   3.872  17.040  0.2362  0.1545  0.8030
15806TIP3    H268834   5.976   3.853  17.110  1.1148 -1.0109  2.2387
15807TIP3   OH268835   1.273   0.755  16.929  0.1479 -0.1499 -0.0719
15807TIP3    H168836   1.331   0.740  17.004 -0.9183 -1.5001  0.5216
15807TIP3    H268837   1.272   0.851  16.918  1.4984 -0.0312  0.6680
15808TIP3   OH268838   5.285   3.136   0.915 -0.8570 -0.4363 -0.3256
15808TIP3    H168839   5.210   3.112   0.969 -0.4186  1.0071  0.9982
15808TIP3    H268840   5.297   3.229   0.930  0.0627 -0.2477 -1.9870
15809TIP3   OH268841   5.592   1.160  15.930 -0.3446  0.4207  0.1728
15809TIP3    H168842   5.564   1.104  16.002 -1.0769 -1.5460 -1.5261
15809TIP3    H268843   5.514   1.170  15.875  0.6637  0.1274 -1.3906
15810TIP3   OH268844   0.778   3.595  11.697  0.1648 -0.0234 -0.1273
15810TIP3    H168845   0.775   3.523  11.759  0.2906 -2.2779 -2.5789
15810TIP3    H268846   0.814   3.668  11.747  0.7704 -1.8482  2.2808
15811TIP3   OH268847   3.094   5.325   5.069  0.1270 -0.3129 -0.5712
15811TIP3    H168848   3.006   5.321   5.106  0.2101  0.2766 -0.2946
15811TIP3    H268849   3.126   5.412   5.092  0.9526 -0.6822 -0.2773
15812TIP3   OH268850   4.169   1.094  12.432  0.0842  0.3692  0.2416
15812TIP3    H168851   4.249   1.139  12.456 -0.1448  0.1642  1.4238
15812TIP3    H268852   4.162   1.022  12.495 -0.6800 -0.0187 -0.2702
15813TIP3   OH268853   5.981   2.216   3.951 -0.3007 -0.1051 -0.2197
15813TIP3    H168854   6.022   2.148   4.003  1.1169  2.3502  2.1048
15813TIP3    H268855   6.054   2.260   3.907 -0.8253  1.5797  0.5062
15814TIP3   OH268856   3.288   2.417   1.359 -0.3686  0.7007  0.4182
15814TIP3    H168857   3.344   2.348   1.394 -0.3719  0.5758  0.1816
15814TIP3    H268858   3.346   2.467   1.301 -0.6692  0.1408 -0.3874
15815TIP3   OH268859   4.609   4.034   2.876 -0.4699 -0.7234 -0.0995
15815TIP3    H168860   4.515   4.038   2.893 -0.0895  0.6225  2.0873
15815TIP3    H268861   4.637   3.952   2.917 -0.1057  0.9310  3.3666
15816TIP3   OH268862   1.273   3.461   1.149  0.4782 -0.0446  0.1355
15816TIP3    H168863   1.281   3.430   1.059  0.6427 -0.0872  0.1647
15816TIP3    H268864   1.223   3.392   1.193 -1.4244  0.9331 -0.4091
15817TIP3   OH268865   3.311   4.097   5.141 -0.3020  0.1065 -0.7779
15817TIP3    H168866   3.363   4.077   5.064  3.3542  1.7258  1.0302
15817TIP3    H268867   3.312   4.193   5.147 -0.6371  0.0299  1.1810
15818TIP3   OH268868   5.239   6.378  15.833  0.4555  0.3238 -0.3381
15818TIP3    H168869   5.146   6.382  15.813  0.7611  0.9880 -1.7457
15818TIP3    H268870   5.243   6.365  15.928 -1.0617 -1.0425 -0.4228
15819TIP3   OH268871   0.432   2.776  12.804 -0.3084  0.0527  0.2097
15819TIP3    H168872   0.460   2.694  12.844  2.4761  1.0101  0.4382
15819TIP3    H268873   0.403   2.752  12.716  2.6117 -1.0121 -0.5796
15820TIP3   OH268874   0.946   2.832   4.971  0.3513 -0.1050  0.3517
15820TIP3    H168875   0.889   2.822   5.048 -0.5835  2.2555  0.0700
15820TIP3    H268876   1.009   2.899   4.997  0.0375  0.7119 -0.8981
15821TIP3   OH268877   6.471   5.292  17.099  0.3331 -0.7735  0.1866
15821TIP3    H168878   6.387   5.334  17.115 -0.0909 -2.0744  1.6216
15821TIP3    H268879   6.495   5.319  17.010 -0.6324  1.1959  0.4773
15822TIP3   OH268880   0.514   2.038   5.151 -0.3868  0.4933  0.3112
15822TIP3    H168881   0.474   2.124   5.155 -0.7141  0.3021  1.8444
15822TIP3    H268882   0.586   2.041   5.215  0.8557  0.2270 -1.0246
15823TIP3   OH268883   0.611   4.122  13.452 -0.2514 -0.1726 -0.1663
15823TIP3    H168884   0.537   4.065  13.474 -0.5080 -0.0887 -0.7721
15823TIP3    H268885   0.648   4.147  13.536  1.3783 -3.1724  0.1496
15824TIP3   OH268886   4.078   5.756   4.568 -0.0240 -0.0171  0.1722
15824TIP3    H168887   4.023   5.742   4.645 -0.3011 -3.3559 -0.4614
15824TIP3    H268888   4.029   5.714   4.497  0.8873  1.7271 -1.5629
15825TIP3   OH268889   3.992   5.298  16.542  0.0127  0.6869 -0.4258
15825TIP3    H168890   3.902   5.330  16.556 -0.4176 -0.2549 -0.9273
15825TIP3    H268891   3.991   5.209  16.575  1.0626  1.0035  0.5022
15826TIP3   OH268892   3.865   2.400   3.991  0.0879  0.0260  0.3023
15826TIP3    H168893   3.779   2.373   4.025 -0.3586  2.7750  1.6178
15826TIP3    H268894   3.860   2.382   3.897 -0.9560 -2.1407  0.6955
15827TIP3   OH268895   1.537   6.722  15.900 -0.2393 -0.0507 -0.0758
15827TIP3    H168896   1.507   6.774  15.825  0.0961 -0.0294 -0.1990
15827TIP3    H268897   1.571   6.787  15.962 -2.9498  0.1803  1.2811
15828TIP3   OH268898   5.399   5.395   4.606 -0.0261  0.1191  0.5457
15828TIP3    H168899   5.443   5.381   4.690  1.3076  0.6937 -0.0340
15828TIP3    H268900   5.454   5.351   4.542  0.4759  1.9857 -0.3762
15829TIP3   OH268901   5.680   1.977   5.922  0.2931 -0.1398  0.0235
15829TIP3    H168902   5.643   1.921   5.990 -0.6861 -0.7320 -0.9605
15829TIP3    H268903   5.609   1.990   5.860  0.4978  2.1832  0.1794
15830TIP3   OH268904   3.377   3.028  15.784  0.4347  0.1325  0.1541
15830TIP3    H168905   3.462   3.061  15.812  0.6328  2.4012 -2.6492
15830TIP3    H268906   3.397   2.950  15.733  0.5301 -0.9475  1.7967
15831TIP3   OH268907   5.998   4.625  17.158 -0.2213  0.0900  0.4318
15831TIP3    H168908   5.938   4.627  17.233 -0.7107 -2.3089  0.1844
15831TIP3    H268909   6.083   4.601  17.196 -0.7286 -2.3625  0.1536
15832TIP3   OH268910   5.281   5.136   2.553 -0.5252 -0.3670 -0.0610
15832TIP3    H168911   5.346   5.162   2.488 -0.1162 -0.6361  0.2322
15832TIP3    H268912   5.286   5.204   2.620 -0.0677 -0.7312  0.2848
15833TIP3   OH268913   2.964   0.812  13.317  0.5054 -0.1013 -0.1406
15833TIP3    H168914   2.989   0.735  13.266  0.4270 -0.8549  0.9201
15833TIP3    H268915   2.923   0.776  13.395  1.6625  0.9709  1.0059
15834TIP3   OH268916   5.281   5.194   6.142  0.5692 -0.0163 -0.0338
15834TIP3    H168917   5.295   5.220   6.233 -0.1499  0.3835 -0.0316
15834TIP3    H268918   5.265   5.277   6.096 -2.8963 -0.4450  0.1655
15835TIP3   OH268919   3.181   3.105  15.128 -0.5517 -0.6608 -0.6667
15835TIP3    H168920   3.194   3.088  15.221 -0.7146 -2.6512 -0.9470
15835TIP3    H268921   3.174   3.200  15.121 -1.0791 -0.4966  1.4152
15836TIP3   OH268922   1.094   4.620   4.945  0.0848  0.6201  0.4107
15836TIP3    H168923   1.085   4.625   4.850  1.8052 -0.4708  0.1422
15836TIP3    H268924   1.007   4.640   4.979 -0.5265  1.1680 -1.3793
15837TIP3   OH268925   4.426   1.763   1.596 -0.1044  0.4655 -0.5003
15837TIP3    H168926   4.354   1.733   1.540  0.1781  0.8164 -1.0581
15837TIP3    H268927   4.413   1.716   1.678 -2.1185  1.9896  0.1229
15838TIP3   OH268928   1.452   1.170   3.911  0.2819  0.3908  0.6964
15838TIP3    H168929   1.451   1.075   3.902  1.8164  0.3311  0.8660
15838TIP3    H268930   1.371   1.199   3.870  1.0404 -0.8012 -1.8607
15839TIP3   OH268931   6.190   0.345  13.910 -0.1611 -0.3153  0.0378
15839TIP3    H168932   6.114   0.383  13.865  1.0444  2.7617  0.3193
15839TIP3    H268933   6.253   0.327  13.840  0.3873  1.1481  0.1205
15840TIP3   OH268934   3.268   0.455   6.244  0.1377 -0.0565 -0.2526
15840TIP3    H168935   3.193   0.513   6.226  1.5689  1.9083 -0.1962
15840TIP3    H268936   3.307   0.438   6.159 -0.0112 -0.5700 -0.2193
15841TIP3   OH268937   0.053   5.740  15.569 -0.1122  0.3903  0.1468
15841TIP3    H168938   0.016   5.682  15.503 -1.9556  1.6933 -0.0490
15841TIP3    H268939   0.145   5.749  15.543 -0.8598  1.2527 -2.6157
15842TIP3   OH268940   0.573   3.234  16.063  0.0346  0.3299  0.1060
15842TIP3    H168941   0.647   3.221  16.122 -0.9626  0.1583  1.3561
15842TIP3    H268942   0.603   3.198  15.979  0.6275 -1.7170  1.1176
15843TIP3   OH268943   3.272   1.016   1.184  0.1206 -0.0332 -0.1584
15843TIP3    H168944   3.353   1.065   1.169 -0.1206 -0.0050 -1.4562
15843TIP3    H268945   3.289   0.929   1.146 -0.3092 -0.1612 -0.0631
15844TIP3   OH268946   4.631   4.169   2.620 -0.4423 -0.5884 -0.4275
15844TIP3    H168947   4.538   4.181   2.640 -0.9670  0.5488 -3.1281
15844TIP3    H268948   4.671   4.147   2.705 -2.8531  0.6308  1.1488
15845TIP3   OH268949   1.820   6.452  13.792  0.3700 -0.4378  0.0341
15845TIP3    H168950   1.887   6.506  13.749  1.2345 -1.6571 -0.2121
15845TIP3    H268951   1.820   6.370  13.742 -0.9749 -0.6412  0.3360
15846TIP3   OH268952   2.569   4.034   1.700  0.1889 -0.3384 -0.0713
15846TIP3    H168953   2.476   4.024   1.683  0.3237  1.4167 -2.3578
15846TIP3    H268954   2.573   4.080   1.784 -1.0633  0.3176 -0.3420
15847TIP3   OH268955   0.214   2.157  14.604 -0.3003  0.3698 -0.3039
15847TIP3    H168956   0.228   2.081  14.660  0.7844  1.9651  1.7418
15847TIP3    H268957   0.282   2.151  14.537  0.3099 -0.0361  0.3348
15848TIP3   OH268958   1.253   5.104   0.797 -0.4299 -0.4436  0.1843
15848TIP3    H168959   1.213   5.152   0.725 -0.9898  0.8532  1.3081
15848TIP3    H268960   1.180   5.080   0.853  0.0395 -0.9966  0.5697
15849TIP3   OH268961   4.321   3.152  14.176 -0.4208  0.1836 -0.1288
15849TIP3    H168962   4.336   3.246  14.177  0.0408  0.1128  0.8512
15849TIP3    H268963   4.388   3.117  14.117 -1.2727  0.5620 -1.3439
15850TIP3   OH268964   0.087   6.277   4.614 -0.3069 -0.3839 -0.6339
15850TIP3    H168965   0.103   6.323   4.532 -0.1266  1.9085  0.5953
15850TIP3    H268966  -0.004   6.247   4.607 -0.8476  1.2227 -1.0557
15851TIP3   OH268967   5.697   6.192   5.097  0.1242  0.1034  0.2435
15851TIP3    H168968   5.624   6.203   5.036  0.1656  1.6484  0.4329
15851TIP3    H268969   5.766   6.250   5.063 -0.0980  1.5345  2.0788
15852TIP3   OH268970   1.589   2.218  12.731  0.0537 -0.3692 -0.0238
15852TIP3    H168971   1.541   2.300  12.740 -0.3092 -0.5422 -0.3544
15852TIP3    H268972   1.611   2.213  12.638  0.4770 -0.4239  0.0752
15853TIP3   OH268973   6.292   2.327   6.137  0.4400 -0.1500 -0.3810
15853TIP3    H168974   6.302   2.243   6.182  4.0404 -0.7713 -1.9544
15853TIP3    H268975   6.291   2.392   6.207 -2.3256 -1.3824  0.8701
15854TIP3   OH268976   6.666   5.964  16.509 -0.1504 -0.0305 -0.3624
15854TIP3    H168977   6.646   6.003  16.424 -2.3298 -2.2130 -0.9777
15854TIP3    H268978   6.591   5.908  16.528 -0.2067  1.1117  3.5232
15855TIP3   OH268979   0.019   3.500   0.000 -0.3834  0.0502 -0.0774
15855TIP3    H168980  -0.054   3.505   0.062 -0.9219 -2.9012 -0.3107
15855TIP3    H268981  -0.023   3.499  -0.086 -0.0849 -1.2004 -0.2327
15856TIP3   OH268982   0.949   0.531  13.992  0.4366  0.0216  0.1351
15856TIP3    H168983   1.038   0.510  13.963 -0.0783 -1.0182 -0.7411
15856TIP3    H268984   0.924   0.607  13.940  0.1789 -0.7519 -0.8907
15857TIP3   OH268985   3.688   5.045   5.104 -0.6286  0.1164 -0.0794
15857TIP3    H168986   3.614   5.102   5.085 -0.3736 -0.0386 -1.6366
15857TIP3    H268987   3.744   5.051   5.027  0.8341 -0.0154  0.9333
15858TIP3   OH268988   2.762   2.398  16.974  0.3874 -0.3417 -0.3633
15858TIP3    H168989   2.765   2.306  17.000 -0.5783 -0.4858 -0.7282
15858TIP3    H268990   2.805   2.400  16.888  0.1650 -0.4919 -0.4774
15859TIP3   OH268991   5.996   4.007  11.616 -0.1275 -0.2728  0.1838
15859TIP3    H168992   5.909   3.968  11.626 -0.2571  0.1582  0.8277
15859TIP3    H268993   6.040   3.987  11.699  0.5001 -0.7640 -0.2624
15860TIP3   OH268994   6.258   4.744   1.437 -0.2015 -0.5165  0.0094
15860TIP3    H168995   6.170   4.777   1.419  0.1051  0.2596 -0.1364
15860TIP3    H268996   6.300   4.814   1.488  0.7261 -0.3357 -0.9623
15861TIP3   OH268997   5.844   6.097  16.925 -0.4535 -0.6252 -0.6215
15861TIP3    H168998   5.856   6.061  16.837 -0.3260 -0.3353 -0.7246
15861TIP3    H268999   5.904   6.171  16.928  0.0688 -1.0642 -0.0411
15862TIP3   OH269000   5.991   6.191   4.196  0.2581  0.1701  0.1519
15862TIP3    H169001   5.903   6.174   4.230  0.3328 -0.4499  0.0459
15862TIP3    H269002   6.024   6.105   4.172 -0.2457  0.6329 -2.5886
15863TIP3   OH269003   3.495   0.672   2.014 -0.9209 -0.1755  0.2037
15863TIP3    H169004   3.518   0.590   2.058  0.0879  0.4332  0.8346
15863TIP3    H269005   3.432   0.714   2.073 -1.9507 -0.7648 -0.4278
15864TIP3   OH269006   4.457   6.492   3.075  0.2060 -0.2192  0.0130
15864TIP3    H169007   4.508   6.563   3.114  0.4255 -0.6766  0.5638
15864TIP3    H269008   4.520   6.421   3.063  0.4355  0.2719 -2.2488
15865TIP3   OH269009   1.861   5.577  13.139  0.3215  0.1406  0.1951
15865TIP3    H169010   1.796   5.525  13.186  0.3491 -0.1439 -0.0848
15865TIP3    H269011   1.813   5.620  13.069  0.7504 -1.5081 -1.1614
15866TIP3   OH269012   2.937   1.060   5.140 -0.3795  0.1701 -0.1209
15866TIP3    H169013   2.958   1.132   5.081  0.1343 -0.6499 -0.9601
15866TIP3    H269014   3.013   1.002   5.136 -0.8020 -0.4504  0.5077
15867TIP3   OH269015   1.468   1.765  17.302 -0.4440  0.5193  0.7154
15867TIP3    H169016   1.478   1.832  17.370 -0.5034 -1.0740  2.3383
15867TIP3    H269017   1.373   1.750  17.298 -0.4832  0.9337 -0.0713
15868TIP3   OH269018   0.189   3.905   4.581  0.3407  0.0249  0.1097
15868TIP3    H169019   0.260   3.911   4.644  0.1426  0.4173  0.3039
15868TIP3    H269020   0.207   3.975   4.518 -0.2465  0.6080  0.5604
15869TIP3   OH269021   6.629   2.893   4.657 -0.1996  0.5956  0.0722
15869TIP3    H169022   6.534   2.886   4.653 -0.2998  1.9120 -0.5896
15869TIP3    H269023   6.658   2.814   4.702 -1.6266  0.3202  0.5466
15870TIP3   OH269024   5.067   0.974   2.539 -0.4059  0.2382 -0.2564
15870TIP3    H169025   5.145   0.995   2.590  1.2219 -2.2204 -1.5355
15870TIP3    H269026   5.083   1.016   2.454 -0.4706 -0.2171 -0.4978
15871TIP3   OH269027   0.333   0.885  16.252  0.3254 -0.6586  0.2091
15871TIP3    H169028   0.252   0.906  16.206  0.9264  0.1282 -0.5360
15871TIP3    H269029   0.370   0.971  16.275  1.2175 -0.9830  0.0259
15872TIP3   OH269030   6.610   4.295   2.112 -0.0878  0.1756 -0.3773
15872TIP3    H169031   6.629   4.389   2.111  1.9568 -0.1849 -0.2532
15872TIP3    H269032   6.687   4.255   2.072 -0.6428 -1.4918  0.1497
15873TIP3   OH269033   1.884   5.461  12.424  0.6495  0.0820 -0.1430
15873TIP3    H169034   1.812   5.399  12.410  0.4318  0.3184 -0.0742
15873TIP3    H269035   1.896   5.504  12.339 -0.9795  1.8471  0.4388
15874TIP3   OH269036   1.656   2.367   0.068 -0.2500  0.7276  0.5549
15874TIP3    H169037   1.726   2.307   0.093  0.4574 -0.5428 -3.6751
15874TIP3    H269038   1.639   2.418   0.147  1.0793 -3.0528  3.6232
15875TIP3   OH269039   1.091   3.685  11.632 -0.2063  0.7223 -0.4215
15875TIP3    H169040   1.052   3.641  11.557  0.9287  0.7533 -1.0540
15875TIP3    H269041   1.108   3.774  11.602  3.8036 -0.1961 -1.5840
15876TIP3   OH269042   0.521   4.893  15.185  0.7234 -1.3994  0.1229
15876TIP3    H169043   0.446   4.834  15.189  0.2745 -0.8861 -0.5311
15876TIP3    H269044   0.547   4.892  15.093 -1.7869  2.4139 -0.8814
15877TIP3   OH269045   1.220   5.440   1.789  0.2267 -0.2282 -0.2119
15877TIP3    H169046   1.247   5.353   1.819  1.4603  0.5499  1.0705
15877TIP3    H269047   1.259   5.500   1.852 -4.8509  1.1330  2.1695
15878TIP3   OH269048   6.563   1.355   1.675 -0.3897 -0.1055  0.1782
15878TIP3    H169049   6.478   1.356   1.720 -1.2329  0.3275 -1.3725
15878TIP3    H269050   6.604   1.274   1.704 -0.7023  0.3316  2.0319
15879TIP3   OH269051   5.724   6.652   0.442 -0.2386 -0.3768  0.0960
15879TIP3    H169052   5.774   6.642   0.361 -0.3810  1.2692 -0.2276
15879TIP3    H269053   5.725   6.746   0.460 -1.1427 -0.5821  1.4179
15880TIP3   OH269054   0.078   5.544   2.184  0.2594 -0.0874  0.1287
15880TIP3    H169055   0.060   5.516   2.274 -0.7859  0.5137  0.1258
15880TIP3    H269056   0.166   5.582   2.189  0.5396 -0.7870  0.7184
15881TIP3   OH269057   4.315   1.329   0.210  0.2368 -0.6955 -0.7939
15881TIP3    H169058   4.227   1.319   0.174  0.0617 -0.3984 -0.4580
15881TIP3    H269059   4.313   1.413   0.256  0.8288 -0.4723 -1.1644
15882TIP3   OH269060   3.835   3.252  15.389  0.6019 -0.3831 -0.1577
15882TIP3    H169061   3.746   3.220  15.401  0.6477  0.0773  1.6715
15882TIP3    H269062   3.830   3.307  15.310 -0.3041 -1.7335 -1.0942
15883TIP3   OH269063   1.453   5.940  12.320  1.1283 -0.5557 -0.1009
15883TIP3    H169064   1.366   5.947  12.359  0.8590  1.7657 -0.9398
15883TIP3    H269065   1.511   5.986  12.381  1.1825  0.5942 -0.9631
15884TIP3   OH269066   2.871   0.038  15.416 -0.3604  0.2525  0.0227
15884TIP3    H169067   2.820  -0.026  15.367  0.8107 -0.0334 -0.8668
15884TIP3    H269068   2.820   0.119  15.412 -0.2966  0.2327 -1.6849
15885TIP3   OH269069   2.696   6.118   2.090  0.0446  0.2823 -0.1295
15885TIP3    H169070   2.626   6.132   2.026  0.8431 -0.8031 -1.2972
15885TIP3    H269071   2.775   6.109   2.036  1.1145  1.5720  1.1608
15886TIP3   OH269072   4.195   2.594   1.575  0.6207 -0.5412  0.4444
15886TIP3    H169073   4.278   2.636   1.555  0.9705 -0.9601  0.9938
15886TIP3    H269074   4.200   2.573   1.668  0.7498 -2.4291  0.0493
15887TIP3   OH269075   0.747   1.990  16.174 -0.3455 -0.2963  0.5873
15887TIP3    H169076   0.817   1.991  16.239 -1.4493  0.7537  1.8261
15887TIP3    H269077   0.697   2.069  16.193 -1.4769 -0.6828 -0.6975
15888TIP3   OH269078   1.097   3.995  13.067 -0.0176 -0.0360  0.0478
15888TIP3    H169079   1.048   4.070  13.102  0.9331 -0.0860  1.5929
15888TIP3    H269080   1.120   4.021  12.978  0.9715  1.8925  0.8068
15889TIP3   OH269081   5.503   0.091  11.070 -0.3565  0.0234 -0.3287
15889TIP3    H169082   5.566   0.148  11.025  1.3366 -2.2826 -1.0897
15889TIP3    H269083   5.430   0.082  11.009 -0.4407  0.9926 -0.3812
15890TIP3   OH269084   0.757   3.924  11.484  0.3308 -0.3264  0.0383
15890TIP3    H169085   0.821   3.944  11.552 -0.5860  0.8244  0.5961
15890TIP3    H269086   0.809   3.886  11.413  1.4472 -0.5894  0.9550
15891TIP3   OH269087   0.777   1.936  13.673  0.3826 -0.1577 -0.3320
15891TIP3    H169088   0.810   2.013  13.720 -0.2090  0.0678 -0.2706
15891TIP3    H269089   0.839   1.923  13.602  0.6188  0.2400 -0.2042
15892TIP3   OH269090   3.466   5.425   2.132 -0.0821 -0.6339  0.5817
15892TIP3    H169091   3.471   5.428   2.227 -0.5806  0.8556  0.5877
15892TIP3    H269092   3.546   5.468   2.102  0.3145 -1.5488  0.3210
15893TIP3   OH269093   1.381   4.664  15.521  0.0236 -0.7087 -0.6142
15893TIP3    H169094   1.296   4.710  15.522 -0.0143 -0.7663  1.3262
15893TIP3    H269095   1.415   4.674  15.609  2.0817 -0.6817 -1.3712
15894TIP3   OH269096   4.438   4.733   3.305 -0.0569  0.3013 -0.0655
15894TIP3    H169097   4.364   4.737   3.245  0.4491 -0.8639 -0.7912
15894TIP3    H269098   4.418   4.799   3.371 -1.5355  0.2988 -0.4700
15895TIP3   OH269099   3.378   6.246   1.092 -0.0412 -0.7459  0.2777
15895TIP3    H169100   3.320   6.224   1.019  0.0758  0.3071 -0.1440
15895TIP3    H269101   3.382   6.166   1.144 -1.9557 -0.8138  0.3743
15896TIP3   OH269102   6.677   6.068  17.320 -0.0276 -0.3803  0.0387
15896TIP3    H169103   6.607   6.006  17.299  1.0939 -2.3585  1.8628
15896TIP3    H269104   6.729   6.074  17.240 -0.4818 -1.3608 -0.3447
15897TIP3   OH269105   5.244   1.840   6.630 -0.3830  0.2047 -0.0440
15897TIP3    H169106   5.155   1.805   6.640  0.0241 -0.7524  0.4194
15897TIP3    H269107   5.285   1.782   6.566 -1.1487  2.7837 -3.1108
15898TIP3   OH269108   1.751   2.865   4.292 -0.6956  0.4530 -0.2176
15898TIP3    H169109   1.725   2.774   4.305 -0.7297  0.5936  0.7604
15898TIP3    H269110   1.809   2.863   4.216  0.4651 -0.6066  0.6552
15899TIP3   OH269111   2.452   3.089   0.036 -0.2465 -0.7087  0.5396
15899TIP3    H169112   2.441   3.114   0.128 -1.6494 -0.0745  0.2122
15899TIP3    H269113   2.457   3.172  -0.011  0.2171 -1.0352  0.0020
15900TIP3   OH269114   1.036   5.424  12.007 -0.1625  0.6699 -0.4412
15900TIP3    H169115   0.996   5.362  11.946 -0.1250 -1.8491  1.9217
15900TIP3    H269116   1.122   5.441  11.969  0.0858 -1.2663 -0.8872
15901TIP3   OH269117   1.682   5.098  11.500  0.1293 -0.4416  0.5388
15901TIP3    H169118   1.730   5.173  11.466  0.0382 -0.4795  0.3220
15901TIP3    H269119   1.614   5.082  11.435 -0.2063 -0.3571  0.8645
15902TIP3   OH269120   1.668   0.801   2.658  0.8820  0.1262 -0.0589
15902TIP3    H169121   1.698   0.728   2.604  1.1517 -0.2600  0.6062
15902TIP3    H269122   1.582   0.774   2.689  0.8233  0.2523 -0.1102
15903TIP3   OH269123   1.512   1.094   4.617  0.4322  0.3157 -0.1256
15903TIP3    H169124   1.564   1.026   4.574  0.8068  0.8313 -0.5041
15903TIP3    H269125   1.430   1.051   4.639  1.1649 -0.6294  0.8551
15904TIP3   OH269126   6.444   3.814   3.049 -0.6609 -0.5357 -0.3636
15904TIP3    H169127   6.492   3.732   3.037 -1.0214 -0.4716 -2.7481
15904TIP3    H269128   6.512   3.880   3.057 -0.3644 -0.8338 -0.3754
15905TIP3   OH269129   6.073   0.295   4.694 -0.3129 -0.2440 -0.0701
15905TIP3    H169130   6.017   0.347   4.636  0.4068  0.2462 -0.3367
15905TIP3    H269131   6.159   0.296   4.652 -0.0734 -0.9093  0.3851
15906TIP3   OH269132   2.526   4.054  12.007 -0.3086 -0.1924 -0.9757
15906TIP3    H169133   2.465   4.127  12.005 -0.3444 -0.2153 -0.7709
15906TIP3    H269134   2.610   4.092  11.981  0.4011  0.6437  2.1541
15907TIP3   OH269135   2.946   5.118   2.064  1.2139 -0.3168  0.0553
15907TIP3    H169136   3.003   5.046   2.036  1.5493 -0.6790  1.5955
15907TIP3    H269137   2.883   5.077   2.122  0.7081  0.4596  0.0629
15908TIP3   OH269138   4.063   2.492   0.368  0.0212 -0.3379 -0.2474
15908TIP3    H169139   4.024   2.567   0.322 -2.0001 -1.1936 -0.0131
15908TIP3    H269140   4.018   2.416   0.332  1.2493 -1.3640  0.3272
15909TIP3   OH269141   3.487   5.550  15.227  0.3124 -0.3217  0.1533
15909TIP3    H169142   3.475   5.635  15.185 -0.8588 -0.6263 -0.1681
15909TIP3    H269143   3.398   5.515  15.237  0.2774  0.4286  4.3875
15910TIP3   OH269144   6.581   6.440   3.479  0.1996 -0.4540  0.4615
15910TIP3    H169145   6.536   6.500   3.420  0.1916 -0.6110  0.3071
15910TIP3    H269146   6.521   6.366   3.488  0.8252 -1.0922 -0.4930
15911TIP3   OH269147   0.863   4.170  12.570 -0.1012 -0.5566 -0.3340
15911TIP3    H169148   0.834   4.163  12.661 -0.6351  0.5442 -0.3956
15911TIP3    H269149   0.787   4.205  12.524 -0.2277 -2.2101 -1.4457
15912TIP3   OH269150   0.693   4.784  16.902 -0.1834  0.2748 -0.5303
15912TIP3    H169151   0.778   4.789  16.946  0.9494 -0.3530 -2.5284
15912TIP3    H269152   0.656   4.701  16.932  0.0531  0.3677  0.0474
15913TIP3   OH269153   4.904   5.020  13.604  0.3617 -0.1746 -0.4059
15913TIP3    H169154   4.903   4.946  13.543  0.6665  0.8362 -1.6795
15913TIP3    H269155   4.994   5.025  13.635  0.4605 -0.0124 -0.7232
15914TIP3   OH269156   6.483   4.380  14.641  0.2419  0.4727  0.0971
15914TIP3    H169157   6.397   4.407  14.608  0.6505  1.3131 -0.3235
15914TIP3    H269158   6.470   4.371  14.736 -0.5479 -0.3984 -0.0852
15915TIP3   OH269159   5.219   1.179   4.394 -0.0136  1.2643 -0.3364
15915TIP3    H169160   5.146   1.239   4.413  0.0832  1.8402 -1.7128
15915TIP3    H269161   5.176   1.099   4.363 -0.1460  0.5478  1.5630
15916TIP3   OH269162   4.729   3.802   2.979  0.1284 -0.2553  0.3981
15916TIP3    H169163   4.805   3.775   3.030 -0.3301 -1.1838  0.6020
15916TIP3    H269164   4.655   3.794   3.039 -0.1697  0.4318  0.1375
15917TIP3   OH269165   2.144   1.237  14.466  0.5314  0.1535 -0.1097
15917TIP3    H169166   2.193   1.305  14.418  0.0035  1.1588  0.7233
15917TIP3    H269167   2.097   1.286  14.533  1.8325 -1.2775  1.9438
15918TIP3   OH269168   4.991   5.234   2.901 -0.0359 -0.1056  0.2041
15918TIP3    H169169   5.049   5.175   2.950 -0.4150 -0.1416  0.6101
15918TIP3    H269170   5.012   5.321   2.934  2.0604  0.3038 -1.8771
15919TIP3   OH269171   0.950   0.525   6.396 -0.4915 -0.2515  0.5206
15919TIP3    H169172   0.922   0.473   6.471 -2.8374 -0.0992 -0.1806
15919TIP3    H269173   0.986   0.461   6.335 -0.3049 -0.6085  0.9911
15920TIP3   OH269174   2.884   1.786  13.077  0.5652  0.1248 -0.4111
15920TIP3    H169175   2.880   1.697  13.112  1.8153  0.1167 -0.2506
15920TIP3    H269176   2.895   1.774  12.983 -0.7163  0.1385 -0.5852
15921TIP3   OH269177   5.580   4.491   2.395 -0.1489  0.1894  0.0423
15921TIP3    H169178   5.547   4.535   2.474 -0.8684  0.7260 -0.5435
15921TIP3    H269179   5.504   4.447   2.358  0.3514 -0.6990  0.0526
15922TIP3   OH269180   1.619   6.113  14.942 -0.1731  0.5240 -1.0670
15922TIP3    H169181   1.536   6.150  14.972 -0.4552  0.3077 -1.5800
15922TIP3    H269182   1.615   6.020  14.967  0.2961  0.7044 -0.2880
15923TIP3   OH269183   4.340   0.585   4.121 -0.2683 -0.9737 -0.6343
15923TIP3    H169184   4.277   0.519   4.151 -2.3473  0.6558 -1.1896
15923TIP3    H269185   4.340   0.575   4.026 -1.0649  0.1601 -0.7760
15924TIP3   OH269186   1.781   5.835   5.662  0.5702  0.1255  0.1464
15924TIP3    H169187   1.761   5.768   5.727  0.4990 -0.3484 -0.3490
15924TIP3    H269188   1.851   5.796   5.609 -0.3969 -0.1192 -0.9841
15925TIP3   OH269189   4.710   0.233   2.942 -0.2425  0.1800  0.1515
15925TIP3    H169190   4.672   0.156   2.985  0.7085 -0.0912  0.5282
15925TIP3    H269191   4.803   0.212   2.934 -0.0856  1.0366 -0.3064
15926TIP3   OH269192   5.585   2.660   2.392  0.0636 -0.2853  0.0400
15926TIP3    H169193   5.568   2.606   2.315  1.9219 -1.7471  0.5837
15926TIP3    H269194   5.607   2.597   2.461  0.0050  1.0696  1.3377
15927TIP3   OH269195   1.016   4.727  16.662  0.2222  0.2139  0.1268
15927TIP3    H169196   0.949   4.693  16.604  0.2524  0.4569 -0.0507
15927TIP3    H269197   1.099   4.708  16.617  0.2340  0.6277 -0.0329
15928TIP3   OH269198   4.805   1.514   4.781 -0.4206 -0.2339  0.8319
15928TIP3    H169199   4.733   1.576   4.793 -2.4099 -2.2703  0.3278
15928TIP3    H269200   4.866   1.558   4.722 -2.4716  0.7332 -0.7015
15929TIP3   OH269201   6.479   6.173   0.086 -0.0434 -0.7440  0.1525
15929TIP3    H169202   6.406   6.193   0.027 -1.3829 -1.8936  1.3244
15929TIP3    H269203   6.452   6.211   0.170  0.8345 -0.9693  0.5414
15930TIP3   OH269204   2.684   3.684   3.350 -0.0047 -0.2401 -0.4217
15930TIP3    H169205   2.729   3.766   3.328  0.8701 -0.1799  1.4385
15930TIP3    H269206   2.665   3.644   3.265  1.1674  1.0340 -1.3270
15931TIP3   OH269207   1.941   4.062  15.929  0.1674  0.8736 -0.6160
15931TIP3    H169208   1.869   4.095  15.875 -1.3731 -0.7702  0.3246
15931TIP3    H269209   1.946   3.969  15.907  0.8405  0.6035  0.6120
15932TIP3   OH269210   4.439   0.790  13.052  0.2752 -0.0148  0.2455
15932TIP3    H169211   4.506   0.805  12.985  0.1698  0.6727  0.2793
15932TIP3    H269212   4.447   0.866  13.110  0.0142 -0.3407  0.7138
15933TIP3   OH269213   1.286   4.084   0.067  0.1061  0.2300 -0.5006
15933TIP3    H169214   1.265   4.087   0.160 -1.1780 -0.5049 -0.7483
15933TIP3    H269215   1.247   4.003   0.036  2.3837 -0.6669 -1.2715
15934TIP3   OH269216   2.055   1.080   5.025 -0.1441 -0.7059  0.1061
15934TIP3    H169217   2.085   1.035   5.104 -0.0761  0.4209  0.7450
15934TIP3    H269218   1.982   1.135   5.055  1.1778  1.3019 -0.1451
15935TIP3   OH269219   6.523   4.633  14.113 -0.3099 -0.5424 -0.2177
15935TIP3    H169220   6.554   4.563  14.056  0.8710  0.9211 -1.4721
15935TIP3    H269221   6.513   4.592  14.199  0.6055 -2.1610 -0.8403
15936TIP3   OH269222   6.046   6.679  14.031 -0.1919 -0.1008 -0.5668
15936TIP3    H169223   5.992   6.716  13.962 -0.2042  0.7165 -0.1258
15936TIP3    H269224   6.077   6.754  14.081  0.1714 -0.6513  0.0600
15937TIP3   OH269225   6.559   6.140  12.135  0.0658  0.6454 -0.1611
15937TIP3    H169226   6.485   6.160  12.191  0.2331  0.1724  0.2456
15937TIP3    H269227   6.572   6.045  12.146 -1.1781  0.1092 -2.5768
15938TIP3   OH269228   4.159   1.509   3.430 -0.1396 -0.0137 -0.1499
15938TIP3    H169229   4.089   1.496   3.494  1.4984 -0.2010  1.6563
15938TIP3    H269230   4.175   1.421   3.395 -0.3127 -0.0832 -0.0596
15939TIP3   OH269231   5.405   2.081   1.715  0.7482 -0.6624  0.6018
15939TIP3    H169232   5.480   2.021   1.725  0.5130 -1.2719 -1.0420
15939TIP3    H269233   5.329   2.023   1.708  0.2876 -0.0908  0.7746
15940TIP3   OH269234   2.246   5.946   5.700  0.5477 -0.0207  0.3691
15940TIP3    H169235   2.231   5.852   5.700 -2.1921  0.3218  2.4504
15940TIP3    H269236   2.173   5.982   5.649  0.6792  1.0642  0.9233
15941TIP3   OH269237   5.096   3.036   1.736 -0.5628  0.8020  0.3111
15941TIP3    H169238   5.105   3.115   1.682  1.8825  1.4253  1.4853
15941TIP3    H269239   5.087   3.069   1.825  0.8657 -0.2118  0.8631
15942TIP3   OH269240   6.581   1.020   2.539  0.3667  0.1566 -0.0586
15942TIP3    H169241   6.638   0.999   2.465  0.4214 -0.6653  0.2065
15942TIP3    H269242   6.634   1.001   2.617 -0.6575 -1.8196  0.2064
15943TIP3   OH269243   5.733   3.881  11.982  0.0253 -0.0295 -0.3340
15943TIP3    H169244   5.665   3.847  12.040 -0.3561 -1.3298 -1.5065
15943TIP3    H269245   5.732   3.823  11.906  1.3032  0.9373 -1.1372
15944TIP3   OH269246   3.394   3.759  13.303 -0.0237  0.1877 -0.1654
15944TIP3    H169247   3.405   3.668  13.330 -2.2423  0.2773  1.3544
15944TIP3    H269248   3.397   3.809  13.385 -0.0170  1.3366 -0.8440
15945TIP3   OH269249   1.419   3.281  15.369 -0.8143  0.4473 -0.1551
15945TIP3    H169250   1.331   3.264  15.401 -1.0727  0.0548 -1.0464
15945TIP3    H269251   1.407   3.317  15.282 -0.0964  0.4612 -0.2587
15946TIP3   OH269252   5.237   6.353  11.293 -0.4527  0.0048 -0.2468
15946TIP3    H169253   5.257   6.437  11.334  1.6423 -0.8102  0.5615
15946TIP3    H269254   5.297   6.347  11.219 -0.7041 -0.6960 -0.4031
15947TIP3   OH269255   6.731   0.452  12.669 -0.3060 -0.0785 -0.6651
15947TIP3    H169256   6.674   0.376  12.678 -0.7862  0.3159 -0.2811
15947TIP3    H269257   6.793   0.444  12.742  0.6690 -0.9468 -1.5696
15948TIP3   OH269258   2.904   0.679   5.795 -0.2350 -0.1023 -0.1703
15948TIP3    H169259   2.880   0.767   5.767 -1.2664 -0.1356  0.5589
15948TIP3    H269260   2.891   0.679   5.890 -0.3510 -1.0767 -0.1705
15949TIP3   OH269261   3.070   3.554   5.692  0.5644 -0.0271  0.6516
15949TIP3    H169262   2.995   3.498   5.672 -0.1792  0.5331  1.7468
15949TIP3    H269263   3.111   3.571   5.608  0.0223 -1.1321  0.1457
15950TIP3   OH269264   0.269   4.409   3.976 -0.2232 -0.0802 -0.3909
15950TIP3    H169265   0.335   4.452   4.030 -0.3083 -1.1095  0.5902
15950TIP3    H269266   0.197   4.391   4.037  1.0516 -4.4611  0.2186
15951TIP3   OH269267   5.615   1.808   2.003 -0.0097  0.2797 -0.1933
15951TIP3    H169268   5.700   1.792   1.962  0.0969 -1.6698  0.6630
15951TIP3    H269269   5.559   1.840   1.932  0.7984 -0.7566 -1.3303
15952TIP3   OH269270   2.128   3.488   6.857 -0.5380  0.5140  0.1662
15952TIP3    H169271   2.060   3.454   6.800 -0.1672 -1.1188  0.6506
15952TIP3    H269272   2.082   3.511   6.938 -0.3993 -1.7404  0.9498
15953TIP3   OH269273   5.574   1.257   5.445 -0.0059  0.0412 -0.1633
15953TIP3    H169274   5.600   1.323   5.380  0.8578  0.9232  1.0088
15953TIP3    H269275   5.501   1.298   5.492  0.9622  0.4934  1.0060
15954TIP3   OH269276   1.038   5.814  16.208 -0.0090  0.2745  0.0244
15954TIP3    H169277   1.098   5.806  16.281  0.6773  2.5782 -0.2136
15954TIP3    H269278   0.953   5.830  16.248  0.2453  0.8359  0.3549
15955TIP3   OH269279   6.638   0.062  11.245  0.0602  0.0204  0.3608
15955TIP3    H169280   6.555   0.028  11.281  0.4451 -0.5040  0.7780
15955TIP3    H269281   6.622   0.155  11.231  0.4056  0.7220  3.6272
15956TIP3   OH269282   0.828   2.258  17.157  0.4969  0.1297 -0.2892
15956TIP3    H169283   0.788   2.296  17.236 -0.7397 -1.4771 -0.0850
15956TIP3    H269284   0.834   2.330  17.095  1.1696  1.3540  1.1329
15957TIP3   OH269285   3.711   5.923   4.241 -0.2014 -0.1779  0.3292
15957TIP3    H169286   3.728   6.002   4.191 -0.5759 -0.6124 -0.4913
15957TIP3    H269287   3.697   5.855   4.176  1.8738 -1.3259  0.9836
15958TIP3   OH269288   4.206   4.885  13.001 -0.3997 -0.3125  0.2047
15958TIP3    H169289   4.252   4.833  12.935  0.6489 -0.5552  1.0972
15958TIP3    H269290   4.185   4.823  13.070  0.6914  0.3629  1.1945
15959TIP3   OH269291   1.871   5.295   5.853  0.2050  0.2893  0.5639
15959TIP3    H169292   1.843   5.356   5.922  1.3010  0.4670  0.8644
15959TIP3    H269293   1.965   5.308   5.846  0.1736 -0.0349 -0.6888
15960TIP3   OH269294   0.046   4.854  13.824 -0.7405  0.1743  0.2196
15960TIP3    H169295   0.087   4.883  13.742 -0.9103  0.2913  0.1749
15960TIP3    H269296   0.103   4.784  13.856 -0.6528  0.1543  0.0210
15961TIP3   OH269297   4.851   1.024   3.738 -0.5704 -0.2634 -0.0383
15961TIP3    H169298   4.782   0.977   3.783 -0.5575 -1.9082 -1.6037
15961TIP3    H269299   4.872   0.969   3.662  1.4432  0.8983 -0.4044
15962TIP3   OH269300   4.192   3.383   6.113  0.0932  0.5148  0.0042
15962TIP3    H169301   4.155   3.299   6.141  0.3240  0.9408  1.7593
15962TIP3    H269302   4.132   3.448   6.149  0.0868  1.1181 -1.0670
15963TIP3   OH269303   4.099   4.592  12.703 -0.4980 -0.3824 -0.0454
15963TIP3    H169304   4.045   4.654  12.653 -0.4206 -1.1829 -1.1440
15963TIP3    H269305   4.036   4.546  12.758 -0.5551  0.6685  0.8021
15964TIP3   OH269306   1.461   4.924  17.206  0.0493  0.1960 -0.1789
15964TIP3    H169307   1.523   4.904  17.276 -1.0020 -0.8128  0.5184
15964TIP3    H269308   1.435   4.838  17.172 -0.3312  0.6283 -1.0198
15965TIP3   OH269309   4.419   3.630  13.741  0.0852 -0.5460  0.0417
15965TIP3    H169310   4.464   3.553  13.777  1.0310  1.4422  3.5464
15965TIP3    H269311   4.332   3.626  13.780  0.5701  0.7654  1.3456
15966TIP3   OH269312   2.432   2.314  15.477 -0.0813 -0.6313  0.2972
15966TIP3    H169313   2.406   2.374  15.547 -1.9927 -2.5265  1.3457
15966TIP3    H269314   2.481   2.245  15.522 -0.4641 -1.3492 -0.3524
15967TIP3   OH269315   2.965   1.729   0.025  0.2348 -0.5931 -0.0911
15967TIP3    H169316   3.008   1.725  -0.060  1.0298  0.3679  0.2571
15967TIP3    H269317   2.872   1.744   0.004  0.4903  0.0808 -0.7831
15968TIP3   OH269318   4.216   3.735  16.226  0.5606 -0.0594  0.5760
15968TIP3    H169319   4.279   3.806  16.214  0.0574 -0.0092 -2.5339
15968TIP3    H269320   4.164   3.735  16.146 -2.7855 -0.7622  2.5534
15969TIP3   OH269321   2.727   2.947   4.557  0.2381 -0.1306 -0.6598
15969TIP3    H169322   2.743   2.911   4.644 -0.4959 -0.1524 -0.5251
15969TIP3    H269323   2.704   3.039   4.574 -1.4093 -0.5109 -0.6798
15970TIP3   OH269324   1.637   4.572  12.915 -0.2962  0.3088 -0.0176
15970TIP3    H169325   1.692   4.550  12.840  0.4166 -2.0720  1.0879
15970TIP3    H269326   1.680   4.529  12.990 -2.1058  0.7915  1.3862
15971TIP3   OH269327   3.052   1.841   5.130 -0.9481  0.4720  0.1511
15971TIP3    H169328   2.976   1.787   5.150 -0.5641 -0.1706 -0.0929
15971TIP3    H269329   3.089   1.801   5.052 -0.6773  1.1157 -0.0525
15972TIP3   OH269330   4.158   4.294   2.060  0.0862 -0.2221  0.3858
15972TIP3    H169331   4.093   4.315   2.127  0.8146  0.2256  0.9722
15972TIP3    H269332   4.108   4.254   1.989 -0.5473 -2.1594  1.8297
15973TIP3   OH269333   2.357   1.014  13.439  0.4714  0.0001 -0.6400
15973TIP3    H169334   2.441   1.009  13.485  1.2455  2.5364 -1.5907
15973TIP3    H269335   2.324   0.925  13.440  2.5602 -0.8509  0.8946
15974TIP3   OH269336   5.901   5.459   0.991 -0.2231  0.3115 -0.0700
15974TIP3    H169337   5.986   5.461   1.033 -0.5097 -0.1364  0.5363
15974TIP3    H269338   5.887   5.367   0.969 -0.5107  0.3964 -0.2476
15975TIP3   OH269339   0.140   6.249   0.564  0.0022 -0.4220 -0.1457
15975TIP3    H169340   0.046   6.241   0.579 -0.2264  2.0340  0.0489
15975TIP3    H269341   0.149   6.309   0.491  1.4438 -2.4310 -1.7631
15976TIP3   OH269342   5.737   2.892  15.574 -0.0840 -0.2298  0.0622
15976TIP3    H169343   5.672   2.916  15.639 -1.3560  1.0119 -1.5901
15976TIP3    H269344   5.711   2.804  15.546  0.6782 -0.9166  1.4260
15977TIP3   OH269345   4.306   6.713   4.133  0.3307  0.2545  0.1054
15977TIP3    H169346   4.384   6.690   4.082 -0.2002 -0.6842 -0.3109
15977TIP3    H269347   4.314   6.661   4.214 -0.2289 -0.4448 -0.2731
15978TIP3   OH269348   4.362   2.964   3.399 -0.1439  0.3654  0.3507
15978TIP3    H169349   4.400   2.880   3.425  0.9695  0.6815 -0.1958
15978TIP3    H269350   4.353   2.957   3.303 -0.3174  0.7624  0.3371
15979TIP3   OH269351   5.193   4.134  13.718 -0.1322 -0.4480 -0.0407
15979TIP3    H169352   5.233   4.174  13.795 -1.5576  1.4238 -0.2128
15979TIP3    H269353   5.150   4.055  13.751  1.8117 -1.3528  0.4937
15980TIP3   OH269354   0.423   3.268   1.119 -0.4296 -0.4191  0.0592
15980TIP3    H169355   0.374   3.322   1.182 -0.6607  1.1133 -1.3504
15980TIP3    H269356   0.365   3.263   1.043  1.4251  1.2239 -1.5631
15981TIP3   OH269357   6.572   5.886   5.953  0.1083  0.2801 -0.0575
15981TIP3    H169358   6.519   5.963   5.933 -0.4092 -0.0450  0.0485
15981TIP3    H269359   6.510   5.823   5.988  0.3850 -0.4822 -0.9052
15982TIP3   OH269360   1.038   5.912  16.941 -0.3254 -0.6415  0.5861
15982TIP3    H169361   1.065   5.971  17.011 -0.7764 -0.0532  0.2784
15982TIP3    H269362   0.942   5.910  16.946 -0.3962 -0.1939 -0.3133
15983TIP3   OH269363   0.187   4.344   0.964 -0.4111  0.5532  0.7108
15983TIP3    H169364   0.201   4.251   0.979 -2.3032  0.3176  1.2657
15983TIP3    H269365   0.182   4.382   1.052  0.8773  1.2955  0.4900
15984TIP3   OH269366   0.494   6.446   4.604  0.0622 -0.0859 -0.5285
15984TIP3    H169367   0.461   6.356   4.608  2.1370 -0.9578 -1.5813
15984TIP3    H269368   0.579   6.443   4.648 -0.4976  1.7376  0.7705
15985TIP3   OH269369   5.466   5.983  12.296 -0.1002  0.0412 -0.8901
15985TIP3    H169370   5.374   5.957  12.295  0.6721 -3.0366 -1.0247
15985TIP3    H269371   5.480   6.025  12.212 -1.3435  0.5255 -0.8789
15986TIP3   OH269372   4.353   1.198   4.376 -0.3708  0.8232 -0.2697
15986TIP3    H169373   4.394   1.197   4.290  1.1018  0.7680  0.4141
15986TIP3    H269374   4.315   1.285   4.385  0.2734  1.1342 -0.5971
15987TIP3   OH269375   4.189   4.108  11.537 -0.2486 -0.5153 -0.4754
15987TIP3    H169376   4.152   4.104  11.449 -0.6924 -0.7753 -0.2769
15987TIP3    H269377   4.150   4.034  11.583  2.3255 -2.3020 -0.9352
15988TIP3   OH269378   2.116   2.226   3.628  0.1958  0.3904 -0.6853
15988TIP3    H169379   2.083   2.173   3.556  0.3409 -0.1737 -0.3396
15988TIP3    H269380   2.050   2.219   3.697  1.0017 -0.7242 -0.0014
15989TIP3   OH269381   1.753   3.740  15.391  0.1635 -0.0510 -0.1152
15989TIP3    H169382   1.764   3.826  15.351  0.7677  0.0533  0.2651
15989TIP3    H269383   1.758   3.679  15.318 -0.1744  0.2258 -0.3778
15990TIP3   OH269384   3.793   4.827  16.649 -0.2992  0.2691  0.1721
15990TIP3    H169385   3.837   4.767  16.709 -0.3003  0.8609  0.7815
15990TIP3    H269386   3.709   4.846  16.691 -0.2298  0.8250  0.0624
15991TIP3   OH269387   0.637   3.194  12.399 -0.4168  0.4819  0.0919
15991TIP3    H169388   0.594   3.171  12.316 -0.8022  0.1098  0.3847
15991TIP3    H269389   0.570   3.177  12.465  0.2022 -0.1522  0.5668
15992TIP3   OH269390   2.960   1.307   1.795  0.0066 -0.4195  0.1359
15992TIP3    H169391   3.010   1.242   1.845  0.0057 -0.5890 -0.0815
15992TIP3    H269392   2.880   1.321   1.846 -0.6372 -1.6159 -0.4971
15993TIP3   OH269393   0.987   4.046   4.533  0.2690 -0.3319  0.1289
15993TIP3    H169394   1.025   4.111   4.593  0.3952 -0.4906  0.2220
15993TIP3    H269395   1.005   4.081   4.446  1.0752 -0.6407  0.1544
15994TIP3   OH269396   5.618   4.876   1.625 -0.7062  0.1795 -0.6450
15994TIP3    H169397   5.603   4.796   1.676  0.0473  0.1156 -0.5146
15994TIP3    H269398   5.572   4.861   1.542 -1.4767  0.0581 -0.2081
15995TIP3   OH269399   5.817   4.222  13.883 -0.3451 -0.6077 -0.6130
15995TIP3    H169400   5.878   4.186  13.820  1.2257 -1.8876  1.5014
15995TIP3    H269401   5.731   4.212  13.842  0.5224 -2.2023 -2.1412
15996TIP3   OH269402   2.776   2.979   2.950 -0.3898 -0.1689  0.6923
15996TIP3    H169403   2.838   3.015   3.014  0.5519  0.0960 -0.3503
15996TIP3    H269404   2.703   3.042   2.950 -1.5548 -1.3528  3.1819
15997TIP3   OH269405   1.492   2.909   4.014 -0.1656  0.0477  0.0358
15997TIP3    H169406   1.401   2.937   4.028 -0.4398  0.1192 -1.6906
15997TIP3    H269407   1.485   2.820   3.980  0.5503 -0.8074  1.9585
15998TIP3   OH269408   0.567   0.562  12.041 -0.2268 -0.0568  0.3646
15998TIP3    H169409   0.483   0.584  12.002 -0.4184 -0.4752  0.5366
15998TIP3    H269410   0.556   0.473  12.074 -0.3075  0.5356  2.0479
15999TIP3   OH269411   4.977   2.126  13.965  0.3816  0.6976  0.0078
15999TIP3    H169412   5.014   2.195  13.909 -0.8508  1.7003  0.3861
15999TIP3    H269413   4.974   2.165  14.052  0.3100 -0.1045  0.3732
16000TIP3   OH269414   1.650   3.949   4.071  0.2718  0.5789 -0.2129
16000TIP3    H169415   1.669   3.856   4.059  0.3296  0.5562  0.0586
16000TIP3    H269416   1.735   3.992   4.066  0.6424  0.3281  2.5040
16001TIP3   OH269417   1.986   6.346  13.418  0.1523 -0.4471 -0.3423
16001TIP3    H169418   2.061   6.395  13.385  1.2510 -1.7748  0.0616
16001TIP3    H269419   1.931   6.332  13.342  0.2678  0.6210 -0.6330
16002TIP3   OH269420   5.793   2.415   3.957  0.9284  0.1029  0.0750
16002TIP3    H169421   5.834   2.342   4.003  0.5290 -0.3348 -0.2565
16002TIP3    H269422   5.866   2.473   3.935  1.7253 -1.6429 -2.3040
16003TIP3   OH269423   1.604   0.029   0.868  0.2308  0.0070 -0.2291
16003TIP3    H169424   1.670   0.085   0.909  0.9985 -0.8326 -0.2922
16003TIP3    H269425   1.597  -0.046   0.928 -1.8427  0.8046  0.6293
16004TIP3   OH269426   4.947   1.624  14.712 -1.0960  0.5154 -0.5440
16004TIP3    H169427   4.851   1.626  14.721 -1.2075  3.9154 -1.1578
16004TIP3    H269428   4.980   1.625  14.802 -1.5938 -0.5903 -0.3296
16005TIP3   OH269429   4.806   4.914  15.601  0.1036 -0.4607  0.0654
16005TIP3    H169430   4.799   4.934  15.694 -1.7419  0.3350 -0.1962
16005TIP3    H269431   4.731   4.857  15.583 -1.0025  1.3523 -1.3807
16006TIP3   OH269432   3.095   3.577  13.210 -0.0248 -0.1117  0.1453
16006TIP3    H169433   3.181   3.537  13.224 -0.3216 -0.8716 -0.1167
16006TIP3    H269434   3.052   3.519  13.146 -1.1365 -0.3472  1.0770
16007TIP3   OH269435   5.522   2.386   0.462  0.0824  0.2299  0.2885
16007TIP3    H169436   5.458   2.443   0.504  1.5128  0.6321  2.0224
16007TIP3    H269437   5.469   2.322   0.414 -1.5726  1.6906  0.0598
16008TIP3   OH269438   6.339   2.548  13.387  0.0084  0.2811 -0.3976
16008TIP3    H169439   6.361   2.583  13.474  1.5490 -3.8379  1.0739
16008TIP3    H269440   6.243   2.542  13.388  0.0387 -2.3619  2.3754
16009TIP3   OH269441   1.547   4.641   4.815  0.2533  0.1102  0.1494
16009TIP3    H169442   1.483   4.684   4.872 -0.4728 -1.8548  0.8783
16009TIP3    H269443   1.613   4.607   4.875  0.4112 -0.4631 -0.3455
16010TIP3   OH269444   0.255   3.535   3.327 -0.1837  0.3499 -0.4319
16010TIP3    H169445   0.281   3.518   3.237  0.6952 -1.5705  0.1450
16010TIP3    H269446   0.179   3.478   3.341 -1.6322  2.1395 -0.5247
16011TIP3   OH269447   3.040   0.594   6.234 -0.2737  0.0546 -0.1931
16011TIP3    H169448   2.973   0.655   6.203 -1.1537 -1.6772 -1.9711
16011TIP3    H269449   2.998   0.549   6.308 -0.4382  0.1368 -0.2354
16012TIP3   OH269450   2.914   5.518   5.507 -0.8736  0.0667 -0.0079
16012TIP3    H169451   2.825   5.513   5.544 -0.9973  2.4070  0.1819
16012TIP3    H269452   2.970   5.532   5.583 -0.2603 -1.7166 -0.0962
16013TIP3   OH269453   3.506   3.198   5.833  0.1113 -0.6949 -0.1081
16013TIP3    H169454   3.481   3.209   5.741 -0.1095  1.3961  0.1609
16013TIP3    H269455   3.521   3.287   5.864 -1.7562 -1.1738  2.4189
16014TIP3   OH269456   3.911   4.298   4.224 -0.0543  0.0250  0.0683
16014TIP3    H169457   3.981   4.332   4.168 -1.0644  1.2361 -0.5079
16014TIP3    H269458   3.893   4.369   4.286 -0.8222 -0.2316  0.1525
16015TIP3   OH269459   4.630   6.215   0.744  0.3751 -0.4339 -0.1402
16015TIP3    H169460   4.559   6.215   0.808  0.4447 -0.8289 -0.0618
16015TIP3    H269461   4.658   6.123   0.739 -0.1679 -0.5541 -1.3330
16016TIP3   OH269462   2.070   5.022   3.732 -0.1640 -0.2616 -0.2564
16016TIP3    H169463   1.996   5.010   3.792 -0.9940  1.4919 -0.8587
16016TIP3    H269464   2.106   5.108   3.755  1.5556 -0.9819 -0.1410
16017TIP3   OH269465   2.946   4.939   5.963  0.5853  0.4939 -0.4247
16017TIP3    H169466   2.896   4.958   5.885 -0.6883  0.7338  0.4283
16017TIP3    H269467   2.932   4.845   5.979  2.5851 -0.0776 -1.6518
16018TIP3   OH269468   2.826   3.581  16.267  0.2603 -0.6179  0.4025
16018TIP3    H169469   2.775   3.601  16.345  0.8101 -1.1699  0.9169
16018TIP3    H269470   2.782   3.506  16.228 -0.1243 -0.2250  0.0716
16019TIP3   OH269471   1.858   4.499  13.610  0.4655 -0.2209 -0.2228
16019TIP3    H169472   1.848   4.410  13.576 -0.9891 -0.9746  1.9395
16019TIP3    H269473   1.946   4.500  13.647 -0.3951 -1.7810  2.1488
16020TIP3   OH269474   1.632   0.691  11.947 -0.0771 -0.1882 -0.2037
16020TIP3    H169475   1.707   0.723  11.996 -0.3713  1.6744 -0.9076
16020TIP3    H269476   1.667   0.668  11.861 -0.1572 -0.1600 -0.2440
16021TIP3   OH269477   4.391   1.221  13.141  0.2070 -0.3443  0.1284
16021TIP3    H169478   4.451   1.183  13.077  0.7186 -0.1963  0.5174
16021TIP3    H269479   4.306   1.220  13.097  0.6946  0.5373 -0.8873
16022TIP3   OH269480   3.360   2.978  13.997  0.6714 -0.0753  0.1919
16022TIP3    H169481   3.350   3.073  13.989 -1.6029 -0.4035 -1.8024
16022TIP3    H269482   3.319   2.956  14.081 -0.4798  0.5145 -0.2061
16023TIP3   OH269483   5.511   5.475  14.533  0.4006 -0.7565  0.0558
16023TIP3    H169484   5.522   5.400  14.592 -0.2543 -0.9227 -0.0323
16023TIP3    H269485   5.460   5.538  14.584  0.7131 -0.4781  0.0300
16024TIP3   OH269486   1.400   0.052   2.203  0.4347 -0.1915 -0.0575
16024TIP3    H169487   1.368   0.012   2.284  0.6224 -2.4780 -1.0666
16024TIP3    H269488   1.320   0.074   2.154  0.3428 -0.3961 -0.0001
16025TIP3   OH269489   3.086   2.343  13.282 -0.2031 -0.2413  0.0133
16025TIP3    H169490   3.027   2.387  13.221  1.9273  2.0486 -0.5382
16025TIP3    H269491   3.163   2.321  13.230  1.3662  1.1163  1.6293
16026TIP3   OH269492   6.616   6.564   4.484 -0.5205 -0.8797 -0.7122
16026TIP3    H169493   6.674   6.620   4.537 -2.9110  0.0751  1.0842
16026TIP3    H269494   6.626   6.597   4.395  0.3573  0.4456 -0.1546
16027TIP3   OH269495   2.346   0.995   4.581  0.2311  0.4829  0.0127
16027TIP3    H169496   2.339   1.090   4.571 -1.0817  0.4850  0.7286
16027TIP3    H269497   2.338   0.980   4.675  1.6521 -0.2736  0.0411
16028TIP3   OH269498   5.796   1.869   3.012 -0.1315  0.3408 -0.1582
16028TIP3    H169499   5.737   1.933   2.973 -0.2929  0.4442  0.2454
16028TIP3    H269500   5.740   1.797   3.038 -0.1840  0.7108  0.8033
16029TIP3   OH269501   5.706   2.708  16.256 -0.0270 -0.1115 -0.2956
16029TIP3    H169502   5.656   2.627  16.245 -0.5209  0.0656  0.5700
16029TIP3    H269503   5.795   2.679  16.273 -0.5493 -0.5675  1.9745
16030TIP3   OH269504   2.056   2.503   4.089 -0.6291  0.0236 -0.0923
16030TIP3    H169505   1.979   2.492   4.143  0.1599 -1.0785  0.8543
16030TIP3    H269506   2.104   2.421   4.098 -0.2374 -0.0197 -2.1142
16031TIP3   OH269507   2.137   5.303   0.142  0.4646  0.2265 -0.3769
16031TIP3    H169508   2.108   5.224   0.096  0.1883 -0.3859  0.8104
16031TIP3    H269509   2.157   5.365   0.072  1.9673 -1.3206 -1.3910
16032TIP3   OH269510   1.779   1.625   1.352 -0.5808 -0.0085  0.3442
16032TIP3    H169511   1.792   1.532   1.371  0.4700 -0.2317 -1.2491
16032TIP3    H269512   1.690   1.630   1.317 -0.7718 -0.3582  0.7736
16033TIP3   OH269513   3.639   0.256  15.976  0.1687  0.0089 -0.1623
16033TIP3    H169514   3.654   0.325  16.040  0.7030  0.2624 -0.5407
16033TIP3    H269515   3.659   0.175  16.022  1.0045  0.2210 -0.1235
16034TIP3   OH269516   4.925   6.288   2.146  0.3180 -0.0476  0.0200
16034TIP3    H169517   4.891   6.375   2.124  0.6110  0.0828  0.0825
16034TIP3    H269518   4.979   6.303   2.223  0.3139 -0.2983  0.0706
16035TIP3   OH269519   5.268   1.954   6.071 -0.3094 -0.1351 -0.3835
16035TIP3    H169520   5.290   1.916   6.156 -3.5974  0.8085  1.0131
16035TIP3    H269521   5.326   2.029   6.062  0.4923 -0.6037  0.7106
16036TIP3   OH269522   0.042   3.957   4.864  0.2963  0.1534  0.0051
16036TIP3    H169523   0.106   3.979   4.932  2.2909 -0.0793 -1.6965
16036TIP3    H269524   0.095   3.936   4.787 -1.8892  1.1691 -1.8898
16037TIP3   OH269525   3.268   3.727   1.899  0.3204  0.2684  0.1371
16037TIP3    H169526   3.288   3.686   1.983  0.5852  2.0152  0.9558
16037TIP3    H269527   3.239   3.815   1.921 -0.7440  0.3780 -1.5421
16038TIP3   OH269528   0.932   5.594  16.933 -0.3415 -0.1204  0.0283
16038TIP3    H169529   0.943   5.690  16.935 -1.3691  0.0057  1.1357
16038TIP3    H269530   0.845   5.581  16.894  0.0400 -0.6456 -0.6644
16039TIP3   OH269531   0.900   0.585  15.056  0.0938 -0.4524  0.0451
16039TIP3    H169532   0.896   0.499  15.098 -0.3280 -1.0033 -1.0773
16039TIP3    H269533   0.874   0.569  14.965 -1.1872  1.0578  0.1015
16040TIP3   OH269534   5.452   1.730   3.829 -0.0209 -0.2298  0.0782
16040TIP3    H169535   5.389   1.790   3.788  0.3650  0.1035 -0.0302
16040TIP3    H269536   5.522   1.722   3.765 -0.6877 -1.8641 -0.5034
16041TIP3   OH269537   2.024   1.485   5.239 -0.1493  0.2026  0.0398
16041TIP3    H169538   2.086   1.551   5.269  0.4818 -0.4740  0.2528
16041TIP3    H269539   2.029   1.415   5.304  1.4638 -1.4443 -1.7132
16042TIP3   OH269540   2.085   5.390  17.395  0.0909 -0.0796  0.1189
16042TIP3    H169541   2.161   5.448  17.391  0.5741 -0.7786 -1.7571
16042TIP3    H269542   2.074   5.358  17.306 -1.4930 -1.1884  0.6646
16043TIP3   OH269543   1.027   4.452  15.045  0.3273 -0.0155  0.1718
16043TIP3    H169544   0.982   4.499  14.974  0.7263  0.9189  0.5238
16043TIP3    H269545   0.977   4.371  15.055  0.1265 -0.0675 -1.0263
16044TIP3   OH269546   0.371   6.542   3.265 -0.0331  0.3893 -0.5272
16044TIP3    H169547   0.290   6.576   3.303 -2.4507  0.5944 -5.1889
16044TIP3    H269548   0.380   6.454   3.302 -1.6063  0.8705  1.1185
16045TIP3   OH269549   2.993   0.525  11.778  0.2658  0.1125 -0.3875
16045TIP3    H169550   3.001   0.617  11.754 -1.0088  0.7458  1.4649
16045TIP3    H269551   3.081   0.489  11.762  1.1694  1.9568  0.1175
16046TIP3   OH269552   5.717   3.708  17.476  0.1589  0.2700  0.3786
16046TIP3    H169553   5.676   3.630  17.513  0.5918 -0.6687 -1.0377
16046TIP3    H269554   5.644   3.759  17.440 -0.1237  0.5380  1.3039
16047TIP3   OH269555   5.152   0.969  16.728  0.2147  0.1119 -0.2601
16047TIP3    H169556   5.208   1.022  16.785 -0.5143  1.7328 -1.0031
16047TIP3    H269557   5.210   0.899  16.697  1.5934  1.2195 -0.2873
16048TIP3   OH269558   1.148   2.676  11.791  0.1973  0.1872 -0.3080
16048TIP3    H169559   1.078   2.632  11.838 -0.0897 -1.5150 -2.1818
16048TIP3    H269560   1.108   2.755  11.755 -0.2230  0.2184  0.2262
16049TIP3   OH269561   6.373   4.677   5.679 -0.0146 -0.1964  0.1317
16049TIP3    H169562   6.415   4.611   5.733  0.9662  0.0056 -0.3634
16049TIP3    H269563   6.279   4.659   5.687  0.2522 -2.1730 -0.6209
16050TIP3   OH269564   1.843   0.325   3.618 -0.4905  0.0147  0.6582
16050TIP3    H169565   1.909   0.276   3.568 -0.3069 -0.1437  1.0542
16050TIP3    H269566   1.761   0.279   3.600 -0.4280 -0.0330  0.4903
16051TIP3   OH269567   1.050   3.093   5.070 -0.2075 -0.0497  0.1247
16051TIP3    H169568   0.986   3.149   5.027 -0.3910 -2.0371 -2.4353
16051TIP3    H269569   1.017   3.084   5.160 -2.3056  0.7209 -0.4996
16052TIP3   OH269570   4.788   0.684  14.911  0.3010  0.2291  0.6336
16052TIP3    H169571   4.693   0.673  14.907  0.3111  0.4216 -1.3041
16052TIP3    H269572   4.809   0.677  15.004 -1.4230 -1.2399  0.9840
16053TIP3   OH269573   1.945   1.857   1.290 -0.2973 -0.5628 -0.0809
16053TIP3    H169574   1.886   1.784   1.307 -0.1829 -0.5906  0.1898
16053TIP3    H269575   1.906   1.901   1.214 -1.0839 -0.1255  0.5673
16054TIP3   OH269576   2.983   1.694  14.573 -0.1729  0.7013 -0.5658
16054TIP3    H169577   2.955   1.754  14.642  3.6748 -0.1964  2.1001
16054TIP3    H269578   3.005   1.751  14.499 -2.2230  1.9090 -0.3232
16055TIP3   OH269579   2.022   5.780   5.074 -0.2435 -0.2948  0.7188
16055TIP3    H169580   2.001   5.822   5.157  0.7917 -1.3719  1.5533
16055TIP3    H269581   1.973   5.697   5.076 -1.1922  0.2048 -0.3164
16056TIP3   OH269582   3.311   0.124  13.434 -0.0844 -0.0997 -0.4077
16056TIP3    H169583   3.397   0.159  13.409  1.4007 -2.3407  1.1870
16056TIP3    H269584   3.259   0.202  13.453  2.0100  1.3367 -0.1227
16057TIP3   OH269585   6.531   2.800   4.387 -0.4524  0.7602 -0.8041
16057TIP3    H169586   6.480   2.809   4.468 -0.2161  0.6063 -0.6382
16057TIP3    H269587   6.545   2.705   4.378  1.3519  0.8996  0.1113
16058TIP3   OH269588   5.220   3.143  16.387 -0.1573 -0.0952 -0.4534
16058TIP3    H169589   5.293   3.193  16.351  0.2401  0.1015  0.5739
16058TIP3    H269590   5.197   3.190  16.468 -0.2180 -1.1768  0.1766
16059TIP3   OH269591   2.422   5.723  12.090 -0.3553 -0.0555  0.0543
16059TIP3    H169592   2.404   5.710  11.997  2.5386 -3.3369 -0.2356
16059TIP3    H269593   2.372   5.655  12.134 -0.4496  0.4627  0.7627
16060TIP3   OH269594   0.070   2.306   1.696 -0.7325 -0.1499  0.2679
16060TIP3    H169595   0.008   2.378   1.690 -0.0156  0.5418  0.9391
16060TIP3    H269596   0.130   2.320   1.622 -2.1485 -1.6215 -1.2540
16061TIP3   OH269597   4.278   0.862   4.251  0.3962 -0.4801  1.1340
16061TIP3    H169598   4.328   0.781   4.238  0.4854 -0.4150  1.0646
16061TIP3    H269599   4.296   0.887   4.342  1.5061  0.2172  0.7436
16062TIP3   OH269600   6.568   6.178  16.324  0.5710 -0.7446 -0.1168
16062TIP3    H169601   6.518   6.119  16.268 -1.1108  0.3817  0.1207
16062TIP3    H269602   6.579   6.257  16.272 -3.2906  1.3452  1.8515
16063TIP3   OH269603   5.990   5.435   5.311  0.1192  0.9694  0.4511
16063TIP3    H169604   6.013   5.514   5.360 -0.3471  2.1667 -1.1801
16063TIP3    H269605   6.035   5.445   5.228  0.2726 -0.6482  0.3182
16064TIP3   OH269606   4.425   2.733   3.167  0.2878  0.0493 -0.4377
16064TIP3    H169607   4.511   2.732   3.126  0.1890  1.9595 -0.8255
16064TIP3    H269608   4.442   2.729   3.261  0.6506 -1.7169 -0.5460
16065TIP3   OH269609   3.003   1.951  12.817  0.0180  0.4637 -0.0170
16065TIP3    H169610   2.918   1.906  12.813 -0.8900  2.1378 -0.5168
16065TIP3    H269611   3.049   1.922  12.739 -0.8165  0.8783 -0.6808
16066TIP3   OH269612   0.399   1.504  16.850 -0.0661  0.0455  0.3129
16066TIP3    H169613   0.336   1.521  16.921 -0.5199 -0.6211  0.0833
16066TIP3    H269614   0.484   1.501  16.893 -0.0934  1.6961  0.5298
16067TIP3   OH269615   6.598   0.137   0.566 -0.5857  0.3437 -0.7447
16067TIP3    H169616   6.591   0.232   0.580 -1.5617 -0.0514  2.2827
16067TIP3    H269617   6.561   0.122   0.479 -1.1110  2.6565 -0.9791
16068TIP3   OH269618   4.282   1.999   1.474 -0.0255  0.1328 -0.3220
16068TIP3    H169619   4.353   2.042   1.426  0.5743 -0.9933 -0.4977
16068TIP3    H269620   4.327   1.940   1.535 -0.8004 -0.7708 -0.5949
16069TIP3   OH269621   4.562   0.153  15.734  0.0124  0.3756 -0.5041
16069TIP3    H169622   4.484   0.189  15.777  1.3573  3.3707 -0.3242
16069TIP3    H269623   4.585   0.077  15.788 -2.3448 -0.2132 -0.1854
16070TIP3   OH269624   6.585   4.682   5.185 -0.4665 -0.5058  0.8059
16070TIP3    H169625   6.540   4.630   5.119 -0.6366 -1.3540  1.5543
16070TIP3    H269626   6.561   4.772   5.166 -2.5633 -0.9090  1.1960
16071TIP3   OH269627   1.075   1.069  12.923  0.4038 -0.4523  0.2544
16071TIP3    H169628   1.007   1.098  12.862 -0.6965 -2.7794  0.2500
16071TIP3    H269629   1.157   1.092  12.880 -0.3700  0.5769 -0.7302
16072TIP3   OH269630   5.384   4.765   3.855 -0.3675  0.6499  0.2910
16072TIP3    H169631   5.301   4.739   3.896 -0.5767  1.7068  0.5602
16072TIP3    H269632   5.437   4.685   3.857 -0.8017  0.3633  1.5787
16073TIP3   OH269633   4.301   3.782  17.128 -0.0489 -0.5669 -0.1429
16073TIP3    H169634   4.289   3.740  17.043  1.1397 -1.4812  0.1200
16073TIP3    H269635   4.357   3.858  17.109  0.8235 -1.1814 -0.0878
16074TIP3   OH269636   2.508   2.282   4.201  0.1716 -0.2463  0.4300
16074TIP3    H169637   2.596   2.264   4.235  0.9445  0.3795 -1.0942
16074TIP3    H269638   2.464   2.198   4.201  0.9660 -0.6749  0.7312
16075TIP3   OH269639   1.884   4.968   3.961 -0.2511 -0.2772  0.7788
16075TIP3    H169640   1.894   5.062   3.974 -1.7927 -0.0177  0.2753
16075TIP3    H269641   1.800   4.959   3.915 -0.4292 -1.9251  1.3683
16076TIP3   OH269642   1.739   5.913   3.637 -0.0932  0.1479  0.1873
16076TIP3    H169643   1.771   5.825   3.658 -0.7293 -0.2619 -0.5108
16076TIP3    H269644   1.708   5.948   3.721  1.2891  0.1910  0.6965
16077TIP3   OH269645   3.772   2.434  12.534 -0.1538  0.3729  0.3979
16077TIP3    H169646   3.812   2.521  12.538 -0.0384  0.3721 -0.4166
16077TIP3    H269647   3.823   2.381  12.595  3.0979 -0.3767 -2.6178
16078TIP3   OH269648   4.682   5.859  15.901  0.3650  0.2986 -0.1092
16078TIP3    H169649   4.607   5.896  15.854  0.6132  0.1555 -0.6119
16078TIP3    H269650   4.644   5.828  15.984  0.4563  3.4068  1.2486
16079TIP3   OH269651   0.308   0.766   1.108 -0.4006  0.0159  0.0050
16079TIP3    H169652   0.393   0.759   1.065 -0.7391 -1.3999 -0.4851
16079TIP3    H269653   0.256   0.696   1.071 -1.2510 -0.2153  1.5314
16080TIP3   OH269654   6.454   0.868  13.140  0.9146  0.5940  0.1324
16080TIP3    H169655   6.523   0.917  13.095  1.1554  1.0452  0.9794
16080TIP3    H269656   6.470   0.777  13.115  1.6336  0.7273  0.0686
16081TIP3   OH269657   0.608   0.887   4.091 -0.7240 -0.4359  0.0453
16081TIP3    H169658   0.659   0.949   4.143  0.6423 -2.2938  1.0284
16081TIP3    H269659   0.605   0.807   4.144  0.1168 -2.1934 -2.3681
16082TIP3   OH269660   5.807   1.377   5.557  0.1354 -0.3392  0.4050
16082TIP3    H169661   5.716   1.351   5.540 -0.5047 -0.6074  3.6161
16082TIP3    H269662   5.800   1.464   5.598  1.2254 -0.7858  1.6026
16083TIP3   OH269663   1.558   4.207   5.366  0.1541 -0.1737  0.2108
16083TIP3    H169664   1.642   4.182   5.403  0.0283 -0.6195  0.2042
16083TIP3    H269665   1.494   4.178   5.431 -0.1009 -1.3991 -0.5433
16084TIP3   OH269666   2.579   2.235   0.253 -0.0809 -0.2478  0.4492
16084TIP3    H169667   2.667   2.253   0.285  0.0312  1.0050 -0.4821
16084TIP3    H269668   2.521   2.256   0.326  0.3814 -1.3056  1.1463
16085TIP3   OH269669   5.424   0.785  12.472  0.2174  0.3503 -0.4151
16085TIP3    H169670   5.333   0.816  12.476 -0.7292 -2.0716 -1.4440
16085TIP3    H269671   5.442   0.754  12.561  0.1618  1.1362 -0.1224
16086TIP3   OH269672   0.672   3.678   5.929 -0.2591  0.4369 -0.5345
16086TIP3    H169673   0.641   3.761   5.964 -0.4940 -0.2561  0.9714
16086TIP3    H269674   0.682   3.693   5.835 -0.6638  2.0393 -0.3358
16087TIP3   OH269675   6.444   1.034   1.166  0.6675 -0.5657 -0.1708
16087TIP3    H169676   6.456   1.128   1.179 -0.7246 -0.3769 -0.0381
16087TIP3    H269677   6.471   0.995   1.249  1.4864 -0.3109 -0.3127
16088TIP3   OH269678   3.893   6.039  14.111  0.4286  0.1397 -0.2247
16088TIP3    H169679   3.947   6.030  14.189 -1.2313 -1.4992  0.8159
16088TIP3    H269680   3.881   6.133  14.100  1.2553  0.4166  1.0827
16089TIP3   OH269681   2.208   6.315   2.861  0.3144  0.2323 -0.2380
16089TIP3    H169682   2.162   6.308   2.778  0.8315  0.1314 -0.5135
16089TIP3    H269683   2.144   6.286   2.926 -0.2982  0.8863 -0.5321
16090TIP3   OH269684   3.758   5.093  14.777 -0.1757  0.2690  0.3018
16090TIP3    H169685   3.687   5.040  14.740 -0.8376  0.9474  0.5822
16090TIP3    H269686   3.730   5.183  14.765  1.3475  0.6253 -0.9874
16091TIP3   OH269687   3.233   1.044   4.006 -0.4266 -0.3716 -0.2269
16091TIP3    H169688   3.300   1.109   3.986 -1.2946  0.1967 -1.3774
16091TIP3    H269689   3.270   0.993   4.078  0.5261  1.0029  0.3024
16092TIP3   OH269690   4.109   3.084  17.125 -0.2374  0.4000 -0.2947
16092TIP3    H169691   4.136   3.031  17.050 -2.8520 -0.0441 -1.0200
16092TIP3    H269692   4.136   3.173  17.104  1.1191 -0.0802 -0.6578
16093TIP3   OH269693   2.688   1.021   1.006  0.4045  0.1378 -0.4835
16093TIP3    H169694   2.717   1.100   1.051  2.6806  0.1423 -1.7768
16093TIP3    H269695   2.651   0.966   1.074  3.6912  0.1222  1.5031
16094TIP3   OH269696   3.846   4.968  17.210  0.0526 -0.4053 -0.3600
16094TIP3    H169697   3.843   4.960  17.306  0.3429  1.8695 -0.1200
16094TIP3    H269698   3.802   4.889  17.179  0.0254 -1.2527  1.6415
16095TIP3   OH269699   5.282   5.892   6.430  0.5048  0.1549 -0.0272
16095TIP3    H169700   5.339   5.898   6.507 -0.6993 -1.0567  1.0156
16095TIP3    H269701   5.198   5.927   6.460  0.0413 -0.2535 -0.8238
16096TIP3   OH269702   1.302   6.721  11.600  0.1664 -0.2238  0.0671
16096TIP3    H169703   1.362   6.663  11.647 -0.0530 -0.2725  0.2889
16096TIP3    H269704   1.335   6.809  11.616 -0.0000 -0.2298  0.4453
16097TIP3   OH269705   1.848   2.248   4.665  0.0722  0.1851  0.5597
16097TIP3    H169706   1.767   2.199   4.680 -0.6123  0.1630 -2.6163
16097TIP3    H269707   1.835   2.330   4.712 -1.9919  0.3478 -0.2001
16098TIP3   OH269708   5.614   4.308  12.992  0.4921  0.1981 -1.0328
16098TIP3    H169709   5.606   4.225  13.040  1.2622  0.5074 -0.3495
16098TIP3    H269710   5.595   4.375  13.057  1.7055  0.6285 -1.1023
16099TIP3   OH269711   4.623   5.332   3.187  0.0858  0.6516  0.5642
16099TIP3    H169712   4.553   5.321   3.123  0.0289  0.7409  0.6116
16099TIP3    H269713   4.680   5.255   3.174  0.3753  0.9522  0.0321
16100TIP3   OH269714   5.776   1.061  16.801 -0.5962  0.0627 -0.9676
16100TIP3    H169715   5.714   0.989  16.814  0.2478 -0.2773  1.8253
16100TIP3    H269716   5.846   1.023  16.748 -0.7008 -0.8302 -0.4862
16101TIP3   OH269717   3.505   1.437   4.590 -0.3159 -0.8080 -0.2758
16101TIP3    H169718   3.592   1.404   4.569 -0.0078 -0.4922  0.4781
16101TIP3    H269719   3.508   1.530   4.567 -0.4452 -0.7916 -0.2285
16102TIP3   OH269720   6.217   6.401   2.880  0.2391  0.5738  0.3740
16102TIP3    H169721   6.198   6.457   2.805  1.4650 -0.8461 -1.0620
16102TIP3    H269722   6.310   6.417   2.898  0.5634 -0.8163  0.0527
16103TIP3   OH269723   0.244   4.149  11.676  0.2214  0.1945  0.4719
16103TIP3    H169724   0.154   4.161  11.705  0.4085 -2.0539  2.2835
16103TIP3    H269725   0.246   4.062  11.637  1.6543  0.0868  0.7046
16104TIP3   OH269726   1.622   1.185   3.636 -0.4452  0.3059  0.0185
16104TIP3    H169727   1.575   1.158   3.557 -0.8341  0.0728  0.3277
16104TIP3    H269728   1.555   1.185   3.705 -0.5158  2.1969  0.0067
16105TIP3   OH269729   1.743   0.090   5.414  0.4175 -0.4506 -0.5128
16105TIP3    H169730   1.764   0.183   5.405  0.1924 -0.5429 -2.3638
16105TIP3    H269731   1.828   0.047   5.419  0.5234 -0.1462  0.7050
16106TIP3   OH269732   1.668   6.267   5.106 -0.0164 -0.3010 -0.1296
16106TIP3    H169733   1.741   6.307   5.152  0.0540  0.3489 -0.7949
16106TIP3    H269734   1.595   6.272   5.167  0.3484 -0.4372  0.3205
16107TIP3   OH269735   4.646   0.715  16.566  0.4301  0.1197  0.6952
16107TIP3    H169736   4.640   0.801  16.522  0.7847  0.5303  1.4394
16107TIP3    H269737   4.576   0.717  16.631 -0.7995 -0.9082 -0.5144
16108TIP3   OH269738   6.694   0.207  16.289 -0.0428  0.2801 -0.1233
16108TIP3    H169739   6.603   0.205  16.259 -0.1923  3.9476 -0.3027
16108TIP3    H269740   6.690   0.178  16.380 -1.6807  1.7314  0.3239
16109TIP3   OH269741   0.891   2.775  16.276 -0.2886  0.3129  0.7298
16109TIP3    H169742   0.869   2.832  16.203 -0.5803 -1.8520 -0.9941
16109TIP3    H269743   0.973   2.810  16.311  1.3876 -0.1009 -2.4461
16110TIP3   OH269744   4.111   5.761  12.656 -0.6985  0.4535 -0.1767
16110TIP3    H169745   4.027   5.791  12.692 -0.2234 -0.5839  2.0030
16110TIP3    H269746   4.166   5.838  12.657 -1.1057  0.7472  0.1498
16111TIP3   OH269747   1.358   2.551  12.297 -0.0943 -0.2511  0.1775
16111TIP3    H169748   1.322   2.515  12.378  0.0963 -0.6261  0.0992
16111TIP3    H269749   1.315   2.635  12.287  0.9127  0.4474  1.4091
16112TIP3   OH269750   5.989   0.884  12.932 -0.9205 -0.5061 -0.8092
16112TIP3    H169751   6.063   0.945  12.926 -2.7744  2.1633  1.1612
16112TIP3    H269752   5.997   0.845  13.019 -1.6696 -0.3977 -0.6868
16113TIP3   OH269753   5.759   5.753   6.251 -0.5490 -0.1225  0.9587
16113TIP3    H169754   5.753   5.735   6.345 -2.4796  1.2313  1.1486
16113TIP3    H269755   5.742   5.847   6.244 -0.1866 -0.1601 -0.7409
16114TIP3   OH269756   1.143   2.054   5.791  0.3447 -0.4309  0.2208
16114TIP3    H169757   1.093   2.082   5.867 -1.4562 -1.7802 -0.3997
16114TIP3    H269758   1.172   1.965   5.812  1.0136 -0.3030 -0.1278
16115TIP3   OH269759   4.906   5.026   5.945  0.3994 -0.3988 -0.2409
16115TIP3    H169760   4.986   4.974   5.950  1.0187  0.5307 -0.1565
16115TIP3    H269761   4.871   5.024   6.034  1.2431  0.5580  0.1356
16116TIP3   OH269762   0.057   4.352  12.192  0.0191  0.1231 -0.1736
16116TIP3    H169763   0.112   4.274  12.198 -0.3907 -0.2555 -1.1092
16116TIP3    H269764   0.009   4.355  12.275  0.9551  0.0900  0.3780
16117TIP3   OH269765   5.246   3.073  11.361  0.2653 -0.1874  0.4396
16117TIP3    H169766   5.182   3.071  11.290 -0.5390  0.4104  1.1409
16117TIP3    H269767   5.298   3.152  11.344  0.5132 -0.4081  0.1490
16118TIP3   OH269768   1.276   5.991   0.212  0.4787  0.2824 -0.1912
16118TIP3    H169769   1.273   6.072   0.263  1.9673 -0.1335  0.6198
16118TIP3    H269770   1.207   5.937   0.251  1.9746 -0.2580  1.8677
16119TIP3   OH269771   5.453   6.008   6.621  0.2920 -0.3551 -0.1942
16119TIP3    H169772   5.465   6.002   6.716  1.1171 -1.7279 -0.3544
16119TIP3    H269773   5.538   6.035   6.588 -0.1548  0.7142 -0.5211
16120TIP3   OH269774   2.130   4.452  13.685 -0.3058  0.0136  0.3447
16120TIP3    H169775   2.215   4.483  13.716 -1.3525  3.0602  0.5518
16120TIP3    H269776   2.070   4.473  13.755 -1.7111  1.0300 -1.0906
16121TIP3   OH269777   5.159   4.100   0.172 -0.5331 -0.3251  0.0351
16121TIP3    H169778   5.106   4.028   0.137  0.3681 -1.4630  0.9551
16121TIP3    H269779   5.094   4.160   0.209 -1.2191 -1.6655  1.1023
16122TIP3   OH269780   0.665   6.020   2.995  0.2998 -0.0940  0.2588
16122TIP3    H169781   0.721   5.979   3.061  1.6817 -0.9218 -1.3438
16122TIP3    H269782   0.630   6.098   3.038 -0.8913 -1.8745  2.7818
16123TIP3   OH269783   5.863   2.721   3.965  0.2543  0.2810 -0.1929
16123TIP3    H169784   5.829   2.800   3.924  2.0487  0.5471 -1.2778
16123TIP3    H269785   5.897   2.669   3.893 -0.8772 -1.5174  0.5082
16124TIP3   OH269786   1.079   1.038   2.674 -0.1309  0.1036 -0.3675
16124TIP3    H169787   1.049   1.074   2.590 -0.4683  2.5114  0.7060
16124TIP3    H269788   1.034   1.090   2.740  2.3776  0.2971  1.3102
16125TIP3   OH269789   2.881   1.723  12.278  0.0995 -0.7805  0.5207
16125TIP3    H169790   2.906   1.732  12.185 -2.3007 -2.2158 -0.3564
16125TIP3    H269791   2.909   1.634  12.301  0.9736 -0.3157  1.2956
16126TIP3   OH269792   1.106   6.709   6.300 -0.0781  0.0847 -0.3020
16126TIP3    H169793   1.127   6.750   6.384 -0.3153 -1.1243  0.3822
16126TIP3    H269794   1.027   6.753   6.269 -0.2533  0.2299  0.3448
16127TIP3   OH269795   4.830   2.184   2.182 -0.4207 -0.1586  0.0976
16127TIP3    H169796   4.923   2.195   2.198 -0.1728  1.2048 -1.8558
16127TIP3    H269797   4.816   2.222   2.095 -2.9186  0.4036  0.6519
16128TIP3   OH269798   4.525   2.652   0.547  0.2961  0.7639  0.1209
16128TIP3    H169799   4.465   2.583   0.519  1.0813 -0.3093  1.0273
16128TIP3    H269800   4.492   2.731   0.504 -1.0250 -0.0358 -0.3835
16129TIP3   OH269801   4.832   6.623   4.227 -1.0207  0.2377  0.4152
16129TIP3    H169802   4.874   6.688   4.283  1.8126 -0.3274 -0.8710
16129TIP3    H269803   4.797   6.674   4.154  1.1177  0.4551 -0.5515
16130TIP3   OH269804   3.753   4.234   1.618  0.2517  0.0226 -0.6902
16130TIP3    H169805   3.670   4.190   1.640 -0.2567  1.0775 -0.4085
16130TIP3    H269806   3.745   4.254   1.524  0.1344  0.2008 -0.6448
16131TIP3   OH269807   0.935   4.999  13.683  0.0451 -0.0122 -0.3890
16131TIP3    H169808   1.003   4.960  13.737  0.6907  0.4876 -0.8224
16131TIP3    H269809   0.958   5.092  13.680  1.3846 -0.3199 -3.4002
16132TIP3   OH269810   2.242   6.375  16.959  0.0669 -0.3761 -0.0452
16132TIP3    H169811   2.169   6.345  17.013 -0.0445  0.6392  0.3878
16132TIP3    H269812   2.263   6.300  16.904 -0.0148 -1.3318  1.1844
16133TIP3   OH269813   4.365   2.064  16.639  0.7102  0.3445  0.1991
16133TIP3    H169814   4.457   2.040  16.647  0.8765  1.2834  1.2999
16133TIP3    H269815   4.318   1.997  16.690  0.6307 -0.9087 -1.4485
16134TIP3   OH269816   6.598   4.039   3.135 -0.0481  0.0629 -0.2226
16134TIP3    H169817   6.667   4.013   3.074  1.6741  0.0627  1.6161
16134TIP3    H269818   6.645   4.083   3.207 -1.9080 -0.3699  1.3409
16135TIP3   OH269819   0.795   3.468   3.226 -0.7076 -0.5829 -0.6580
16135TIP3    H169820   0.710   3.511   3.235 -0.8622 -0.9763 -0.1986
16135TIP3    H269821   0.775   3.383   3.187 -0.7004 -1.2449  0.7104
16136TIP3   OH269822   5.219   4.602   0.237 -0.0887 -0.1796  0.1088
16136TIP3    H169823   5.221   4.598   0.141 -0.2672 -0.1504  0.1034
16136TIP3    H269824   5.136   4.560   0.261 -1.3212  2.0984  0.1304
16137TIP3   OH269825   4.838   5.113   5.522 -0.0307 -0.6103 -0.4063
16137TIP3    H169826   4.755   5.069   5.544 -1.1588  1.2247 -0.7522
16137TIP3    H269827   4.857   5.086   5.433 -1.0021 -0.0391 -0.8111
16138TIP3   OH269828   1.983   6.452   3.740  0.2091 -0.4119  0.6285
16138TIP3    H169829   1.963   6.367   3.702  2.7428 -0.7995 -0.0120
16138TIP3    H269830   2.046   6.434   3.809  3.3007  1.0752 -1.5674
16139TIP3   OH269831   6.083   2.440  12.241  0.5199  0.0954  0.6350
16139TIP3    H169832   6.136   2.361  12.241  1.2175  0.5211 -0.7291
16139TIP3    H269833   5.994   2.410  12.259  0.3774 -1.3375 -1.8828
16140TIP3   OH269834   1.112   5.440   3.542  0.4355  0.0690 -0.8344
16140TIP3    H169835   1.129   5.365   3.485 -1.5839 -1.3762  0.3379
16140TIP3    H269836   1.149   5.414   3.627 -1.4728 -0.2596 -0.0580
16141TIP3   OH269837   1.151   5.861   1.163 -0.2837 -0.9024 -1.0415
16141TIP3    H169838   1.057   5.854   1.179 -0.0583 -2.2909 -0.0605
16141TIP3    H269839   1.190   5.843   1.248  0.8898 -2.2988 -1.8298
16142TIP3   OH269840   2.035   4.608  14.253  0.4025 -0.3414 -0.5314
16142TIP3    H169841   1.994   4.531  14.213 -1.7985 -1.4019  3.2731
16142TIP3    H269842   2.123   4.579  14.277  0.5762 -0.7328 -1.5964
16143TIP3   OH269843   3.789   2.345   5.370 -0.6170 -0.4946  0.3688
16143TIP3    H169844   3.836   2.274   5.327 -0.0914 -0.5223  0.9710
16143TIP3    H269845   3.758   2.401   5.298 -0.0061 -0.6953 -0.0570
16144TIP3   OH269846   4.051   0.727  17.345  0.8586  0.1624 -0.6170
16144TIP3    H169847   3.998   0.800  17.378 -0.2891 -0.5131 -0.9429
16144TIP3    H269848   4.045   0.734  17.250  0.2218 -0.7312 -0.6432
16145TIP3   OH269849   2.185   3.373  17.209  0.3038  1.0348  0.3293
16145TIP3    H169850   2.276   3.376  17.239  1.5694 -0.1644 -2.9620
16145TIP3    H269851   2.156   3.284  17.231 -0.1007  1.3989  1.3266
16146TIP3   OH269852   0.270   0.400  11.699  0.5431 -0.1573  0.1228
16146TIP3    H169853   0.265   0.494  11.718 -0.4728 -0.4159  1.2683
16146TIP3    H269854   0.184   0.379  11.663  0.5005 -0.7878  0.5840
16147TIP3   OH269855   5.286   5.572   2.494  0.0562  0.1085  0.1178
16147TIP3    H169856   5.315   5.483   2.477  0.1808  0.1716  0.0007
16147TIP3    H269857   5.253   5.604   2.411 -1.7269 -0.4652  0.5744
16148TIP3   OH269858   5.705   4.324  15.211  0.3373  0.1139  0.2388
16148TIP3    H169859   5.766   4.362  15.148  1.1221 -0.7160  0.4675
16148TIP3    H269860   5.648   4.268  15.158  0.6175 -0.1236  0.1832
16149TIP3   OH269861   0.568   4.763  17.425  0.1696 -0.8481 -0.0052
16149TIP3    H169862   0.611   4.824  17.486  2.2051 -1.4701 -0.7611
16149TIP3    H269863   0.514   4.820  17.370  1.6875  0.2734 -0.4154
16150TIP3   OH269864   1.703   4.173  12.997  0.1896  0.3805  0.0623
16150TIP3    H169865   1.770   4.230  12.960 -1.6874  1.3438 -2.0897
16150TIP3    H269866   1.735   4.084  12.980 -0.0951  0.7938 -3.1592
16151TIP3   OH269867   0.632   3.319  16.616  0.1183 -0.0261 -0.1095
16151TIP3    H169868   0.684   3.347  16.540  1.3037 -0.4536  0.5154
16151TIP3    H269869   0.648   3.225  16.622 -0.5470 -0.1180  0.2391
16152TIP3   OH269870   0.970   4.730  12.137 -0.1984  0.2388 -0.2134
16152TIP3    H169871   0.984   4.812  12.090  0.3822  0.4250  0.2787
16152TIP3    H269872   1.051   4.715  12.185 -0.5629 -0.2466  0.2717
16153TIP3   OH269873   3.149   0.556   4.775  0.2358 -0.4395 -0.1772
16153TIP3    H169874   3.078   0.494   4.756  0.0827 -0.1733 -0.4881
16153TIP3    H269875   3.197   0.516   4.847 -0.9996 -0.0290  0.9280
16154TIP3   OH269876   5.778   5.738   1.972  0.3629  0.3722 -0.0526
16154TIP3    H169877   5.712   5.782   1.919  1.1632  0.2545 -1.1781
16154TIP3    H269878   5.827   5.684   1.910 -0.1422 -1.5827  1.1566
16155TIP3   OH269879   1.366   6.618   0.668  0.3034  0.2524 -0.1643
16155TIP3    H169880   1.456   6.589   0.650 -0.5983 -1.9317 -1.4711
16155TIP3    H269881   1.320   6.539   0.695 -2.5607 -0.0032 -4.7590
16156TIP3   OH269882   2.231   6.139   4.911  0.2042  0.6929  0.1185
16156TIP3    H169883   2.230   6.142   5.007  1.0363  2.2914  0.1035
16156TIP3    H269884   2.317   6.104   4.889 -0.9593 -2.3595 -0.0766
16157TIP3   OH269885   0.647   6.345  14.938 -0.6204 -0.0805  0.2557
16157TIP3    H169886   0.655   6.430  14.895 -1.8624 -0.1005 -0.0488
16157TIP3    H269887   0.718   6.293  14.900 -0.7285  0.3811 -0.6177
16158TIP3   OH269888   0.620   0.804   1.455  0.2026  0.1219 -0.1712
16158TIP3    H169889   0.691   0.862   1.482  0.2599  0.3895 -0.8934
16158TIP3    H269890   0.660   0.717   1.454  1.1250  0.4993 -2.5576
16159TIP3   OH269891   0.071   5.419   5.739  0.9336  0.1864  0.6809
16159TIP3    H169892   0.090   5.340   5.688  0.3590  1.9628 -2.5700
16159TIP3    H269893   0.138   5.482   5.712 -0.9872  2.0471 -0.0758
16160TIP3   OH269894   0.871   1.060  17.220  0.1609  0.4947  0.1331
16160TIP3    H169895   0.928   1.130  17.187  1.5575 -0.3225  0.6963
16160TIP3    H269896   0.918   0.980  17.198 -1.5653 -0.3019 -0.7760
16161TIP3   OH269897   4.567   2.534  14.819 -0.1222  0.7996  0.3637
16161TIP3    H169898   4.553   2.524  14.725 -2.1555 -0.1480  0.7187
16161TIP3    H269899   4.507   2.471  14.859  0.4216  1.4617  2.3034
16162TIP3   OH269900   5.984   4.133   1.892  0.3407  0.3935 -0.8471
16162TIP3    H169901   5.960   4.065   1.829  0.4519 -1.2059  0.7428
16162TIP3    H269902   5.903   4.182   1.907 -0.2817 -0.6822 -0.5452
16163TIP3   OH269903   2.759   6.269   1.078  0.9782  0.3514  0.3155
16163TIP3    H169904   2.757   6.190   1.132  0.1693  0.0243 -0.1824
16163TIP3    H269905   2.845   6.308   1.096  0.5442  0.5107  2.1859
16164TIP3   OH269906   0.676   4.184  14.702  0.1184  0.0430 -0.2651
16164TIP3    H169907   0.649   4.239  14.776 -0.3451 -0.1685 -0.2708
16164TIP3    H269908   0.611   4.202  14.634  0.4152  0.0718 -0.5424
16165TIP3   OH269909   3.762   4.202   2.690 -0.0585 -0.1784  0.5377
16165TIP3    H169910   3.714   4.264   2.635  0.7555  1.4823  1.6119
16165TIP3    H269911   3.786   4.252   2.768 -0.1863 -2.1309  1.9218
16166TIP3   OH269912   3.980   4.125   2.313  0.0869 -0.0479  0.6948
16166TIP3    H169913   3.894   4.123   2.356 -0.9145 -0.9114 -1.1908
16166TIP3    H269914   4.007   4.033   2.311 -0.0401 -0.0789 -0.7069
16167TIP3   OH269915   1.112   0.353   1.241 -0.2758  0.1427  0.3776
16167TIP3    H169916   1.108   0.301   1.321 -0.9860  1.3371  1.1545
16167TIP3    H269917   1.188   0.319   1.194  0.9094  0.2105  2.1414
16168TIP3   OH269918   6.129   5.133   0.797  0.0547 -0.3697 -0.3802
16168TIP3    H169919   6.174   5.050   0.810  0.8218 -0.2059 -1.8479
16168TIP3    H269920   6.155   5.162   0.710  0.8659  2.0653  0.5761
16169TIP3   OH269921   5.429   3.280   0.297 -0.0324  0.6495  0.2285
16169TIP3    H169922   5.400   3.192   0.321 -4.4205  1.6147 -0.7371
16169TIP3    H269923   5.471   3.269   0.212 -2.7615 -0.3496 -1.1072
16170TIP3   OH269924   5.632   2.037   5.312  0.1636 -0.0189 -0.3500
16170TIP3    H169925   5.661   1.979   5.242  0.6231  0.0225 -0.2003
16170TIP3    H269926   5.706   2.096   5.327 -0.4609  0.9183 -0.8208
16171TIP3   OH269927   6.415   2.515  14.531  0.3623 -0.3889  0.0017
16171TIP3    H169928   6.351   2.445  14.545 -1.1244  0.9563  0.1029
16171TIP3    H269929   6.432   2.514  14.437 -2.9682  1.8135 -0.7876
16172TIP3   OH269930   1.433   3.661   5.867 -0.0502  0.5399 -0.4744
16172TIP3    H169931   1.520   3.673   5.829  0.5297  0.1625  0.7040
16172TIP3    H269932   1.418   3.741   5.918 -0.6970  0.9052 -1.2079
16173TIP3   OH269933   5.454   0.625   0.989 -0.0975 -0.0006 -0.3347
16173TIP3    H169934   5.370   0.591   0.957  0.7377 -2.9609  0.3058
16173TIP3    H269935   5.436   0.656   1.077 -0.6098 -0.1310 -0.3918
16174TIP3   OH269936   6.524   4.903  13.456 -0.1231  0.1602  0.2068
16174TIP3    H169937   6.533   4.974  13.393  1.1756  0.1684  0.3864
16174TIP3    H269938   6.557   4.826  13.409  0.6823  0.1330  0.8030
16175TIP3   OH269939   2.499   5.128  13.958  0.2341 -0.5821 -0.4730
16175TIP3    H169940   2.429   5.193  13.954  0.8864  0.0743 -2.4387
16175TIP3    H269941   2.475   5.063  13.892  1.0010 -0.8629 -0.4880
16176TIP3   OH269942   6.616   1.804  13.213  0.0075 -0.1264  0.7996
16176TIP3    H169943   6.679   1.784  13.144  1.0710 -0.3506  1.8112
16176TIP3    H269944   6.536   1.829  13.166  0.5010 -0.9132 -0.4977
16177TIP3   OH269945   3.904   1.456   3.850  0.1603 -0.1995  0.1048
16177TIP3    H169946   3.956   1.395   3.902  1.0082  0.6481  0.2812
16177TIP3    H269947   3.952   1.538   3.855 -1.6535  0.8576  0.9904
16178TIP3   OH269948   0.354   1.010   2.322 -0.3581 -0.1838 -0.7262
16178TIP3    H169949   0.396   0.931   2.356  0.0110 -1.2290 -3.3786
16178TIP3    H269950   0.387   1.018   2.232 -0.6845  2.7926 -0.6836
16179TIP3   OH269951   3.710   2.583   0.691  0.3087 -0.4935 -0.1896
16179TIP3    H169952   3.767   2.528   0.745  0.2578  0.4158  0.8292
16179TIP3    H269953   3.630   2.532   0.680 -0.2802 -0.1112  1.8993
16180TIP3   OH269954   1.789   3.575   3.304  0.4316 -0.0516 -0.0274
16180TIP3    H169955   1.764   3.651   3.253  1.1314  0.3138  0.1626
16180TIP3    H269956   1.708   3.526   3.315  0.2089  0.0233 -1.2030
16181TIP3   OH269957   4.126   2.841  12.013 -0.5831  0.5693  0.2759
16181TIP3    H169958   4.151   2.854  11.922  0.6646  1.6229  0.7432
16181TIP3    H269959   4.189   2.893  12.064 -1.4179  0.2372  1.7249
16182TIP3   OH269960   1.136   6.485   1.458  0.3214 -0.1093  0.3249
16182TIP3    H169961   1.164   6.549   1.393 -0.2550  1.4206  1.5101
16182TIP3    H269962   1.072   6.429   1.412  1.8552 -0.7641 -1.1120
16183TIP3   OH269963   3.676   4.013   5.774  0.0368  0.4965  0.7890
16183TIP3    H169964   3.584   4.000   5.797 -0.2872  2.7188  0.9263
16183TIP3    H269965   3.724   3.987   5.852 -0.3673 -1.4726  0.4442
16184TIP3   OH269966   2.053   0.095   4.819  0.0443 -0.0393 -0.4474
16184TIP3    H169967   2.017   0.128   4.737  1.9389 -0.2407 -1.4230
16184TIP3    H269968   2.016   0.007   4.828 -0.5230  0.1547 -0.8527
16185TIP3   OH269969   4.751   2.160  13.786  0.5686 -0.2020 -0.4286
16185TIP3    H169970   4.839   2.139  13.817  0.9784  0.2684 -1.2419
16185TIP3    H269971   4.701   2.177  13.865  0.9968 -1.2673  0.0891
16186TIP3   OH269972   5.258   6.667  11.530 -0.1147 -0.6703  0.4495
16186TIP3    H169973   5.215   6.600  11.583 -1.6981 -0.7168 -0.8225
16186TIP3    H269974   5.188   6.728  11.506  0.3658 -1.0344 -2.1565
16187TIP3   OH269975   0.518   5.483   6.321 -0.0287 -0.0990  0.1925
16187TIP3    H169976   0.593   5.479   6.381 -0.4269  1.2209  0.8285
16187TIP3    H269977   0.545   5.546   6.254 -0.3992  0.0716  0.2002
16188TIP3   OH269978   4.826   2.310  17.506 -0.7486 -0.1079 -0.5272
16188TIP3    H169979   4.831   2.313  17.602  2.3440 -2.1357 -0.5060
16188TIP3    H269980   4.887   2.376  17.476  0.0289 -1.0361 -1.0394
16189TIP3   OH269981   2.021   1.197  15.086  0.7867  0.4948  0.2180
16189TIP3    H169982   2.108   1.230  15.064  0.7029  0.8156  0.3662
16189TIP3    H269983   2.036   1.109  15.120  0.9483  0.0857 -0.8541
16190TIP3   OH269984   5.534   2.854  13.457  0.6299 -0.3177 -0.7157
16190TIP3    H169985   5.537   2.948  13.478  0.5485 -0.3429 -0.5924
16190TIP3    H269986   5.622   2.823  13.477  0.5143 -0.3676 -0.2947
16191TIP3   OH269987   5.457   0.921   5.106 -0.0507 -0.5847 -0.2243
16191TIP3    H169988   5.445   0.942   5.198  0.6543  0.4029 -0.3483
16191TIP3    H269989   5.368   0.900   5.075 -0.5841  0.8613  0.2514
16192TIP3   OH269990   1.128   3.030  15.060  0.1333  0.0497  1.0956
16192TIP3    H169991   1.089   3.053  15.145  0.5634  1.0367  1.0470
16192TIP3    H269992   1.209   3.082  15.056 -1.5908  2.9258 -1.4157
16193TIP3   OH269993   2.077   3.188   5.529 -0.1794 -0.3875 -0.1992
16193TIP3    H169994   2.059   3.119   5.465  0.2086 -1.4593  0.8219
16193TIP3    H269995   2.066   3.146   5.614  0.6469  0.6496  0.4490
16194TIP3   OH269996   3.123   6.419  17.008 -0.1023 -0.2406  0.3470
16194TIP3    H169997   3.196   6.360  17.023 -1.0237 -0.9943  2.1628
16194TIP3    H269998   3.154   6.504  17.039  0.1944 -0.4426  0.6123
16195TIP3   OH269999   6.364   3.187   5.640 -0.4198 -0.7657 -0.0749
16195TIP3    H170000   6.327   3.101   5.658 -0.7557 -0.3210  1.4855
16195TIP3    H270001   6.291   3.248   5.653 -0.4633 -0.2938 -2.1746
16196TIP3   OH270002   3.092   6.581   3.273  0.8948  0.0291  0.0892
16196TIP3    H170003   3.091   6.611   3.363  0.2405 -3.6356  1.4828
16196TIP3    H270004   3.184   6.583   3.247  1.0014  1.7982  0.5297
16197TIP3   OH270005   5.314   4.716   5.623 -0.4445  0.4610 -0.3562
16197TIP3    H170006   5.369   4.676   5.690  1.4166  0.5368 -1.7443
16197TIP3    H270007   5.252   4.647   5.599 -0.5300  0.1323  0.7709
16198TIP3   OH270008   1.932   5.538  16.989 -0.4160 -0.4745 -0.2461
16198TIP3    H170009   1.916   5.538  16.894  0.6205 -2.0176 -0.4572
16198TIP3    H270010   2.015   5.491  16.999 -0.1373  0.3095  1.3861
16199TIP3   OH270011   3.401   0.223  10.835  0.1675 -0.2064  0.0947
16199TIP3    H170012   3.309   0.218  10.862 -0.3024  0.6167 -1.2446
16199TIP3    H270013   3.408   0.161  10.762  0.0948  1.2882 -1.2467
16200TIP3   OH270014   6.009   1.057   3.080  0.2505 -0.3637 -0.1520
16200TIP3    H170015   6.089   1.101   3.051 -0.2041  1.1481  0.7928
16200TIP3    H270016   6.000   0.982   3.020  1.6739  0.1577 -1.0669
16201TIP3   OH270017   6.712   0.095  11.725  0.5458  0.0835 -0.3733
16201TIP3    H170018   6.699   0.152  11.650 -0.7502 -0.3264 -0.4945
16201TIP3    H270019   6.739   0.011  11.688  2.3710  0.5623 -0.2012
16202TIP3   OH270020   4.601   5.107   4.911  0.4235 -0.3047  0.0371
16202TIP3    H170021   4.616   5.201   4.902  1.9039 -0.4915  0.1977
16202TIP3    H270022   4.586   5.093   5.005 -1.9477  0.0074 -0.2440
16203TIP3   OH270023   6.392   3.970  13.998 -0.5836 -0.3080  0.2546
16203TIP3    H170024   6.318   4.008  14.045 -0.8806  0.7916 -1.0363
16203TIP3    H270025   6.362   3.963  13.907  0.2112 -1.7133  0.0711
16204TIP3   OH270026   6.575   3.967  16.253 -0.2570 -0.3019  0.0277
16204TIP3    H170027   6.602   4.031  16.188  0.8728  0.0253  0.7811
16204TIP3    H270028   6.559   3.887  16.203  2.1374 -0.5247 -0.5322
16205TIP3   OH270029   5.097   6.652   4.502  0.5751 -0.1297  0.5375
16205TIP3    H170030   5.145   6.683   4.426  0.6547 -0.1976  0.5599
16205TIP3    H270031   5.029   6.718   4.516  0.5357 -0.1362  0.3850
16206TIP3   OH270032   5.379   4.243   3.591  0.3990  1.1519 -0.1147
16206TIP3    H170033   5.346   4.171   3.537  1.1255  0.8566 -0.1743
16206TIP3    H270034   5.466   4.262   3.555  1.1918  0.4809  1.3978
16207TIP3   OH270035   1.568   6.597  13.248  0.3868  0.2694 -0.4836
16207TIP3    H170036   1.475   6.575  13.257  0.5007  0.2389  0.6877
16207TIP3    H270037   1.574   6.689  13.276  0.7465  0.2044 -0.3405
16208TIP3   OH270038   3.842   2.181  14.657  0.2508  0.5657  0.3435
16208TIP3    H170039   3.872   2.262  14.700 -1.3503  2.8162 -2.3720
16208TIP3    H270040   3.747   2.186  14.661  0.0689  0.1901 -2.0769
16209TIP3   OH270041   5.682   5.055  17.089 -0.0109  0.1536 -0.8346
16209TIP3    H170042   5.772   5.067  17.059 -1.0685  2.4524 -3.5267
16209TIP3    H270043   5.646   4.989  17.031 -0.1840 -0.4937 -0.0028
16210TIP3   OH270044   2.466   6.550  16.784 -1.1449  0.3548 -0.4064
16210TIP3    H170045   2.543   6.605  16.772 -0.4692 -0.1726  1.1867
16210TIP3    H270046   2.407   6.603  16.836  0.1947 -0.8715  2.6194
16211TIP3   OH270047   1.428   3.098  16.065 -0.1420  0.4295  0.3155
16211TIP3    H170048   1.409   3.008  16.038 -0.5464  1.2264 -2.3082
16211TIP3    H270049   1.450   3.091  16.158 -1.2597 -2.2105  0.4575
16212TIP3   OH270050   2.301   6.065  12.777 -0.0103 -0.4747 -0.0336
16212TIP3    H170051   2.334   5.987  12.731  1.9375  0.9443 -1.1754
16212TIP3    H270052   2.373   6.128  12.773 -1.3709  1.2568  1.2313
16213TIP3   OH270053   1.579   2.800   1.724 -0.2421 -0.9273  0.3585
16213TIP3    H170054   1.571   2.808   1.629  3.0788  2.2258  0.1619
16213TIP3    H270055   1.496   2.836   1.757 -0.3896  0.4521 -1.3457
16214TIP3   OH270056   0.479   0.998  12.366 -0.4507  0.2587 -0.3495
16214TIP3    H170057   0.572   0.988  12.389 -0.2524  1.4928 -0.5522
16214TIP3    H270058   0.479   1.056  12.291 -1.3482 -0.5624 -1.0079
16215TIP3   OH270059   2.621   4.045  16.289 -0.0567  0.1133 -0.5968
16215TIP3    H170060   2.535   4.017  16.255  0.8802 -1.5672 -1.7398
16215TIP3    H270061   2.681   4.032  16.216  0.8864  3.3924 -0.5507
16216TIP3   OH270062   4.593   5.500  16.283 -0.4175  0.3586 -0.7352
16216TIP3    H170063   4.586   5.408  16.307 -1.2125  0.2404 -1.3564
16216TIP3    H270064   4.504   5.534  16.294  0.1754  1.4841  1.1186
16217TIP3   OH270065   2.324   3.920   4.766 -0.5462  0.2138 -0.2063
16217TIP3    H170066   2.303   3.870   4.687 -2.0134  0.6399 -0.1260
16217TIP3    H270067   2.239   3.951   4.797 -0.1265 -0.7021  2.0629
16218TIP3   OH270068   4.347   5.464   3.778 -1.1530 -0.6464  0.5197
16218TIP3    H170069   4.285   5.451   3.705  0.6472 -0.7656 -1.0528
16218TIP3    H270070   4.403   5.387   3.776  2.1569  1.5336 -1.3523
16219TIP3   OH270071   4.002   5.075   5.256 -0.2262 -0.0025 -0.1902
16219TIP3    H170072   4.017   5.146   5.318 -0.3726 -1.0941  1.1617
16219TIP3    H270073   4.000   5.117   5.170  1.4618  1.3675  0.3856
16220TIP3   OH270074   5.814   5.949   5.590 -0.8597  0.0673  0.0902
16220TIP3    H170075   5.827   5.997   5.508 -0.7779 -0.6382 -0.3126
16220TIP3    H270076   5.723   5.919   5.587 -1.2408  1.0871  0.8286
16221TIP3   OH270077   0.299   5.741  13.310 -0.3721 -0.1667  0.3585
16221TIP3    H170078   0.350   5.665  13.337 -0.9269 -0.4070  0.7500
16221TIP3    H270079   0.327   5.759  13.220  1.0822  0.2855  0.8691
16222TIP3   OH270080   4.994   1.744   6.570  0.4338  0.2761 -0.4134
16222TIP3    H170081   4.999   1.655   6.535  0.1313  0.1331 -0.0976
16222TIP3    H270082   4.901   1.759   6.584  0.3514  1.1303 -1.6960
16223TIP3   OH270083   1.573   2.661  17.394 -0.4983  0.0346 -0.0314
16223TIP3    H170084   1.611   2.575  17.373  0.6909 -0.1141  2.3915
16223TIP3    H270085   1.644   2.723  17.377  0.0717  0.0377  2.1094
16224TIP3   OH270086   0.533   0.548   3.930  0.0789 -0.0444 -0.0198
16224TIP3    H170087   0.590   0.476   3.903  0.1878  0.9362 -2.7529
16224TIP3    H270088   0.450   0.532   3.885 -1.2196 -0.3602  2.2990
16225TIP3   OH270089   4.920   3.906  14.458  0.5885 -0.0030 -0.1032
16225TIP3    H170090   5.007   3.878  14.427  0.0683 -0.7484 -0.9256
16225TIP3    H270091   4.936   3.993  14.497  1.6336  0.0490 -0.5992
16226TIP3   OH270092   6.580   5.158   5.377 -0.6186 -0.2642  0.2672
16226TIP3    H170093   6.560   5.247   5.350  1.0142 -0.1011 -0.4981
16226TIP3    H270094   6.579   5.161   5.473 -1.1929  0.4019  0.2473
16227TIP3   OH270095   2.096   1.635  11.738 -0.2252 -0.2842  0.6348
16227TIP3    H170096   2.143   1.713  11.769 -1.8782  0.8164  0.5173
16227TIP3    H270097   2.143   1.609  11.659 -0.0877  1.0669  0.2461
16228TIP3   OH270098   1.373   1.811   1.986  0.1153  0.5730  0.4864
16228TIP3    H170099   1.404   1.871   1.918 -2.4896  1.1019 -0.3585
16228TIP3    H270100   1.296   1.769   1.947 -0.0356 -0.9139  2.2706
16229TIP3   OH270101   6.261   3.425   3.113 -0.2786  0.1673  0.2575
16229TIP3    H170102   6.240   3.490   3.181 -1.9474 -1.0901  1.0032
16229TIP3    H270103   6.177   3.383   3.094  0.6246 -1.2177 -0.7887
16230TIP3   OH270104   4.933   0.891  14.048 -0.2724  0.2840 -0.4111
16230TIP3    H170105   4.910   0.929  14.133  2.3801  1.0929  0.0101
16230TIP3    H270106   4.970   0.963  13.998  0.3709 -0.7039 -1.4047
16231TIP3   OH270107   0.633   1.262  16.833 -0.0100  0.1025 -0.8544
16231TIP3    H170108   0.642   1.191  16.897 -1.0788 -1.7857 -2.6517
16231TIP3    H270109   0.666   1.340  16.878  0.5541 -1.3801  1.4753
16232TIP3   OH270110   1.484   6.583  11.766 -0.5729  0.0668  0.4345
16232TIP3    H170111   1.510   6.496  11.794 -2.5086 -0.1703  1.6683
16232TIP3    H270112   1.551   6.641  11.802 -1.0573 -0.6083  2.5761
16233TIP3   OH270113   2.419   4.408  14.977 -0.3040 -0.5751 -0.2619
16233TIP3    H170114   2.451   4.417  15.067  0.0657 -0.8598 -0.3616
16233TIP3    H270115   2.481   4.349  14.935  0.2011  0.4915 -1.0505
16234TIP3   OH270116   5.696   4.482   4.905 -0.2969 -1.3413  0.5831
16234TIP3    H170117   5.744   4.432   4.839  0.3471 -2.7974  2.0711
16234TIP3    H270118   5.714   4.573   4.884  2.7683 -1.8141  0.7538
16235TIP3   OH270119   3.066   3.622   0.412 -0.3172 -0.0673  0.1909
16235TIP3    H170120   2.974   3.629   0.388 -0.8159 -0.2707  1.9169
16235TIP3    H270121   3.091   3.533   0.386 -0.7366 -0.1593  0.0992
16236TIP3   OH270122   1.895   3.617   2.377 -0.7929 -0.1818  0.4396
16236TIP3    H170123   1.949   3.660   2.311 -1.7621  0.0639 -0.2236
16236TIP3    H270124   1.843   3.688   2.416 -1.2914 -0.5281  0.4179
16237TIP3   OH270125   5.632   4.966  16.615 -0.0168 -0.0885 -0.0214
16237TIP3    H170126   5.577   4.888  16.626 -0.6702  0.5111  1.1984
16237TIP3    H270127   5.702   4.955  16.679  0.7707 -0.3994 -0.9206
16238TIP3   OH270128   0.683   6.721   2.382  0.7296  0.2375 -0.2752
16238TIP3    H170129   0.681   6.760   2.295  0.7480  1.6569  0.3299
16238TIP3    H270130   0.678   6.796   2.442 -1.4713 -0.7613  0.9488
16239TIP3   OH270131   5.737   1.354  14.246 -0.5188 -0.4659  0.4409
16239TIP3    H170132   5.694   1.410  14.311 -1.7601 -1.6335  0.6763
16239TIP3    H270133   5.679   1.278  14.238 -0.8681  0.0031 -2.7017
16240TIP3   OH270134   2.206   3.632   3.669  0.3599 -0.1719 -0.1647
16240TIP3    H170135   2.144   3.598   3.604  0.7839 -0.7058 -0.2957
16240TIP3    H270136   2.270   3.682   3.617  1.0185 -1.0603 -0.2433
16241TIP3   OH270137   0.709   1.949  16.506  0.1821  0.2651  0.2970
16241TIP3    H170138   0.726   1.920  16.596 -0.3152  0.1158  0.3421
16241TIP3    H270139   0.614   1.949  16.498  0.0719  2.9084  0.6259
16242TIP3   OH270140   1.944   2.036  12.308 -0.0690 -0.2244 -0.3085
16242TIP3    H170141   1.975   2.028  12.398  0.5605 -0.2022 -0.5183
16242TIP3    H270142   1.936   2.130  12.293 -1.4091 -0.2479  0.1277
16243TIP3   OH270143   1.843   0.605   4.822  0.2459 -0.1274 -0.1583
16243TIP3    H170144   1.933   0.602   4.857 -1.0646 -5.9213  4.2175
16243TIP3    H270145   1.841   0.536   4.756 -1.2162 -1.0623  0.8166
16244TIP3   OH270146   2.778   4.916  14.813 -0.6105 -0.7338 -0.7511
16244TIP3    H170147   2.683   4.915  14.813 -0.7226  0.8714  1.7355
16244TIP3    H270148   2.803   4.824  14.811 -2.2449 -1.2205 -0.1504
16245TIP3   OH270149   5.429   0.624   3.331 -0.6234  0.2585  0.1343
16245TIP3    H170150   5.453   0.707   3.290 -0.7904 -0.3353 -1.2006
16245TIP3    H270151   5.501   0.565   3.309 -0.1790  0.1911  1.6267
16246TIP3   OH270152   3.187   3.114   2.057 -0.3606  0.4044 -0.0418
16246TIP3    H170153   3.130   3.078   1.988 -1.7148  2.8368 -0.3048
16246TIP3    H270154   3.151   3.078   2.138  1.3687 -2.6528 -0.4609
16247TIP3   OH270155   0.209   3.423  15.437  0.8536  0.3630 -0.2790
16247TIP3    H170156   0.119   3.394  15.449  0.0687  1.1628 -3.2021
16247TIP3    H270157   0.203   3.489  15.367  3.8292 -0.3834 -1.3866
16248TIP3   OH270158   0.266   3.845  12.536  0.3562 -0.0003  0.2637
16248TIP3    H170159   0.339   3.833  12.596 -0.2621  0.9424  1.2287
16248TIP3    H270160   0.200   3.782  12.565 -0.3623  1.1861  1.2797
16249TIP3   OH270161   1.307   1.381  15.265 -0.4585  0.3971  0.1496
16249TIP3    H170162   1.402   1.379  15.256 -0.4908  0.7377 -0.3130
16249TIP3    H270163   1.292   1.378  15.359 -0.0747 -2.2979  0.2152
16250TIP3   OH270164   4.795   1.245   0.966  0.1381  0.1973  0.0490
16250TIP3    H170165   4.864   1.257   0.900 -1.2742 -3.2991 -2.3863
16250TIP3    H270166   4.834   1.187   1.031 -0.2659 -1.5790 -1.2000
16251TIP3   OH270167   1.050   0.736   0.487  0.3568  0.3963  0.5395
16251TIP3    H170168   0.976   0.756   0.545 -0.7646 -1.9317  0.0412
16251TIP3    H270169   1.047   0.804   0.420 -0.8289  0.8359  1.0076
16252TIP3   OH270170   2.838   4.394  14.273  0.3131  0.6684 -0.1144
16252TIP3    H170171   2.928   4.371  14.249  0.2055  0.4079 -0.2730
16252TIP3    H270172   2.788   4.380  14.193 -0.1665 -0.8381  0.4252
16253TIP3   OH270173   4.363   2.094  15.460  0.0278 -0.1649  0.8694
16253TIP3    H170174   4.339   2.001  15.462  0.8628 -0.5568 -2.1389
16253TIP3    H270175   4.417   2.103  15.382 -0.3337  2.9592  0.8539
16254TIP3   OH270176   6.132   0.342  14.383 -0.6117 -0.9500 -0.2476
16254TIP3    H170177   6.202   0.352  14.448  0.3437  0.8314 -1.4531
16254TIP3    H270178   6.065   0.290  14.428  0.7059 -1.1873  1.5756
16255TIP3   OH270179   0.738   0.285   0.922 -0.3396  0.1878  0.4238
16255TIP3    H170180   0.662   0.254   0.872 -0.8460  1.6066  0.2594
16255TIP3    H270181   0.812   0.238   0.885 -0.8812  0.2688 -0.8074
16256TIP3   OH270182   5.308   4.872   1.490 -0.3060  0.1762  0.3955
16256TIP3    H170183   5.310   4.961   1.454 -0.5344  0.3931  0.9049
16256TIP3    H270184   5.378   4.826   1.444 -1.3473  0.0924 -1.1790
16257TIP3   OH270185   0.624   5.218  17.271 -0.5986  0.4729 -0.1621
16257TIP3    H170186   0.671   5.272  17.335 -1.7660  0.4771  0.7185
16257TIP3    H270187   0.665   5.240  17.187  1.2493  0.1509  0.5981
16258TIP3   OH270188   2.538   6.035   4.939 -0.2784 -0.1489  0.1443
16258TIP3    H170189   2.552   6.056   4.847 -2.3632  2.1090  0.2565
16258TIP3    H270190   2.470   5.968   4.938  0.5468 -1.0110  0.0503
16259TIP3   OH270191   6.733   2.656  15.448  0.4909  0.1158 -0.0829
16259TIP3    H170192   6.792   2.630  15.378 -0.5050  0.0882 -0.9354
16259TIP3    H270193   6.648   2.621  15.422 -0.1488  1.1590  0.5274
16260TIP3   OH270194   1.076   0.535  12.251 -0.1785 -0.0284 -0.1009
16260TIP3    H170195   1.035   0.572  12.329 -0.7546 -0.5623 -0.1466
16260TIP3    H270196   1.167   0.565  12.256  0.0890 -0.9495  1.3628
16261TIP3   OH270197   0.723   1.190   6.190 -0.0818 -0.2491 -0.4976
16261TIP3    H170198   0.730   1.277   6.152  0.9566  0.8203  1.9406
16261TIP3    H270199   0.775   1.134   6.132  1.0192  1.1829 -0.9526
16262TIP3   OH270200   2.214   1.998   0.496 -0.2807  0.2752 -0.1484
16262TIP3    H170201   2.229   2.053   0.419  0.3583  0.6180  0.2125
16262TIP3    H270202   2.301   1.985   0.534 -0.4318 -0.8794 -0.1463
16263TIP3   OH270203   0.697   4.402   1.247 -0.1470  0.0634 -0.0901
16263TIP3    H170204   0.630   4.406   1.314 -1.1113  1.0850 -1.0871
16263TIP3    H270205   0.763   4.341   1.283 -1.2951 -0.4987  1.1484
16264TIP3   OH270206   4.451   3.027   1.665 -0.7125  0.1821 -0.7769
16264TIP3    H170207   4.482   2.986   1.584  2.5236  0.1592  0.3369
16264TIP3    H270208   4.455   2.958   1.730 -2.0102  0.5487 -0.2635
16265TIP3   OH270209   3.535   3.488  13.057  0.2072 -0.5320  0.0496
16265TIP3    H170210   3.565   3.398  13.063 -0.0158 -0.5070  2.6646
16265TIP3    H270211   3.441   3.481  13.041  0.4173 -0.7088 -1.1953
16266TIP3   OH270212   5.815   0.305   2.251 -0.2335 -0.0360 -0.0259
16266TIP3    H170213   5.786   0.239   2.314  0.9973  0.0082  0.6246
16266TIP3    H270214   5.743   0.369   2.249 -0.8558 -0.7092  0.3481
16267TIP3   OH270215   1.433   5.231  11.651  1.3855  0.0911 -0.5378
16267TIP3    H170216   1.522   5.249  11.619  0.9407  0.4630 -1.6021
16267TIP3    H270217   1.443   5.154  11.707  2.3821  0.1413 -0.6278
16268TIP3   OH270218   4.002   0.921   3.825  0.3065  0.3011 -0.3030
16268TIP3    H170219   3.965   0.992   3.878 -0.5843 -0.9003  0.7816
16268TIP3    H270220   3.926   0.865   3.805  1.1348 -0.9031 -0.1842
16269TIP3   OH270221   4.684   0.575   1.154 -0.1292  0.5002 -0.4370
16269TIP3    H170222   4.724   0.586   1.067 -0.2896 -0.4710 -0.6402
16269TIP3    H270223   4.596   0.611   1.143 -0.8514 -1.3815 -1.2642
16270TIP3   OH270224   2.545   6.575  12.733 -0.4969 -0.3151  0.0481
16270TIP3    H170225   2.570   6.662  12.763  1.8955 -0.5624 -1.0306
16270TIP3    H270226   2.596   6.561  12.654 -1.4182 -2.4138 -0.2465
16271TIP3   OH270227   4.897   1.289  16.124  0.2305 -0.1031 -0.5539
16271TIP3    H170228   4.962   1.262  16.059 -0.6165  0.4007 -1.6384
16271TIP3    H270229   4.943   1.282  16.208  1.5498 -0.1571 -1.2512
16272TIP3   OH270230   3.021   2.271   0.518 -0.0951  0.1699  0.1569
16272TIP3    H170231   3.004   2.181   0.490 -0.3123  0.3695 -0.3829
16272TIP3    H270232   3.102   2.266   0.568  0.7930 -0.0872 -1.2434
16273TIP3   OH270233   5.591   5.880   4.988 -0.8589  0.0409  0.1777
16273TIP3    H170234   5.651   5.898   5.061 -0.6502  0.3887 -0.0734
16273TIP3    H270235   5.560   5.791   5.004 -1.4858  0.4167  1.1643
16274TIP3   OH270236   5.560   5.018  12.923  0.2681  0.1868 -0.0266
16274TIP3    H170237   5.558   4.923  12.934 -1.2590  0.3398  1.3388
16274TIP3    H270238   5.574   5.051  13.011  0.7725  1.2509 -0.4925
16275TIP3   OH270239   5.105   2.733  12.557 -0.1647 -0.0819  0.6237
16275TIP3    H170240   5.193   2.698  12.562 -0.6239 -1.0625  2.6699
16275TIP3    H270241   5.078   2.717  12.466  2.4458  2.1956 -0.7179
16276TIP3   OH270242   4.771   2.529   5.351  0.3221 -0.1744  0.4907
16276TIP3    H170243   4.842   2.473   5.381  0.9336  0.1102 -0.3981
16276TIP3    H270244   4.717   2.472   5.296  1.0563  0.1281 -0.5810
16277TIP3   OH270245   1.365   0.293   2.472  0.4022 -0.1178  0.0880
16277TIP3    H170246   1.452   0.310   2.437  0.9852  0.7123  1.8149
16277TIP3    H270247   1.329   0.380   2.491  0.8102 -0.4691  3.0145
16278TIP3   OH270248   0.931   6.352  13.823 -0.3580  0.0768  0.7779
16278TIP3    H170249   0.844   6.321  13.849 -0.6894  0.1049 -0.2455
16278TIP3    H270250   0.977   6.272  13.797 -0.2010  0.1032  0.9786
16279TIP3   OH270251   1.638   3.822   5.195  0.6085 -0.0749  0.0297
16279TIP3    H170252   1.589   3.841   5.115  1.7504 -0.6923 -0.8399
16279TIP3    H270253   1.696   3.897   5.206  2.9470 -1.5114 -1.7154
16280TIP3   OH270254   5.889   5.029  13.145  0.0918  0.2604 -0.4782
16280TIP3    H170255   5.968   5.002  13.191  0.5407  0.5841 -1.0448
16280TIP3    H270256   5.817   4.999  13.201  0.5683 -1.3649 -0.6867
16281TIP3   OH270257   0.887   4.479   2.500  0.2686  0.0670  0.1278
16281TIP3    H170258   0.943   4.529   2.441  0.7607 -1.6594 -0.9419
16281TIP3    H270259   0.843   4.545   2.554 -0.0779  1.7020 -2.0520
16282TIP3   OH270260   4.884   0.194   1.487 -0.3307 -0.5832  0.1810
16282TIP3    H170261   4.950   0.198   1.418  0.8174  2.8347  1.3053
16282TIP3    H270262   4.872   0.100   1.503  1.5023 -1.4057 -2.5749
16283TIP3   OH270263   4.004   2.336  15.200 -0.3958  0.6869  0.5273
16283TIP3    H170264   3.934   2.356  15.262 -1.7006  2.3279 -1.3714
16283TIP3    H270265   3.979   2.251  15.162 -0.5176  0.5199  0.9802
16284TIP3   OH270266   5.927   4.818   1.707  0.1924 -0.1032 -0.5295
16284TIP3    H170267   5.887   4.860   1.783 -1.1038 -1.5820 -0.3559
16284TIP3    H270268   5.916   4.724   1.722  4.3105 -0.7085 -0.1945
16285TIP3   OH270269   2.568   5.603  13.394 -0.7390  0.0438  0.1819
16285TIP3    H170270   2.517   5.603  13.313 -2.3882 -0.3948  1.1774
16285TIP3    H270271   2.502   5.606  13.463  0.5666 -1.3242  1.5482
16286TIP3   OH270272   4.829   3.384   5.181 -0.3216 -0.4599  0.6413
16286TIP3    H170273   4.907   3.432   5.149 -1.1180 -0.3673 -1.3084
16286TIP3    H270274   4.864   3.301   5.213  0.7439  0.2027  1.3024
16287TIP3   OH270275   6.457   1.793  12.345  0.2655 -0.2720  0.1749
16287TIP3    H170276   6.443   1.720  12.406 -1.5551  0.9862  1.3406
16287TIP3    H270277   6.397   1.861  12.374  2.2163  1.9007 -0.6051
16288TIP3   OH270278   2.680   5.336   0.865  0.4515  0.3659 -0.0438
16288TIP3    H170279   2.603   5.279   0.866 -0.2157  1.2088 -1.4242
16288TIP3    H270280   2.667   5.393   0.790  2.1468  0.9270  0.0485
16289TIP3   OH270281   2.135   5.639  16.718 -0.2453 -0.3668  0.2794
16289TIP3    H170282   2.079   5.685  16.781 -1.6100 -0.5635 -0.7518
16289TIP3    H270283   2.080   5.570  16.681  1.3794 -2.0502  0.8551
16290TIP3   OH270284   0.097   1.455  13.027  0.0737 -0.1407  0.5555
16290TIP3    H170285   0.166   1.419  12.971  1.5127  2.6086  0.3933
16290TIP3    H270286   0.139   1.464  13.113 -0.4318  0.5773  0.7333
16291TIP3   OH270287   4.194   3.032   0.474  0.3849 -0.5098  0.0951
16291TIP3    H170288   4.215   2.939   0.464  0.0228 -0.5683 -0.1219
16291TIP3    H270289   4.169   3.061   0.387 -2.4802 -0.9533  0.6678
16292TIP3   OH270290   5.717   5.402   0.612 -0.1632 -0.1457 -0.4549
16292TIP3    H170291   5.806   5.429   0.636 -0.7689  2.0503 -0.5221
16292TIP3    H270292   5.730   5.328   0.552  1.5402 -1.1067  0.9848
16293TIP3   OH270293   6.548   4.376  12.965  0.2285  0.5534  0.1757
16293TIP3    H170294   6.507   4.427  13.035  0.3965  0.3599  0.4131
16293TIP3    H270295   6.593   4.304  13.009  0.6061  0.6126 -0.1070
16294TIP3   OH270296   4.532   6.326  11.614  0.2526 -0.0363 -0.4095
16294TIP3    H170297   4.532   6.240  11.571 -2.1432  0.3883 -1.4353
16294TIP3    H270298   4.505   6.308  11.704 -0.9119 -0.3359 -0.7976
16295TIP3   OH270299   5.245   5.581   6.230  0.2810  0.4042  0.3995
16295TIP3    H170300   5.224   5.543   6.145  1.6355  0.6325 -0.0612
16295TIP3    H270301   5.334   5.616   6.220 -0.0410  1.6312  1.5011
16296TIP3   OH270302   4.450   1.916  17.268  0.3410  0.8191 -0.2755
16296TIP3    H170303   4.429   1.977  17.339  0.5334  0.2015  0.3281
16296TIP3    H270304   4.527   1.869  17.300 -1.1066 -1.3192  0.2702
16297TIP3   OH270305   4.112   2.911  14.076  0.0923 -0.0714  0.1999
16297TIP3    H170306   4.198   2.947  14.056  2.4373 -3.9860  2.0170
16297TIP3    H270307   4.130   2.833  14.130 -4.7006 -0.2494  2.0510
16298TIP3   OH270308   6.558   2.385   4.869 -0.6316  0.2326 -0.5908
16298TIP3    H170309   6.644   2.361   4.832 -0.4870  1.2171 -0.9090
16298TIP3    H270310   6.505   2.410   4.793 -0.7875  0.8855 -0.2760
16299TIP3   OH270311   1.178   1.136   3.067  0.3115 -0.3699  0.0987
16299TIP3    H170312   1.093   1.179   3.062  0.5633  0.1108 -0.1593
16299TIP3    H270313   1.235   1.189   3.011  0.0041 -2.6252 -2.5554
16300TIP3   OH270314   5.285   6.008   3.005 -0.0631 -0.8131 -0.0975
16300TIP3    H170315   5.300   5.922   2.966  1.3835  0.4716 -2.5805
16300TIP3    H270316   5.362   6.059   2.982 -2.4671  2.2782 -1.9909
16301TIP3   OH270317   4.252   5.336   2.147  0.2047 -0.0385 -0.8973
16301TIP3    H170318   4.221   5.419   2.112  0.8944  0.4988 -0.2656
16301TIP3    H270319   4.239   5.343   2.241  1.7856  0.0284 -0.6553
16302TIP3   OH270320   2.943   0.025  13.659 -0.3809  0.4475 -0.1699
16302TIP3    H170321   2.855   0.029  13.698  0.1859 -1.2755  1.4446
16302TIP3    H270322   2.928   0.037  13.565 -2.3764 -0.0369  0.0379
16303TIP3   OH270323   5.441   0.542   1.561  0.1756 -0.2926 -0.2941
16303TIP3    H170324   5.507   0.474   1.569  1.9595  1.3003 -0.8010
16303TIP3    H270325   5.487   0.623   1.583 -1.9424  0.7403  0.6097
16304TIP3   OH270326   5.464   0.942   3.319 -0.4957 -0.6942 -0.6760
16304TIP3    H170327   5.556   0.960   3.299 -0.8042 -0.5466 -2.0793
16304TIP3    H270328   5.417   0.968   3.240 -1.7297 -0.9495 -0.0482
16305TIP3   OH270329   6.055   6.006  12.755 -0.0587 -0.3575  0.2051
16305TIP3    H170330   6.029   5.963  12.836 -1.0138  0.6730  0.4655
16305TIP3    H270331   6.031   6.097  12.767  1.7349  0.2407 -0.4200
16306TIP3   OH270332   3.695   3.021   3.649  0.0741 -0.1901 -0.2084
16306TIP3    H170333   3.717   3.038   3.558  0.8664  1.1063  0.1913
16306TIP3    H270334   3.603   2.995   3.648  0.2520 -0.8201 -1.4305
16307TIP3   OH270335   5.645   2.558  15.469 -1.0627 -0.6485 -0.2554
16307TIP3    H170336   5.730   2.588  15.437 -0.5407 -1.4789  0.3270
16307TIP3    H270337   5.583   2.626  15.440  0.0914  1.0436  1.1165
16308TIP3   OH270338   4.326   4.732  12.786 -0.7776 -0.0993  0.2221
16308TIP3    H170339   4.405   4.679  12.778 -0.3076  0.7322 -0.9594
16308TIP3    H270340   4.258   4.679  12.745 -0.2627  0.2789 -1.1631
16309TIP3   OH270341   4.848   4.074   3.873  0.3686 -0.2098 -0.0225
16309TIP3    H170342   4.814   4.161   3.890  0.2556 -0.4080  0.8021
16309TIP3    H270343   4.770   4.018   3.868  0.4595 -0.3225 -0.2132
16310TIP3   OH270344   2.205   3.407  13.972  0.0729 -0.7801  0.0646
16310TIP3    H170345   2.275   3.393  14.035 -0.9713 -1.3282  1.1430
16310TIP3    H270346   2.175   3.497  13.989 -0.3930 -1.0209  0.5772
16311TIP3   OH270347   4.314   4.928   0.772 -0.0953  0.2264  0.3996
16311TIP3    H170348   4.257   4.949   0.846  1.2955  2.7222  0.8759
16311TIP3    H270349   4.396   4.973   0.791  0.6532  0.1175 -2.1674
16312TIP3   OH270350   1.891   0.449  16.454 -0.5499 -0.2897 -0.2317
16312TIP3    H170351   1.824   0.474  16.517  0.1649 -0.4082  0.5960
16312TIP3    H270352   1.970   0.437  16.507  0.1999  0.1463 -1.2281
16313TIP3   OH270353   3.641   4.556  16.684 -0.1043  0.0014  0.2121
16313TIP3    H170354   3.685   4.588  16.763 -1.0819 -0.1277  0.8146
16313TIP3    H270355   3.597   4.633  16.649 -0.0239 -0.0384  0.0240
16314TIP3   OH270356   5.619   1.281   0.215  0.1991 -0.8825  0.3292
16314TIP3    H170357   5.550   1.263   0.152  2.4139 -1.4128 -2.1356
16314TIP3    H270358   5.599   1.225   0.290 -1.7187 -1.3689 -0.4969
16315TIP3   OH270359   5.761   6.117   5.352 -0.6337  0.6616  0.0428
16315TIP3    H170360   5.731   6.196   5.397  0.0418  1.6393 -1.1344
16315TIP3    H270361   5.740   6.134   5.260 -1.4752 -1.0220 -0.1081
16316TIP3   OH270362   2.048   4.237   0.037  0.3186  0.1265 -0.6599
16316TIP3    H170363   2.141   4.248   0.021  0.0130  2.5179 -1.1371
16316TIP3    H270364   2.024   4.313   0.091 -1.2824 -0.6703 -0.1876
16317TIP3   OH270365   5.452   2.275   0.717  0.4141  0.1849 -0.0329
16317TIP3    H170366   5.499   2.192   0.708  1.7061  0.9186 -0.1939
16317TIP3    H270367   5.360   2.251   0.706  0.8162 -1.1331 -0.7288
16318TIP3   OH270368   4.527   1.912  13.071  0.6256 -0.0438 -0.2916
16318TIP3    H170369   4.469   1.863  13.130  1.3262 -0.1038  0.3608
16318TIP3    H270370   4.584   1.845  13.033  1.4108  0.2176  0.4005
16319TIP3   OH270371   2.153   3.545   2.909  0.2213  0.7908  0.9964
16319TIP3    H170372   2.113   3.535   2.822  3.6525  1.9631 -0.9504
16319TIP3    H270373   2.093   3.501   2.969 -1.1318 -2.3743 -2.2981
16320TIP3   OH270374   3.929   2.711  12.159 -0.3411 -0.1857  0.4630
16320TIP3    H170375   4.008   2.745  12.116  0.0743 -0.5160  0.9439
16320TIP3    H270376   3.873   2.788  12.171 -0.3194 -0.0367 -0.3593
16321TIP3   OH270377   1.514   2.864   2.493  0.4718  0.1678 -0.9155
16321TIP3    H170378   1.439   2.922   2.484  0.5232  0.4319  0.1169
16321TIP3    H270379   1.526   2.824   2.407 -2.2993 -1.7054 -0.5454
16322TIP3   OH270380   3.764   1.445   4.116 -0.4988 -0.3238 -0.4800
16322TIP3    H170381   3.735   1.377   4.176  0.2271  0.7611  1.1945
16322TIP3    H270382   3.801   1.398   4.041 -1.3486 -1.7246 -0.0526
16323TIP3   OH270383   2.043   2.201  16.300 -0.1485 -0.1847  0.4951
16323TIP3    H170384   2.125   2.201  16.249 -0.3044 -1.6502  0.1867
16323TIP3    H270385   1.977   2.236  16.240  0.3315  1.6596  0.9672
16324TIP3   OH270386   2.487   3.236   4.318 -0.4424 -0.0404  0.1808
16324TIP3    H170387   2.562   3.294   4.331 -1.0760  1.3897 -1.9747
16324TIP3    H270388   2.413   3.296   4.307 -1.5015 -1.3526  0.0269
16325TIP3   OH270389   6.455   3.736   4.563  0.5745  0.1582 -0.7789
16325TIP3    H170390   6.373   3.781   4.581  1.4031  0.9322  1.4426
16325TIP3    H270391   6.520   3.806   4.560  1.1430 -0.3967 -2.8979
16326TIP3   OH270392   5.933   4.710  13.240  0.2646 -0.0956 -0.1941
16326TIP3    H170393   5.912   4.749  13.325  0.2025  0.8691 -0.6393
16326TIP3    H270394   5.996   4.770  13.201  1.8285 -1.5584 -0.0224
16327TIP3   OH270395   5.674   0.681   0.241 -0.2820  0.4338 -0.8232
16327TIP3    H170396   5.638   0.681   0.330 -1.4886 -0.5034 -1.2909
16327TIP3    H270397   5.732   0.757   0.239 -0.4795  0.6530  0.6660
16328TIP3   OH270398   1.918   3.724   1.523  0.4322  0.3831  0.3209
16328TIP3    H170399   1.941   3.631   1.512 -1.5388  0.0995 -2.8669
16328TIP3    H270400   2.001   3.771   1.510  1.1336 -0.8820  0.0308
16329TIP3   OH270401   4.362   3.218   1.060  0.9561  0.6037  0.3076
16329TIP3    H170402   4.350   3.285   0.993 -2.3392 -0.4918 -0.4084
16329TIP3    H270403   4.392   3.141   1.012 -2.4646 -0.5165 -0.3216
16330TIP3   OH270404   3.394   2.771  12.198 -0.4690 -0.2588 -0.1729
16330TIP3    H170405   3.344   2.730  12.269 -1.6366  1.4800  0.0727
16330TIP3    H270406   3.339   2.761  12.121  0.6040 -1.7525 -0.8017
16331TIP3   OH270407   4.487   6.218  16.509  0.4297  0.6843 -0.2504
16331TIP3    H170408   4.543   6.274  16.456  0.1839  0.1523 -1.0878
16331TIP3    H270409   4.401   6.222  16.466 -0.0912  1.1849  0.7935
16332TIP3   OH270410   4.059   0.822   4.894  0.2045  0.5253 -0.2899
16332TIP3    H170411   4.083   0.762   4.965  1.1464  0.1210 -0.9227
16332TIP3    H270412   3.987   0.874   4.930 -0.2931 -0.6307  0.4575
16333TIP3   OH270413   2.989   5.138  17.206 -0.3136  0.2686  0.2565
16333TIP3    H170414   3.068   5.090  17.180 -1.3593  0.1945 -3.4056
16333TIP3    H270415   3.006   5.228  17.178 -0.9155  0.5835  0.8857
16334TIP3   OH270416   4.315   0.380   3.739  0.5280  0.4542 -0.7103
16334TIP3    H170417   4.298   0.288   3.718  1.0639  0.6164 -1.9787
16334TIP3    H270418   4.409   0.383   3.756  0.3098  0.5632  0.5669
16335TIP3   OH270419   0.616   1.418   4.386  0.4613  0.4842  0.0424
16335TIP3    H170420   0.522   1.413   4.403  0.4516  0.1489 -0.1150
16335TIP3    H270421   0.623   1.425   4.291  0.5374  1.9106  0.1280
16336TIP3   OH270422   0.328   0.290  12.447 -0.0009 -0.1638 -0.1540
16336TIP3    H170423   0.260   0.250  12.501  0.7140 -0.3946  0.5920
16336TIP3    H270424   0.317   0.249  12.361 -0.8210 -0.1749 -0.0497
16337TIP3   OH270425   4.714   3.315   4.698 -0.8736  0.5154  0.2665
16337TIP3    H170426   4.726   3.296   4.605 -0.9982  1.4021  0.0686
16337TIP3    H270427   4.680   3.233   4.734 -1.1834  0.2811 -0.5337
16338TIP3   OH270428   3.748   6.473  10.898 -0.7291 -0.6039 -0.6429
16338TIP3    H170429   3.736   6.529  10.821  0.4518  1.7347  0.7438
16338TIP3    H270430   3.828   6.425  10.881  0.9021  1.7083  0.0158
16339TIP3   OH270431   0.286   0.415  15.915  0.9897 -0.3913  0.3973
16339TIP3    H170432   0.286   0.454  16.002  0.4000 -1.0428  0.6994
16339TIP3    H270433   0.215   0.351  15.917 -1.9107  2.4397 -1.8923
16340TIP3   OH270434   0.900   2.693   2.452 -0.0436 -0.3135  0.2009
16340TIP3    H170435   0.805   2.695   2.466 -0.0455  0.9703  0.0407
16340TIP3    H270436   0.918   2.766   2.393  0.8452 -1.5550 -1.1508
16341TIP3   OH270437   3.250   4.923  13.327  0.1019  0.0564  0.6850
16341TIP3    H170438   3.165   4.963  13.346 -1.3310 -2.0818 -0.8142
16341TIP3    H270439   3.245   4.836  13.365  0.5364 -1.1028 -1.7452
16342TIP3   OH270440   2.048   2.850   4.364  0.5161 -0.5432 -0.6444
16342TIP3    H170441   1.971   2.870   4.311  0.3063 -0.2925 -0.2470
16342TIP3    H270442   2.121   2.850   4.301  0.3902  0.5448 -0.8060
16343TIP3   OH270443   4.683   5.863   5.251 -0.5917  0.1942 -0.1234
16343TIP3    H170444   4.712   5.948   5.217  0.7826  0.3940  1.4164
16343TIP3    H270445   4.610   5.884   5.309 -1.3061  0.1303 -0.9881
16344TIP3   OH270446   4.656   0.567  13.234 -0.1720 -0.7080  0.3719
16344TIP3    H170447   4.673   0.481  13.196 -0.9099 -1.0156  0.7238
16344TIP3    H270448   4.625   0.548  13.323 -1.2822 -0.1263  0.1203
16345TIP3   OH270449   4.055   4.008  17.503 -0.4209  0.7552  0.0915
16345TIP3    H170450   4.080   4.067  17.432  0.4688  1.8240  1.2651
16345TIP3    H270451   3.963   4.029  17.520 -0.2623  1.4234  0.1376
16346TIP3   OH270452   0.238   2.351  11.270  0.0076  0.6076 -0.1547
16346TIP3    H170453   0.188   2.421  11.229  1.1462  0.6697 -1.5075
16346TIP3    H270454   0.232   2.278  11.210  0.4337  0.1795  0.3103
16347TIP3   OH270455   2.187   4.179   4.144  0.1225  0.0697 -0.7500
16347TIP3    H170456   2.241   4.163   4.221  0.1097 -3.6658 -1.3323
16347TIP3    H270457   2.248   4.212   4.078  0.4029  1.8398  0.3043
16348TIP3   OH270458   3.160   4.021  14.083 -0.9567  0.4437  0.1618
16348TIP3    H170459   3.238   4.051  14.130 -1.7714  2.4346  0.3410
16348TIP3    H270460   3.104   3.982  14.151 -0.9168  0.7209  0.3546
16349TIP3   OH270461   2.278   6.007  11.482 -0.2312 -0.4320  0.0988
16349TIP3    H170462   2.312   5.919  11.499  0.3938 -0.4416 -1.0552
16349TIP3    H270463   2.285   6.017  11.387  1.9109  1.6936  0.3799
16350TIP3   OH270464   0.663   5.664   3.209  0.3772 -0.5814 -0.6418
16350TIP3    H170465   0.607   5.685   3.134  0.4271  1.9786 -0.0688
16350TIP3    H270466   0.730   5.732   3.208  0.0836 -0.1635  1.9718
16351TIP3   OH270467   3.931   6.058   3.130  0.0342  0.7583  0.0068
16351TIP3    H170468   3.845   6.065   3.171  0.2291  1.3653  0.3233
16351TIP3    H270469   3.960   6.149   3.121  0.0218  0.6520 -1.4204
16352TIP3   OH270470   5.116   5.470   5.471  0.0721 -0.3089 -0.1947
16352TIP3    H170471   5.149   5.547   5.517 -1.0714 -0.5773  1.1488
16352TIP3    H270472   5.104   5.500   5.380 -3.4527  2.2179  0.8743
16353TIP3   OH270473   2.990   2.738   5.450  0.6499 -0.6327  0.4151
16353TIP3    H170474   2.908   2.787   5.451  1.0569  0.2033 -1.4777
16353TIP3    H270475   3.057   2.802   5.475  1.0062 -0.5610 -0.6354
16354TIP3   OH270476   4.488   0.376   2.148  0.7742 -0.4442 -0.1532
16354TIP3    H170477   4.406   0.409   2.184  2.0485  1.1102  1.5257
16354TIP3    H270478   4.521   0.316   2.215  1.1953 -0.7387 -0.6232
16355TIP3   OH270479   3.177   2.841   2.943 -0.0471  0.5996 -0.0640
16355TIP3    H170480   3.271   2.832   2.926 -0.4248 -1.4387 -1.3267
16355TIP3    H270481   3.135   2.789   2.875 -2.0806  0.6679  1.0742
16356TIP3   OH270482   4.829   1.869   1.383 -0.1721 -0.4058  0.0358
16356TIP3    H170483   4.924   1.859   1.378  0.2302  1.7427  1.6969
16356TIP3    H270484   4.810   1.945   1.327 -0.8415 -0.5247  0.0927
16357TIP3   OH270485   4.745   0.295   5.404  0.7919  0.3289  0.4557
16357TIP3    H170486   4.716   0.218   5.453  1.7942  0.0752  0.6743
16357TIP3    H270487   4.792   0.259   5.329  0.0323  0.7258 -0.2256
16358TIP3   OH270488   2.021   0.149  17.203  0.4674  0.0779  0.0832
16358TIP3    H170489   2.019   0.135  17.108  3.0593 -2.0128  0.2147
16358TIP3    H270490   2.034   0.061  17.240 -0.5708  0.8220  2.4244
16359TIP3   OH270491   4.514   6.375   4.869 -0.3594 -0.7786 -0.1259
16359TIP3    H170492   4.474   6.411   4.790  0.6594  0.2124 -0.2126
16359TIP3    H270493   4.480   6.286   4.874 -3.1870  0.2079  0.2474
16360TIP3   OH270494   6.462   0.258  17.161 -0.0568 -0.2480  0.2992
16360TIP3    H170495   6.541   0.205  17.151 -0.6228 -0.8276 -1.4185
16360TIP3    H270496   6.487   0.345  17.129  0.4824  0.2111  1.8555
16361TIP3   OH270497   6.596   1.843  16.008  0.1283 -0.6483 -0.4070
16361TIP3    H170498   6.519   1.803  15.966  0.2506  1.1356 -2.4928
16361TIP3    H270499   6.670   1.792  15.975  0.2366  0.8400 -2.6180
16362TIP3   OH270500   5.722   2.916  17.456 -0.1861  0.2679 -0.3056
16362TIP3    H170501   5.756   2.988  17.403  0.0289  0.3731 -0.0239
16362TIP3    H270502   5.797   2.886  17.506  0.0522 -1.0002 -1.3680
16363TIP3   OH270503   1.769   2.837  17.312 -0.3087  0.1235  0.0366
16363TIP3    H170504   1.810   2.792  17.238 -2.6952 -0.3851 -1.0524
16363TIP3    H270505   1.745   2.923  17.278  0.3886  0.6585  0.8515
16364TIP3   OH270506   1.709   0.520   0.191 -0.6051 -0.3184 -0.1343
16364TIP3    H170507   1.705   0.464   0.268 -0.7100 -1.5813 -1.0210
16364TIP3    H270508   1.681   0.606   0.222 -0.7855 -0.8315  1.1923
16365TIP3   OH270509   6.059   1.607  15.758 -0.5265  1.0896 -0.0731
16365TIP3    H170510   6.064   1.518  15.793  0.9360  0.5403 -1.5511
16365TIP3    H270511   6.064   1.663  15.835 -3.0833 -0.0688  1.0336
16366TIP3   OH270512   1.765   0.836  16.678 -0.4605  0.1204 -0.1436
16366TIP3    H170513   1.857   0.814  16.687 -0.6343 -1.3655 -1.4690
16366TIP3    H270514   1.746   0.821  16.585 -1.9624  0.6662  0.0496
16367TIP3   OH270515   5.365   5.214   1.950  0.3990  0.7371  0.2155
16367TIP3    H170516   5.337   5.305   1.949  0.8290  0.8991  1.1008
16367TIP3    H270517   5.386   5.197   2.042 -0.0150 -0.3638  0.1206
16368TIP3   OH270518   3.454   2.796  15.640  0.1059 -0.0973 -0.2702
16368TIP3    H170519   3.519   2.839  15.585  0.8649 -1.2420 -0.3052
16368TIP3    H270520   3.385   2.768  15.580 -0.0392  0.4027 -0.3443
16369TIP3   OH270521   6.220   5.994   6.475  0.1509  0.0273 -0.5263
16369TIP3    H170522   6.296   5.947   6.442 -0.8433 -1.1311 -1.2454
16369TIP3    H270523   6.181   5.936   6.540  0.6109  1.1880  0.8458
16370TIP3   OH270524   2.837   0.266   5.832  0.1889  0.3243 -0.4862
16370TIP3    H170525   2.858   0.329   5.901  1.4380 -0.0308 -0.5099
16370TIP3    H270526   2.743   0.276   5.817  0.5479  3.2079 -1.4720
16371TIP3   OH270527   0.788   4.997   1.719  0.3965  0.6453  0.6188
16371TIP3    H170528   0.826   5.082   1.739 -0.8694  1.4035 -0.0336
16371TIP3    H270529   0.847   4.933   1.760  0.9531  1.8559  1.7634
16372TIP3   OH270530   5.415   3.465   0.522 -0.3608 -0.6190  0.2076
16372TIP3    H170531   5.379   3.419   0.447 -0.2884  1.0978 -0.9444
16372TIP3    H270532   5.393   3.557   0.507  1.2103  0.0080  1.3848
16373TIP3   OH270533   6.218   2.668   5.710 -0.1331 -0.0442 -0.3083
16373TIP3    H170534   6.127   2.693   5.723  0.3230  0.6393  2.2013
16373TIP3    H270535   6.235   2.602   5.778  0.7054 -1.7797 -2.1085
16374TIP3   OH270536   1.253   3.557   3.802  0.7135  0.3621 -0.0447
16374TIP3    H170537   1.258   3.599   3.715  1.9563 -0.9212 -0.6245
16374TIP3    H270538   1.265   3.464   3.784  1.9691  0.1766  1.5974
16375TIP3   OH270539   6.680   1.291  12.297  0.1369  0.6557 -0.0950
16375TIP3    H170540   6.671   1.360  12.231 -1.2358  1.1437  0.5546
16375TIP3    H270541   6.665   1.336  12.381 -0.8503 -0.4323  0.3412
16376TIP3   OH270542   3.511   2.452  12.987 -0.1516  0.1729 -0.0148
16376TIP3    H170543   3.491   2.361  12.963  0.7813  0.0292 -0.2871
16376TIP3    H270544   3.427   2.497  12.983 -0.1256  0.1638 -3.5113
16377TIP3   OH270545   0.418   2.190   0.355  0.2594 -0.1797 -0.1466
16377TIP3    H170546   0.346   2.222   0.302  2.4268 -0.2027 -3.3897
16377TIP3    H270547   0.487   2.256   0.344  0.3762  0.7078  4.1400
16378TIP3   OH270548   2.127   6.577   0.177  0.3115 -0.4321  0.5862
16378TIP3    H170549   2.050   6.522   0.189 -0.8140  1.1163  0.7930
16378TIP3    H270550   2.116   6.615   0.089 -0.6666  1.9420  1.6378
16379TIP3   OH270551   4.405   3.560  16.353 -0.2123  0.1338 -0.5479
16379TIP3    H170552   4.334   3.601  16.304 -2.5863 -0.1539  2.3452
16379TIP3    H270553   4.401   3.468  16.329 -1.6233 -0.0746  0.3554
16380TIP3   OH270554   5.129   4.645  16.719 -0.0646 -0.2986 -0.2127
16380TIP3    H170555   5.204   4.587  16.704 -0.5858 -1.6584  1.9758
16380TIP3    H270556   5.166   4.725  16.757  0.4058 -0.3990 -0.4692
16381TIP3   OH270557   2.264   4.789  12.386 -0.1352  0.3158 -0.0189
16381TIP3    H170558   2.186   4.760  12.338  1.4719 -3.3788 -0.7304
16381TIP3    H270559   2.283   4.717  12.446  1.3116  2.2692  2.0252
16382TIP3   OH270560   1.283   1.990   4.736 -0.2909 -0.5221  0.1796
16382TIP3    H170561   1.275   2.061   4.800  0.0433  0.3849 -0.7507
16382TIP3    H270562   1.192   1.969   4.714 -0.3963 -0.4019  0.4790
16383TIP3   OH270563   2.369   5.001   4.046  0.0784 -0.1319  0.1180
16383TIP3    H170564   2.443   5.044   4.088 -0.5036  0.7882  0.2406
16383TIP3    H270565   2.297   5.011   4.109 -0.4925  0.2079 -0.5736
16384TIP3   OH270566   6.130   1.949  14.801  0.0333 -0.6868 -0.1995
16384TIP3    H170567   6.065   2.014  14.825  0.4146  0.3678 -1.8208
16384TIP3    H270568   6.214   1.994  14.811  0.3586 -1.2466 -0.3714
16385TIP3   OH270569   3.738   6.587  16.651  1.0294 -0.3231  0.3789
16385TIP3    H170570   3.705   6.677  16.647  1.9393  0.0097  0.1001
16385TIP3    H270571   3.707   6.546  16.570  2.6258  0.4633 -0.6544
16386TIP3   OH270572   3.934   5.925  15.804  0.2762 -0.3989 -0.3433
16386TIP3    H170573   3.878   6.002  15.811  0.3747 -0.3870  0.4549
16386TIP3    H270574   3.971   5.929  15.716 -2.3620 -1.3767 -1.5800
16387TIP3   OH270575   4.967   4.042  12.430  0.1154 -0.3754  0.2518
16387TIP3    H170576   4.971   4.034  12.525 -1.3392 -0.2522  0.3456
16387TIP3    H270577   5.018   4.120  12.410 -1.1925  0.7347  1.1244
16388TIP3   OH270578   0.689   2.525  11.803  0.2683  0.0299 -0.3067
16388TIP3    H170579   0.667   2.478  11.722  1.0136 -0.3770 -0.2886
16388TIP3    H270580   0.689   2.617  11.778  2.3195 -0.1684 -1.2782
16389TIP3   OH270581   6.014   4.713  12.777 -0.7265  0.2598  0.4388
16389TIP3    H170582   6.050   4.765  12.705 -1.7315 -1.1219 -1.1228
16389TIP3    H270583   6.077   4.643  12.791 -0.2923  0.7958  1.2753
16390TIP3   OH270584   4.473   0.897   3.284 -0.3237 -0.0175 -0.2177
16390TIP3    H170585   4.417   0.860   3.216 -0.3178 -1.2729  0.4217
16390TIP3    H270586   4.465   0.836   3.358 -1.4949  2.0758  1.4956
16391TIP3   OH270587   4.825   5.896   3.036  0.0149 -0.0393 -0.0670
16391TIP3    H170588   4.747   5.946   3.060  0.3862  1.0430 -1.0321
16391TIP3    H270589   4.876   5.890   3.117 -1.0801 -0.8215  0.5896
16392TIP3   OH270590   3.584   2.183   3.704  0.4185  0.0439 -0.1982
16392TIP3    H170591   3.559   2.173   3.612  0.1420  0.1442 -0.1360
16392TIP3    H270592   3.642   2.259   3.705 -0.8714  1.0768 -0.0685
16393TIP3   OH270593   0.874   2.329  13.319 -0.4655 -0.5417  0.1527
16393TIP3    H170594   0.941   2.285  13.267 -0.6029 -0.6996  0.1064
16393TIP3    H270595   0.915   2.410  13.348 -0.6066 -0.1120 -0.7823
16394TIP3   OH270596   2.335   3.084  15.298  0.3512 -0.2708  0.1782
16394TIP3    H170597   2.400   3.145  15.264 -0.0353  0.6514  1.0539
16394TIP3    H270598   2.261   3.138  15.323 -1.1406 -1.3837 -1.5830
16395TIP3   OH270599   5.715   1.881  16.315 -0.2470  0.4941  0.4478
16395TIP3    H170600   5.624   1.852  16.319  0.6081 -2.5203  0.1785
16395TIP3    H270601   5.734   1.911  16.404 -0.4352 -2.7942  1.7442
16396TIP3   OH270602   5.072   3.824   0.073  0.2200 -0.2399 -0.4067
16396TIP3    H170603   4.981   3.853   0.085  0.1909  0.4806 -2.1029
16396TIP3    H270604   5.103   3.806   0.162 -1.2044  0.6430  0.3118
16397TIP3   OH270605   5.575   1.088  13.116 -0.2704  0.1829  0.3784
16397TIP3    H170606   5.615   1.045  13.191  1.6026 -0.2260 -0.7859
16397TIP3    H270607   5.525   1.160  13.153 -2.5544 -2.1959  2.2948
16398TIP3   OH270608   1.338   3.940  13.803  0.1746 -0.3462  1.2122
16398TIP3    H170609   1.369   3.859  13.763  1.6713  0.9260 -0.3474
16398TIP3    H270610   1.249   3.952  13.769  0.7750 -0.2139 -0.3940
16399TIP3   OH270611   4.829   2.576   1.226  0.3510  0.4892 -0.4303
16399TIP3    H170612   4.902   2.585   1.287  0.7832 -1.8653 -0.5072
16399TIP3    H270613   4.865   2.528   1.152 -1.2190 -0.6199 -0.5341
16400TIP3   OH270614   2.777   2.721  12.213 -0.7081 -0.2376  0.3847
16400TIP3    H170615   2.824   2.645  12.179 -0.3742  0.1262  0.0093
16400TIP3    H270616   2.700   2.685  12.256 -1.8874 -0.6561 -1.9331
16401TIP3   OH270617   0.856   5.837   3.893  0.0301 -0.2753 -0.2764
16401TIP3    H170618   0.808   5.911   3.856 -0.3610 -0.7109 -0.6401
16401TIP3    H270619   0.869   5.777   3.819 -0.8620 -1.2060  0.2990
16402TIP3   OH270620   6.268   3.065  12.438 -0.3291 -0.3215  0.2078
16402TIP3    H170621   6.282   3.026  12.525 -0.5867  0.9511  0.8510
16402TIP3    H270622   6.213   3.002  12.392  0.6686 -1.5092  0.5925
16403TIP3   OH270623   4.115   2.582  11.072 -0.1576  0.1379 -0.0166
16403TIP3    H170624   4.068   2.501  11.053 -0.8956  0.6210 -0.2829
16403TIP3    H270625   4.047   2.645  11.094  0.2418  1.2078 -1.6891
16404TIP3   OH270626   3.775   5.561  13.665 -0.1122  0.7002 -0.0101
16404TIP3    H170627   3.763   5.607  13.582  0.2397  2.3306  0.7960
16404TIP3    H270628   3.687   5.533  13.689 -0.5302  1.9432 -0.0061
16405TIP3   OH270629   2.875   3.759  12.472 -0.0383  0.2502  1.0405
16405TIP3    H170630   2.964   3.789  12.494  0.1887  0.0015  0.4728
16405TIP3    H270631   2.842   3.723  12.554  0.6656 -0.3400  1.0785
16406TIP3   OH270632   0.329   0.949  14.245 -0.4737 -0.1442 -0.0479
16406TIP3    H170633   0.399   0.935  14.309 -0.7940 -0.0504  0.3329
16406TIP3    H270634   0.373   0.982  14.167  0.3030 -2.9367 -0.9114
16407TIP3   OH270635   0.530   3.689   4.880  0.3887  0.2603 -0.0581
16407TIP3    H170636   0.442   3.651   4.880  0.7125 -0.5121 -0.2433
16407TIP3    H270637   0.563   3.673   4.968 -0.1530  1.7577  0.4338
16408TIP3   OH270638   3.255   0.939   5.402 -0.2302  0.4395 -0.1363
16408TIP3    H170639   3.180   0.920   5.458  0.0352 -1.6182 -0.4194
16408TIP3    H270640   3.312   0.993   5.458 -0.4158 -0.7413  1.2645
16409TIP3   OH270641   5.501   0.794  11.784 -0.5856 -0.4413 -0.2107
16409TIP3    H170642   5.565   0.788  11.713  1.9100  1.9729  1.6029
16409TIP3    H270643   5.522   0.721  11.842  2.7511  1.8549  1.8283
16410TIP3   OH270644   6.334   2.738  16.864  0.0138  0.1408  0.0663
16410TIP3    H170645   6.424   2.706  16.851  0.4476  1.1936  0.4281
16410TIP3    H270646   6.329   2.758  16.957 -0.4427  0.5712 -0.0495
16411TIP3   OH270647   4.027   3.805   2.637 -0.1391 -0.1143 -0.1475
16411TIP3    H170648   4.036   3.815   2.732  0.1128 -0.5908 -0.1181
16411TIP3    H270649   4.016   3.711   2.624 -1.4472  0.0748 -0.4886
16412TIP3   OH270650   4.519   1.482  15.882  0.0581 -0.0076 -0.0364
16412TIP3    H170651   4.518   1.389  15.903  2.1065 -0.2848 -0.8685
16412TIP3    H270652   4.522   1.526  15.967  1.0040 -0.7989  0.3535
16413TIP3   OH270653   5.105   2.323  13.787 -0.0285  0.3548 -0.0001
16413TIP3    H170654   5.178   2.306  13.728 -1.3060 -0.5194 -1.4087
16413TIP3    H270655   5.145   2.362  13.865  1.8086  0.7895 -1.1039
16414TIP3   OH270656   1.407   1.652  16.010  0.3771 -0.2583  0.3720
16414TIP3    H170657   1.479   1.592  16.028 -0.7222 -1.1757  1.9538
16414TIP3    H270658   1.418   1.724  16.072 -0.1397 -0.4772  0.7258
16415TIP3   OH270659   6.183   3.412   4.858  0.1419  0.1991  0.1209
16415TIP3    H170660   6.263   3.457   4.833  1.2873 -1.7796  0.0134
16415TIP3    H270661   6.138   3.395   4.775  0.5548 -0.3269 -0.0026
16416TIP3   OH270662   3.569   1.166   4.759 -0.6108  0.1256  0.1517
16416TIP3    H170663   3.536   1.256   4.760 -1.3938 -0.1593  0.7381
16416TIP3    H270664   3.644   1.168   4.818  0.8282  0.9024 -1.6054
16417TIP3   OH270665   1.382   1.857  11.652  0.0802  0.1933  0.0722
16417TIP3    H170666   1.395   1.782  11.594  1.8294  0.4382  0.1129
16417TIP3    H270667   1.351   1.818  11.734  2.1908 -0.6604  0.5153
16418TIP3   OH270668   0.164   3.122  17.434 -0.1312 -0.5302  0.3704
16418TIP3    H170669   0.089   3.082  17.390  1.3920 -2.1490 -0.9302
16418TIP3    H270670   0.208   3.050  17.478 -0.0558  0.6221  2.2890
16419TIP3   OH270671   3.550   1.505  13.430  0.4066  0.5058  0.1385
16419TIP3    H170672   3.546   1.424  13.480  0.0818  0.4389  0.0058
16419TIP3    H270673   3.618   1.557  13.474  1.1355 -0.1313 -0.2194
16420TIP3   OH270674   1.435   3.313  16.909 -0.3913 -0.2373  0.3825
16420TIP3    H170675   1.465   3.280  16.994  1.1215 -0.7377 -0.3105
16420TIP3    H270676   1.420   3.407  16.924  1.6543  0.0752  0.7901
16421TIP3   OH270677   2.204   6.465   2.259 -0.4561 -0.2160 -0.2992
16421TIP3    H170678   2.245   6.470   2.173 -2.8911  0.0286 -1.5221
16421TIP3    H270679   2.119   6.508   2.248 -0.5911  0.3564  2.3918
16422TIP3   OH270680   6.018   0.698  11.746 -0.0551  0.2368  0.2762
16422TIP3    H170681   6.073   0.776  11.752  1.5621 -0.6635 -1.6762
16422TIP3    H270682   6.078   0.625  11.760 -1.4512 -0.7207  1.6117
16423TIP3   OH270683   5.493   5.737   3.286 -0.5887  0.3076  0.4922
16423TIP3    H170684   5.541   5.806   3.240  0.5820 -1.6145 -1.3602
16423TIP3    H270685   5.401   5.760   3.274 -0.2859  0.5200 -1.8876
16424TIP3   OH270686   3.724   1.271   1.792 -0.3757  0.4164  0.5158
16424TIP3    H170687   3.688   1.311   1.713  1.2600 -0.2977 -0.6586
16424TIP3    H270688   3.696   1.179   1.786 -0.1204  0.3287  0.6803
16425TIP3   OH270689   0.455   6.531   5.359  0.1163 -0.7892 -0.6747
16425TIP3    H170690   0.448   6.529   5.454  0.1831  1.8891 -0.5239
16425TIP3    H270691   0.515   6.460   5.337  1.1037 -0.6665  1.4169
16426TIP3   OH270692   1.206   5.742  11.170  0.5563 -0.4831  0.2085
16426TIP3    H170693   1.225   5.827  11.210 -0.6172 -1.4702  3.2235
16426TIP3    H270694   1.291   5.700  11.160  1.0161  0.4183  0.2304
16427TIP3   OH270695   1.879   2.167  16.850  0.2958  0.4829  0.8225
16427TIP3    H170696   1.947   2.120  16.802  0.3250 -0.6072  1.8771
16427TIP3    H270697   1.803   2.165  16.793  0.5123 -0.2413  0.5488
16428TIP3   OH270698   0.383   5.652   0.427  0.0651 -0.0620  0.2974
16428TIP3    H170699   0.397   5.685   0.515  0.4991  0.2367  0.1239
16428TIP3    H270700   0.354   5.561   0.439 -0.1227  0.0562  0.7492
16429TIP3   OH270701   3.501   4.027   6.440  0.5380 -0.3535 -0.1138
16429TIP3    H170702   3.418   4.014   6.487  0.1185  1.3994 -0.3036
16429TIP3    H270703   3.568   4.026   6.509  0.3296 -1.3660  0.0881
16430TIP3   OH270704   3.590   2.642  13.792  0.2380  0.4563 -0.0947
16430TIP3    H170705   3.505   2.662  13.830  0.2119  0.5046 -0.1787
16430TIP3    H270706   3.616   2.560  13.833  0.1550  0.4457 -0.0632
16431TIP3   OH270707   4.265   4.983   2.643 -0.2356 -0.1549  0.2879
16431TIP3    H170708   4.219   5.002   2.561  1.2673  3.2452  0.0776
16431TIP3    H270709   4.357   4.986   2.620  0.2080 -0.0456  1.9450
16432TIP3   OH270710   2.967   3.446  16.856 -0.8673  0.1163  0.3395
16432TIP3    H170711   2.912   3.520  16.880 -2.0319 -0.3130 -0.8966
16432TIP3    H270712   3.056   3.481  16.855 -1.4086  1.5440 -0.3774
16433TIP3   OH270713   1.809   6.411  12.789  0.4088 -0.0325 -0.3221
16433TIP3    H170714   1.798   6.476  12.720 -0.9093 -1.9859 -2.0659
16433TIP3    H270715   1.721   6.375  12.803  1.0639 -1.3414  0.6872
16434TIP3   OH270716   6.548   3.297  13.782 -0.2982  0.0734 -0.2383
16434TIP3    H170717   6.463   3.338  13.798 -0.6213  0.1170 -1.8061
16434TIP3    H270718   6.530   3.234  13.711  0.8730 -0.3021 -0.2237
16435TIP3   OH270719   2.076   4.827   3.077 -0.5932  0.0265  0.2029
16435TIP3    H170720   2.012   4.771   3.033  0.3435 -0.7610 -0.1802
16435TIP3    H270721   2.059   4.812   3.171 -3.0630  2.2435  0.2368
16436TIP3   OH270722   3.351   4.253  11.419 -0.0981 -0.2838 -0.3553
16436TIP3    H170723   3.291   4.243  11.492 -0.5551  1.1918 -0.4897
16436TIP3    H270724   3.316   4.196  11.350 -2.0338  1.3755 -0.8269
16437TIP3   OH270725   3.098   1.985  15.320 -0.2550 -0.4762  0.0959
16437TIP3    H170726   3.003   1.995  15.326 -0.0693  0.8501  1.4393
16437TIP3    H270727   3.116   1.900  15.360 -0.8773 -0.7697 -0.2382
16438TIP3   OH270728   6.458   4.814  17.432 -0.0595 -0.3261 -0.2859
16438TIP3    H170729   6.409   4.748  17.482  1.0655 -1.8634 -1.1188
16438TIP3    H270730   6.549   4.802  17.459  0.0005  2.2156  0.9443
16439TIP3   OH270731   3.905   6.597  11.908  0.1723  0.2223  0.4015
16439TIP3    H170732   3.881   6.540  11.981  1.3011 -1.1910 -0.2662
16439TIP3    H270733   3.823   6.638  11.880 -0.4966 -0.2948  1.5518
16440TIP3   OH270734   3.440   4.465  13.803  0.2711  0.0720  0.2750
16440TIP3    H170735   3.444   4.512  13.720  0.3383  0.4532  0.4928
16440TIP3    H270736   3.505   4.395  13.794  1.0015  0.7210  0.3823
16441TIP3   OH270737   6.634   6.563   3.970 -0.0077  0.1082 -0.0784
16441TIP3    H170738   6.654   6.552   3.877 -0.2043  0.0467 -0.1141
16441TIP3    H270739   6.596   6.479   3.997  0.7650 -0.1420  0.2475
16442TIP3   OH270740   3.346   6.008   4.578  0.5657  0.2449 -0.4433
16442TIP3    H170741   3.259   6.007   4.537  0.2447  1.6184  0.1309
16442TIP3    H270742   3.362   5.917   4.603 -1.2659  0.1386  0.5449
16443TIP3   OH270743   1.327   6.353   4.150  0.2324  0.3539 -0.4052
16443TIP3    H170744   1.414   6.353   4.189  0.2473  0.0296 -0.4386
16443TIP3    H270745   1.285   6.432   4.185  0.8404  0.9803 -1.0677
16444TIP3   OH270746   6.348   0.286   5.689 -0.0988 -0.0855  0.2706
16444TIP3    H170747   6.319   0.222   5.624  0.4278  0.7849 -0.8435
16444TIP3    H270748   6.401   0.235   5.750  1.9960 -0.4234 -1.7119
16445TIP3   OH270749   3.702   2.199  12.006 -0.0696  0.3811  0.6034
16445TIP3    H170750   3.795   2.178  11.995 -0.5142 -1.7673  0.6090
16445TIP3    H270751   3.656   2.116  11.990 -2.0647  1.5771 -0.2240
16446TIP3   OH270752   4.697   1.850   1.055 -0.8941 -0.0659  0.5390
16446TIP3    H170753   4.789   1.823   1.057 -1.2223 -1.2439  0.5562
16446TIP3    H270754   4.689   1.902   0.976  0.1546  1.4639  1.3846
16447TIP3   OH270755   0.038   1.331   4.635  0.4684 -0.5375 -0.3999
16447TIP3    H170756   0.127   1.302   4.614  0.2971 -1.0811 -0.4064
16447TIP3    H270757   0.036   1.423   4.611  1.0536 -0.5029 -0.3292
16448TIP3   OH270758   6.672   5.278  16.601  0.0677 -0.8765 -0.3633
16448TIP3    H170759   6.714   5.356  16.639  0.0715 -0.8048 -0.5158
16448TIP3    H270760   6.729   5.254  16.528 -0.5621 -0.3304 -1.0480
16449TIP3   OH270761   0.097   6.023   2.657 -0.4096  0.0435 -0.0855
16449TIP3    H170762   0.132   6.022   2.746  0.2326  1.5365 -0.3002
16449TIP3    H270763   0.059   6.110   2.646 -0.1525  0.0209 -1.3893
16450TIP3   OH270764   0.387   0.740  16.699 -0.4281 -0.4168  0.2183
16450TIP3    H170765   0.349   0.657  16.669 -1.1491  0.0099 -0.0636
16450TIP3    H270766   0.330   0.807  16.663  0.4641  0.2397 -0.0060
16451TIP3   OH270767   3.770   0.358  13.850 -0.2649 -0.1444 -0.1970
16451TIP3    H170768   3.733   0.426  13.907 -0.2030 -0.8051  0.6618
16451TIP3    H270769   3.838   0.317  13.904 -0.9666 -1.5300 -0.3344
16452TIP3   OH270770   6.370   4.935  14.055  0.2318 -0.3178  0.4980
16452TIP3    H170771   6.402   4.961  13.969 -0.2478 -0.5134  0.2570
16452TIP3    H270772   6.330   4.849  14.040 -1.1107  0.2693  0.6371
16453TIP3   OH270773   1.217   3.166  15.706  0.7151  0.4917  0.3453
16453TIP3    H170774   1.191   3.153  15.797 -0.7461 -0.0610 -0.1167
16453TIP3    H270775   1.304   3.127  15.699  0.6041  0.0466  1.3736
16454TIP3   OH270776   0.527   5.353  15.407 -0.1709  0.3986  0.4457
16454TIP3    H170777   0.468   5.278  15.404  1.3156 -0.8396  0.8880
16454TIP3    H270778   0.549   5.372  15.316  2.8562 -2.6046  0.3543
16455TIP3   OH270779   5.908   3.909  12.218  0.2984  0.0283 -0.2087
16455TIP3    H170780   5.913   3.818  12.245  2.8207 -0.0409 -0.6568
16455TIP3    H270781   5.868   3.907  12.131  1.3299 -0.8006 -0.6909
16456TIP3   OH270782   6.136   6.393   4.270 -0.0006 -0.2952  0.5125
16456TIP3    H170783   6.064   6.331   4.263 -0.0748 -0.2107  0.5217
16456TIP3    H270784   6.109   6.468   4.216 -0.9543  0.7241  2.2888
16457TIP3   OH270785   1.156   4.692  14.168 -0.2690  0.1254  0.1764
16457TIP3    H170786   1.108   4.741  14.234 -0.0126 -0.2356  0.6417
16457TIP3    H270787   1.247   4.721  14.178  0.3962 -2.2222  2.2306
16458TIP3   OH270788   0.624   3.024   1.074  0.1161 -0.2926 -0.1236
16458TIP3    H170789   0.615   3.040   1.168  0.0665 -0.1373 -0.1539
16458TIP3    H270790   0.539   3.050   1.037 -0.8368 -2.7731  0.0987
16459TIP3   OH270791   2.681   4.168   1.475 -0.0748 -0.2992 -0.2379
16459TIP3    H170792   2.594   4.203   1.456  0.2170  0.6250  0.0904
16459TIP3    H270793   2.670   4.121   1.558 -0.0180  0.8043  0.4091
16460TIP3   OH270794   3.636   3.887  12.869 -0.6830 -0.2472 -0.8551
16460TIP3    H170795   3.672   3.969  12.903 -0.7991 -0.2083 -0.8265
16460TIP3    H270796   3.656   3.823  12.937  1.3277 -0.7105 -1.7963
16461TIP3   OH270797   3.928   1.713   6.057  0.1147 -0.2826 -0.0175
16461TIP3    H170798   4.019   1.683   6.054  0.3336  0.4400 -1.0022
16461TIP3    H270799   3.934   1.802   6.093 -0.1841 -0.1676 -0.2522
16462TIP3   OH270800   6.587   0.801  11.860  0.0829  0.5376 -0.2868
16462TIP3    H170801   6.583   0.896  11.873 -1.4781  0.5067 -0.3492
16462TIP3    H270802   6.599   0.790  11.766 -0.1723  0.6738 -0.3362
16463TIP3   OH270803   2.777   1.732   0.646  0.4709  0.4792 -0.3790
16463TIP3    H170804   2.763   1.724   0.551 -1.2896  2.8913 -0.4009
16463TIP3    H270805   2.690   1.747   0.682  1.0807 -0.6860  1.7184
16464TIP3   OH270806   1.916   0.053  11.991  0.1532  0.1576 -0.5185
16464TIP3    H170807   1.946   0.090  11.908 -0.3485  0.6078 -0.5064
16464TIP3    H270808   1.893  -0.037  11.971  0.4941  0.1257 -0.7628
16465TIP3   OH270809   0.080   3.046  14.193 -0.2888  0.8099  0.6079
16465TIP3    H170810   0.066   3.076  14.283  1.4608  0.3730  1.0637
16465TIP3    H270811   0.074   3.126  14.140  0.0541  1.2853  1.2796
16466TIP3   OH270812   3.009   0.698  12.601  0.8654 -0.4362  0.1914
16466TIP3    H170813   3.031   0.643  12.526  0.6950 -0.9675  0.5224
16466TIP3    H270814   2.925   0.664  12.632 -1.0493  2.1739 -1.6564
16467TIP3   OH270815   1.244   2.453  16.358  0.4630  0.1585 -0.0328
16467TIP3    H170816   1.244   2.380  16.420  1.2792 -0.2356 -0.4778
16467TIP3    H270817   1.291   2.523  16.402 -2.2707  1.2886  1.3307
16468TIP3   OH270818   0.686   0.607   6.034 -0.4108  0.5136  0.1515
16468TIP3    H170819   0.775   0.587   6.003 -0.1555  1.8384 -0.0380
16468TIP3    H270820   0.628   0.568   5.968  0.0637  0.4479 -0.2344
16469TIP3   OH270821   1.536   0.420   2.965  0.1538 -0.0681 -0.0127
16469TIP3    H170822   1.484   0.489   3.006 -0.8249  0.0560 -1.4160
16469TIP3    H270823   1.477   0.379   2.901  0.8589 -1.8980  0.4290
16470TIP3   OH270824   5.531   4.277  17.176  0.3521 -0.0816 -0.8625
16470TIP3    H170825   5.504   4.362  17.209 -1.0742 -0.3684 -1.2006
16470TIP3    H270826   5.617   4.292  17.137  0.2234  1.1521 -0.7081
16471TIP3   OH270827   5.042   2.229   5.455  0.3660  0.2950 -0.4552
16471TIP3    H170828   4.999   2.282   5.523  1.7210  0.2974  0.4325
16471TIP3    H270829   5.003   2.142   5.465  0.0835  0.4553 -0.1139
16472TIP3   OH270830   5.750   1.507   1.005 -0.4858  0.4071 -0.1792
16472TIP3    H170831   5.733   1.500   0.911 -0.4413 -1.5342 -0.0702
16472TIP3    H270832   5.761   1.601   1.019 -0.3967  0.7459 -2.1250
16473TIP3   OH270833   6.118   2.409   2.001 -0.0013 -0.0325  0.1799
16473TIP3    H170834   6.171   2.487   1.983 -0.4692 -0.1240 -1.7539
16473TIP3    H270835   6.036   2.444   2.036  0.7669  0.1684  1.9045
16474TIP3   OH270836   1.882   2.231  13.222  0.2223 -0.2538 -0.2196
16474TIP3    H170837   1.850   2.288  13.152  1.7867  0.5264 -0.3460
16474TIP3    H270838   1.898   2.147  13.179  0.6213  0.0539 -0.6805
16475TIP3   OH270839   0.730   3.084  14.292  0.0167 -0.9962  0.5688
16475TIP3    H170840   0.661   3.148  14.276  1.4352  0.1426 -1.7559
16475TIP3    H270841   0.685   3.000  14.300 -1.6648 -0.2091 -0.1898
16476TIP3   OH270842   3.574   1.886   4.110  0.0230 -0.0341  0.0534
16476TIP3    H170843   3.575   1.791   4.120 -1.6879 -0.0695  0.1083
16476TIP3    H270844   3.487   1.906   4.077  0.4036  1.5138 -0.0944
16477TIP3   OH270845   0.994   2.062  12.653 -0.5583 -0.1549 -0.0470
16477TIP3    H170846   0.943   2.057  12.572 -1.1167 -1.8098  0.3696
16477TIP3    H270847   1.086   2.062  12.624 -0.7150 -2.2789 -0.6639
16478TIP3   OH270848   4.935   1.690  15.084  0.0626 -0.2951 -0.1834
16478TIP3    H170849   4.892   1.729  15.007 -0.7751 -1.2509 -0.2239
16478TIP3    H270850   4.990   1.621  15.048 -1.2091 -1.5169  0.1202
16479TIP3   OH270851   1.306   5.685   5.065  0.1427 -0.7466 -0.6703
16479TIP3    H170852   1.283   5.661   5.154  1.2197  3.3890  0.9523
16479TIP3    H270853   1.401   5.670   5.060 -0.0581 -1.8961 -1.5428
16480TIP3   OH270854   2.263   2.386  17.238  0.3080 -0.5556  0.2820
16480TIP3    H170855   2.169   2.398  17.227  0.4368 -0.6245 -0.9305
16480TIP3    H270856   2.282   2.424  17.324 -0.4914  1.3430 -0.3290
16481TIP3   OH270857   6.063   5.661  13.020 -0.0098  0.0648 -0.6671
16481TIP3    H170858   6.086   5.731  12.960  0.5602 -0.7941 -1.4817
16481TIP3    H270859   5.975   5.634  12.994 -0.3825  0.7106 -0.1100
16482TIP3   OH270860   6.412   2.371   1.898  0.0536  0.0974 -0.3886
16482TIP3    H170861   6.370   2.457   1.892  0.7888  0.5756  0.9162
16482TIP3    H270862   6.444   2.354   1.810  0.5986  1.5348 -0.4972
16483TIP3   OH270863   0.998   4.986  14.658  0.1604  0.2272  0.2510
16483TIP3    H170864   0.937   4.919  14.627  1.0282 -1.0210  1.1463
16483TIP3    H270865   0.986   4.987  14.753  1.3902  0.1045  0.4187
16484TIP3   OH270866   4.458   0.410   0.467 -0.5123  0.2401  0.3126
16484TIP3    H170867   4.487   0.491   0.424 -0.4601  0.3602  0.5739
16484TIP3    H270868   4.476   0.424   0.560 -1.9433  0.5603  0.5704
16485TIP3   OH270869   4.144   2.558   3.428 -0.0010 -0.1708  0.1563
16485TIP3    H170870   4.142   2.653   3.429  0.9756 -0.0589 -1.8717
16485TIP3    H270871   4.128   2.535   3.337 -1.0370 -2.0098  0.7522
16486TIP3   OH270872   4.351   3.754   3.055 -0.3374  0.4564 -0.0228
16486TIP3    H170873   4.397   3.731   2.974  0.2362 -0.3060  0.5147
16486TIP3    H270874   4.273   3.699   3.055  0.1328 -0.2249  0.3871
16487TIP3   OH270875   3.180   2.999  14.231 -0.0022  0.0241  0.0021
16487TIP3    H170876   3.124   3.073  14.208 -0.2181 -0.3239 -0.6349
16487TIP3    H270877   3.121   2.924  14.235  0.3543 -0.2827 -0.3107
16488TIP3   OH270878   0.330   5.064   2.839 -0.3468 -0.3006  0.6444
16488TIP3    H170879   0.361   5.061   2.749  0.1345 -0.0787  0.8047
16488TIP3    H270880   0.344   4.975   2.872 -3.5135 -1.3637 -0.4852
16489TIP3   OH270881   6.147   6.708   1.256  0.0150  0.2447 -0.2043
16489TIP3    H170882   6.082   6.654   1.301  0.6903  0.1908  0.7306
16489TIP3    H270883   6.198   6.748   1.326 -0.2323  1.8374 -0.8858
16490TIP3   OH270884   5.345   4.170  13.937 -0.0576 -0.2077  0.1235
16490TIP3    H170885   5.320   4.259  13.961 -0.9724 -0.4533  0.1308
16490TIP3    H270886   5.376   4.131  14.019  3.1927  0.9623 -0.4003
16491TIP3   OH270887   0.465   4.165   1.399  1.0177 -0.0060  0.3358
16491TIP3    H170888   0.559   4.150   1.402  1.2628  1.2886 -0.1270
16491TIP3    H270889   0.456   4.253   1.360 -0.3414  0.2169  1.0912
16492TIP3   OH270890   0.871   1.253   4.199  0.0776 -0.1916  0.2316
16492TIP3    H170891   0.911   1.340   4.207  1.8336 -0.9267 -0.2544
16492TIP3    H270892   0.944   1.193   4.195 -1.0301 -1.4858 -2.2598
16493TIP3   OH270893   4.263   6.003   4.067  0.4593  0.1073 -0.2203
16493TIP3    H170894   4.293   5.951   4.143  1.2284 -0.4121 -0.8635
16493TIP3    H270895   4.177   6.035   4.093  0.1443 -1.1525  0.3669
16494TIP3   OH270896   3.843   4.824   6.584  0.1861 -0.5782  0.2085
16494TIP3    H170897   3.914   4.844   6.523 -0.5826 -2.4998 -1.4104
16494TIP3    H270898   3.883   4.771   6.652  0.2773 -1.9926 -0.9101
16495TIP3   OH270899   0.457   1.371  15.902 -0.4319 -0.6683  0.3873
16495TIP3    H170900   0.498   1.286  15.888  0.8745 -0.0466  0.2832
16495TIP3    H270901   0.405   1.360  15.981 -0.2550 -1.5502  0.3945
16496TIP3   OH270902   6.421   4.804   0.791  0.3838 -0.2710  0.1959
16496TIP3    H170903   6.326   4.810   0.799 -0.2879 -2.7424 -3.2992
16496TIP3    H270904   6.437   4.711   0.772  3.7541 -0.2781  2.2343
16497TIP3   OH270905   5.618   2.057  10.913 -0.4404 -0.2238 -0.6261
16497TIP3    H170906   5.668   2.100  10.844  0.0954 -1.5906 -1.1329
16497TIP3    H270907   5.538   2.028  10.870 -0.9837  0.5837 -0.1909
16498TIP3   OH270908   4.816   2.939  14.450 -0.2249 -0.9616  0.1750
16498TIP3    H170909   4.852   3.027  14.459 -1.5971 -0.3875  0.2664
16498TIP3    H270910   4.854   2.890  14.523  0.8030 -0.5472 -0.0675
16499TIP3   OH270911   4.423   3.443  14.208  0.7080 -0.6089 -0.0290
16499TIP3    H170912   4.373   3.463  14.287  3.2882 -1.4237  1.9631
16499TIP3    H270913   4.376   3.488  14.138 -0.0810  2.7686  2.3947
16500TIP3   OH270914   5.131   5.549   2.255 -0.1694  0.4859  0.1409
16500TIP3    H170915   5.088   5.626   2.217 -0.9114  0.1157  0.2078
16500TIP3    H270916   5.063   5.481   2.254  0.5686 -0.2709 -0.2368
16501TIP3   OH270917   0.448   2.120   1.830  0.6547  0.2405  0.5007
16501TIP3    H170918   0.471   2.028   1.845 -0.4184 -0.5383 -2.0722
16501TIP3    H270919   0.361   2.130   1.867 -0.8123 -0.9031 -2.3456
16502TIP3   OH270920   4.553   4.275   2.192 -0.8089  0.7063  0.2939
16502TIP3    H170921   4.477   4.228   2.226 -0.4297 -1.1388 -1.2305
16502TIP3    H270922   4.530   4.295   2.101  0.8330 -0.7760 -0.5122
16503TIP3   OH270923   0.346   2.791   2.468 -0.0432  0.7685 -0.0339
16503TIP3    H170924   0.296   2.756   2.542  1.8428  1.0198  1.4186
16503TIP3    H270925   0.315   2.881   2.459 -1.6300  0.1811 -0.8217
16504TIP3   OH270926   5.445   3.752   5.966 -0.4770 -0.1260 -0.1816
16504TIP3    H170927   5.491   3.795   6.038 -0.8695  0.1612 -0.1005
16504TIP3    H270928   5.363   3.800   5.958 -0.8765 -0.7969 -0.1588
16505TIP3   OH270929   6.189   5.918   3.706  0.2885 -0.5533  0.2003
16505TIP3    H170930   6.262   5.911   3.645 -0.9251 -3.4396 -1.1033
16505TIP3    H270931   6.145   6.000   3.681  1.6359 -0.0488 -0.6434
16506TIP3   OH270932   1.422   5.022  13.512 -0.1927 -0.1874 -0.3624
16506TIP3    H170933   1.470   5.036  13.594 -1.6332  0.9353  0.3358
16506TIP3    H270934   1.371   4.943  13.526  0.7191 -0.8702 -0.7734
16507TIP3   OH270935   0.920   4.164  16.784  0.7606  0.1790  0.5008
16507TIP3    H170936   0.953   4.075  16.777  1.5688  0.4214  1.1200
16507TIP3    H270937   0.884   4.183  16.697  1.9373 -0.2373 -0.1037
16508TIP3   OH270938   0.877   2.240   2.105 -0.2532 -0.0567 -0.9641
16508TIP3    H170939   0.898   2.207   2.193  0.8270 -0.8618 -1.5075
16508TIP3    H270940   0.910   2.330   2.105  2.1676 -0.8764 -1.3665
16509TIP3   OH270941   2.484   1.369   5.970  0.4060 -0.1700 -0.1474
16509TIP3    H170942   2.508   1.292   6.022  0.1031  0.8570  1.5943
16509TIP3    H270943   2.389   1.372   5.975  0.3193 -0.4183 -1.3551
16510TIP3   OH270944   1.304   5.629  12.300 -0.1763 -0.1845 -0.3395
16510TIP3    H170945   1.373   5.610  12.237 -0.8849  2.5000 -2.0870
16510TIP3    H270946   1.247   5.552  12.298  1.6434 -1.5924 -0.3476
16511TIP3   OH270947   2.507   2.899  16.755 -0.4091 -0.1214 -0.2665
16511TIP3    H170948   2.426   2.886  16.705 -1.6976 -0.0977  1.7114
16511TIP3    H270949   2.482   2.883  16.846  1.3586  1.8068  0.6424
16512TIP3   OH270950   1.597   6.340   1.158 -0.0908  0.3138  0.0389
16512TIP3    H170951   1.684   6.331   1.197 -0.5922 -2.0913  0.7888
16512TIP3    H270952   1.613   6.379   1.072  1.9052 -1.2570 -0.3775
16513TIP3   OH270953   4.316   4.457  15.646 -0.5518  0.4734 -0.0190
16513TIP3    H170954   4.299   4.418  15.560 -1.4619 -0.5656  0.6083
16513TIP3    H270955   4.402   4.423  15.671 -0.6712  0.0674 -0.1444
16514TIP3   OH270956   5.093   3.964  12.945 -0.8651  0.7954  0.5269
16514TIP3    H170957   5.172   3.930  12.987 -0.2909  1.2107 -0.2083
16514TIP3    H270958   5.061   3.890  12.892 -1.0794  0.5667  0.9738
16515TIP3   OH270959   3.402   3.574  15.234  0.0410 -0.2156 -0.1027
16515TIP3    H170960   3.468   3.568  15.165 -0.3020  1.3546 -0.5942
16515TIP3    H270961   3.439   3.524  15.306  1.7134  0.4880 -0.4270
16516TIP3   OH270962   5.967   5.202  14.225  0.3528 -0.1698 -0.0367
16516TIP3    H170963   5.998   5.290  14.247 -0.3242  0.3693 -1.1887
16516TIP3    H270964   6.039   5.145  14.251  1.1804  0.8070 -0.1130
16517TIP3   OH270965   3.958   6.081   1.315  0.0864  0.3955 -0.4537
16517TIP3    H170966   3.907   6.079   1.234 -0.5075 -0.6928 -0.0742
16517TIP3    H270967   3.908   6.139   1.372 -0.4417 -0.2098 -0.2838
16518TIP3   OH270968   4.785   1.652   0.114 -0.6263  0.2946  0.3121
16518TIP3    H170969   4.753   1.740   0.097 -1.6465 -0.1090  0.1153
16518TIP3    H270970   4.875   1.653   0.082 -0.6170  1.2628  0.3344
16519TIP3   OH270971   6.374   6.372   0.342 -0.5710  0.6161  0.1950
16519TIP3    H170972   6.370   6.398   0.434  1.0855 -0.3119  0.5759
16519TIP3    H270973   6.454   6.415   0.309  0.3680 -1.2188 -0.0376
16520TIP3   OH270974   0.991   0.286  12.263  0.2170 -0.6438  0.5042
16520TIP3    H170975   0.916   0.283  12.203 -1.9117 -0.4587  3.0017
16520TIP3    H270976   1.013   0.379  12.270  0.2597 -0.6363  0.2814
16521TIP3   OH270977   3.606   0.152  13.149  0.2084  0.3656 -0.2253
16521TIP3    H170978   3.573   0.133  13.236  1.3386 -0.6891 -0.0102
16521TIP3    H270979   3.697   0.123  13.150  0.9504  2.4175 -1.0563
16522TIP3   OH270980   4.826   1.634  14.078  0.0138  0.3152  0.2960
16522TIP3    H170981   4.811   1.641  14.172  1.2524  0.1781  0.5219
16522TIP3    H270982   4.874   1.714  14.055  1.1811 -0.4101  0.1102
16523TIP3   OH270983   4.239   1.417   4.210  0.0941  0.0975  0.3656
16523TIP3    H170984   4.197   1.403   4.295  0.1896  1.8578  0.7401
16523TIP3    H270985   4.308   1.481   4.228  0.7544 -0.2326 -0.8747
16524TIP3   OH270986   0.485   0.241  11.629  0.0574 -0.1141 -0.2318
16524TIP3    H170987   0.550   0.307  11.606  1.1515 -0.1065  2.4864
16524TIP3    H270988   0.403   0.290  11.639  0.8416  0.9104  1.6977
16525TIP3   OH270989   6.274   5.023   6.656 -0.2332  0.4756  0.0534
16525TIP3    H170990   6.249   4.968   6.730  0.0641  0.0675 -0.1435
16525TIP3    H270991   6.224   5.104   6.667 -0.6245  0.1875  0.3780
16526TIP3   OH270992   5.574   4.072   5.177 -0.2757  0.3395 -0.4528
16526TIP3    H170993   5.607   4.158   5.149 -0.2203  0.0615 -1.2687
16526TIP3    H270994   5.492   4.092   5.223 -0.0161  0.8668 -0.2140
16527TIP3   OH270995   1.935   5.893   1.066 -0.1548  0.2449 -0.1476
16527TIP3    H170996   1.857   5.838   1.065  0.2786 -0.3822  0.0297
16527TIP3    H270997   1.905   5.977   1.030 -0.9135  0.0273 -0.0495
16528TIP3   OH270998   6.110   5.180  15.429  0.1226 -0.4169 -0.4107
16528TIP3    H170999   6.094   5.257  15.375  1.2477  0.6955  0.7859
16528TIP3    H271000   6.176   5.208  15.492 -0.2920 -2.0179  0.7922
16529TIP3   OH271001   4.041   2.920  15.202 -0.6553 -0.2617 -0.4642
16529TIP3    H171002   4.088   2.839  15.181 -2.2003 -1.2901 -0.0359
16529TIP3    H271003   4.011   2.952  15.117  0.9924  0.5575 -0.7797
16530TIP3   OH271004   3.877   4.691  11.959 -0.0193  0.3701 -0.1406
16530TIP3    H171005   3.961   4.713  11.999  1.4249 -3.3187 -0.7585
16530TIP3    H271006   3.829   4.644  12.027 -0.8072  0.7248 -0.4337
16531TIP3   OH271007   0.566   5.236  12.662  0.3182  0.3353 -0.0697
16531TIP3    H171008   0.526   5.186  12.733  1.7799 -0.2183  0.4075
16531TIP3    H271009   0.612   5.307  12.707  1.5108 -0.1930 -0.4141
16532TIP3   OH271010   2.397   4.495   1.252 -0.5001 -0.1575  0.1615
16532TIP3    H171011   2.344   4.468   1.177  0.5700  0.0855 -0.7089
16532TIP3    H271012   2.359   4.579   1.278 -0.1724  0.3206 -0.8504
16533TIP3   OH271013   6.418   3.390  14.226 -0.3035 -0.3216  0.2972
16533TIP3    H171014   6.448   3.476  14.197  1.6286 -1.2314 -0.5520
16533TIP3    H271015   6.433   3.390  14.320  0.6646 -0.0796  0.1557
16534TIP3   OH271016   0.255   0.362   4.022 -0.4875 -0.0385  0.5185
16534TIP3    H171017   0.330   0.395   4.071 -1.3670  0.5557  1.5006
16534TIP3    H271018   0.270   0.392   3.932  1.7156 -2.1015  0.0824
16535TIP3   OH271019   4.375   1.253  14.366 -0.1096 -0.0205 -0.0874
16535TIP3    H171020   4.376   1.158  14.377 -0.3911 -0.0401 -0.2182
16535TIP3    H271021   4.301   1.282  14.420  0.3323  0.1866  0.4238
16536TIP3   OH271022   5.369   4.325   2.318  0.0830  0.0080  0.3687
16536TIP3    H171023   5.287   4.369   2.299  0.9509  0.9421 -1.4228
16536TIP3    H271024   5.346   4.257   2.382 -1.8261  1.0457  0.8371
16537TIP3   OH271025   1.197   1.994   6.642 -0.0870 -0.2964 -0.3093
16537TIP3    H171026   1.125   2.037   6.688 -1.9096 -3.8475  0.5824
16537TIP3    H271027   1.160   1.972   6.556  0.9591  0.3628 -0.9386
16538TIP3   OH271028   1.537   0.520   4.251 -0.6330  0.5641 -0.2223
16538TIP3    H171029   1.481   0.494   4.179 -1.4578  1.3687  0.1151
16538TIP3    H271030   1.618   0.551   4.209 -1.0242  0.8300 -0.7860
16539TIP3   OH271031   0.999   4.159   1.866  0.3751 -0.0052  0.3892
16539TIP3    H171032   1.087   4.121   1.868 -0.3778 -2.0097 -0.8035
16539TIP3    H271033   0.972   4.163   1.957  0.6414 -2.1926  0.6319
16540TIP3   OH271034   1.047   5.183   5.303  0.0607 -0.0320 -0.0494
16540TIP3    H171035   1.075   5.132   5.227  0.7402  0.8820 -0.4311
16540TIP3    H271036   1.078   5.133   5.379  1.0747 -0.0080 -0.4300
16541TIP3   OH271037   3.542   2.870   0.448 -0.1141 -0.0986 -0.4588
16541TIP3    H171038   3.614   2.824   0.489  0.6010 -0.0379 -1.6068
16541TIP3    H271039   3.465   2.816   0.466  0.2235 -0.2107  0.6862
16542TIP3   OH271040   0.493   0.116  13.740  0.6326  0.4549  0.1032
16542TIP3    H171041   0.461   0.097  13.828 -2.0782 -0.6418 -1.0213
16542TIP3    H271042   0.518   0.031  13.704  0.3837  0.6834 -0.6356
16543TIP3   OH271043   6.509   2.368  13.285  0.1293 -0.6904 -0.6035
16543TIP3    H171044   6.583   2.320  13.321  1.7386  1.2143 -1.1712
16543TIP3    H271045   6.476   2.420  13.358 -0.9016 -1.7624 -0.2716
16544TIP3   OH271046   2.697   4.489   0.211  0.6767  0.1681  0.4890
16544TIP3    H171047   2.654   4.404   0.197 -0.2655  0.5214  1.1147
16544TIP3    H271048   2.760   4.495   0.139 -0.2181 -0.4517 -0.3950
16545TIP3   OH271049   5.437   3.911   2.942 -0.0943 -0.1000 -0.9689
16545TIP3    H171050   5.366   3.968   2.973 -1.0310 -1.9458  0.4415
16545TIP3    H271051   5.496   3.902   3.016  0.4196 -0.4267 -1.4059
16546TIP3   OH271052   0.287   2.108   6.073 -0.4019  0.5787 -0.3029
16546TIP3    H171053   0.265   2.029   6.024 -1.5126  0.2621  0.6485
16546TIP3    H271054   0.375   2.093   6.105 -0.6876 -0.3957  0.0724
16547TIP3   OH271055   3.560   0.990  11.562  0.1991 -0.4699 -0.5671
16547TIP3    H171056   3.471   1.022  11.577  0.8550  2.0251 -1.5034
16547TIP3    H271057   3.565   0.973  11.468  0.2421 -2.3516 -0.2721
16548TIP3   OH271058   4.646   3.901  12.603 -0.5622  0.4580  0.2975
16548TIP3    H171059   4.636   3.896  12.508 -1.9008 -0.1169  0.4412
16548TIP3    H271060   4.662   3.811  12.631 -0.9121  0.5070  0.6777
16549TIP3   OH271061   0.429   4.778   4.788  0.4984  0.0043 -0.0385
16549TIP3    H171062   0.449   4.738   4.872 -0.9730 -0.2417  0.2344
16549TIP3    H271063   0.462   4.868   4.795  1.4281 -0.3636  0.3514
16550TIP3   OH271064   4.458   4.364   5.695  0.2552 -0.7774 -0.2784
16550TIP3    H171065   4.367   4.391   5.703  0.2458  0.1351 -2.6263
16550TIP3    H271066   4.507   4.426   5.748 -0.4599 -1.3432  1.0913
16551TIP3   OH271067   6.128   0.853   5.319 -0.4541  0.1632  0.1034
16551TIP3    H171068   6.146   0.772   5.366  2.8520  0.1814 -0.8291
16551TIP3    H271069   6.047   0.887   5.357  0.8124 -0.9084  4.1728
16552TIP3   OH271070   4.108   0.452   4.134 -0.0420 -0.6425  0.2440
16552TIP3    H171071   4.039   0.511   4.103  0.7345  0.5124  0.6291
16552TIP3    H271072   4.074   0.364   4.117 -0.6094 -0.0909 -1.7623
16553TIP3   OH271073   1.233   0.877   2.860  0.1990  0.2435  0.1706
16553TIP3    H171074   1.214   0.929   2.939 -2.2337  1.0064 -0.7970
16553TIP3    H271075   1.189   0.925   2.789  2.1564 -0.5064 -1.6588
16554TIP3   OH271076   5.743   5.355   3.627  1.0134  0.0273  0.0960
16554TIP3    H171077   5.667   5.310   3.590  0.9435  0.7884 -0.7351
16554TIP3    H271078   5.712   5.391   3.710  1.4687 -2.6265  1.5237
16555TIP3   OH271079   0.510   6.499   6.072 -0.1752 -0.3360  0.4493
16555TIP3    H171080   0.559   6.573   6.037  0.6041  0.3294  2.7311
16555TIP3    H271081   0.423   6.534   6.092  0.2087  0.0136  1.5742
16556TIP3   OH271082   0.957   2.914   4.709  0.6365  0.0329 -0.3732
16556TIP3    H171083   0.895   2.986   4.697  0.3386 -0.2984 -0.8608
16556TIP3    H271084   0.928   2.869   4.788 -1.0145 -1.3611 -1.6908
16557TIP3   OH271085   4.713   1.196   1.597  0.0366  0.1527 -0.1094
16557TIP3    H171086   4.747   1.257   1.531  0.3091  2.1946  1.7874
16557TIP3    H271087   4.791   1.162   1.640 -0.1331 -1.3143 -0.9080
16558TIP3   OH271088   5.266   3.808  17.376  0.3067  0.1297  0.1168
16558TIP3    H171089   5.226   3.834  17.459 -1.6680  0.5570 -0.9129
16558TIP3    H271090   5.289   3.890  17.333  0.9414 -0.0747  0.0578
16559TIP3   OH271091   5.533   6.024  16.171  0.1806 -0.0734 -0.4422
16559TIP3    H171092   5.577   5.944  16.198 -1.5125 -1.2161 -0.9383
16559TIP3    H271093   5.512   6.069  16.253  1.8038  0.2754 -0.1858
16560TIP3   OH271094   3.910   3.763  17.106  0.5773  0.1667  0.0715
16560TIP3    H171095   3.965   3.684  17.102  0.7857  0.3456 -0.8932
16560TIP3    H271096   3.861   3.762  17.024 -0.2657  0.4502  0.5585
16561TIP3   OH271097   3.532   0.223  16.301  0.1069 -0.2814  0.0317
16561TIP3    H171098   3.474   0.150  16.281 -0.6800 -0.1047  1.5410
16561TIP3    H271099   3.618   0.182  16.314 -0.2612 -0.9104  0.5534
16562TIP3   OH271100   1.952   4.784  14.530 -0.2740 -0.2213 -0.3814
16562TIP3    H171101   1.955   4.818  14.620 -0.3621 -1.4251  0.0945
16562TIP3    H271102   1.991   4.853  14.477  1.5490 -0.2425  0.8404
16563TIP3   OH271103   1.029   1.653  11.394  0.4228 -0.4069  0.5472
16563TIP3    H171104   1.114   1.660  11.351  1.6392 -0.1231  2.8396
16563TIP3    H271105   1.016   1.559  11.406 -0.8195 -0.6511 -1.9197
16564TIP3   OH271106   2.993   3.316  11.932 -0.6472  0.0365  0.0453
16564TIP3    H171107   3.085   3.287  11.933 -0.6391  0.0239 -0.4764
16564TIP3    H271108   2.993   3.390  11.870 -1.1308 -0.4646 -0.5657
16565TIP3   OH271109   6.633   1.225   3.079 -0.2668 -0.8939 -0.1288
16565TIP3    H171110   6.620   1.281   3.002 -1.7647 -0.6791  0.2502
16565TIP3    H271111   6.552   1.174   3.084  0.0330 -1.2702  1.0146
16566TIP3   OH271112   2.383   4.053   5.680  0.4212  0.3925 -0.0575
16566TIP3    H171113   2.453   4.086   5.736 -0.7842 -1.5219  2.8576
16566TIP3    H271114   2.428   4.012   5.606  2.3608  0.0990  1.2021
16567TIP3   OH271115   0.459   6.432  16.849  0.2764  0.1593 -0.2076
16567TIP3    H171116   0.401   6.420  16.924  0.4096 -0.1634 -0.1551
16567TIP3    H271117   0.414   6.390  16.776 -0.3973  1.4918 -0.5771
16568TIP3   OH271118   3.792   4.271  15.361  0.0602  0.0037  0.5652
16568TIP3    H171119   3.869   4.237  15.315 -0.9535  0.5705 -1.6933
16568TIP3    H271120   3.817   4.272  15.453  2.5295 -0.3806 -0.0436
16569TIP3   OH271121   2.647   4.650   4.557 -0.1695  0.3659  0.3064
16569TIP3    H171122   2.610   4.696   4.482  1.7228 -0.9823 -1.6077
16569TIP3    H271123   2.575   4.596   4.590 -2.1151  3.6428  1.9392
16570TIP3   OH271124   5.820   3.208   1.219  0.2011  0.4818  0.1402
16570TIP3    H171125   5.861   3.286   1.255  1.4572  1.1640 -2.5481
16570TIP3    H271126   5.758   3.240   1.154 -1.1450 -0.7308  0.7446
16571TIP3   OH271127   0.575   2.692  17.092 -0.5363 -0.5411  0.3584
16571TIP3    H171128   0.653   2.745  17.073  0.0323 -1.2015  0.7864
16571TIP3    H271129   0.601   2.637  17.165 -0.5241 -2.6066 -1.1118
16572TIP3   OH271130   1.273   4.429  16.262  0.2583  0.1910  0.0785
16572TIP3    H171131   1.266   4.434  16.357  3.5072 -0.6569  0.4683
16572TIP3    H271132   1.301   4.340  16.244  0.8420  0.6617 -1.5814
16573TIP3   OH271133   2.129   2.746   0.020  0.2058  0.1821 -0.2567
16573TIP3    H171134   2.036   2.765   0.034  0.3561 -0.4128  1.8383
16573TIP3    H271135   2.173   2.782   0.096  1.2807 -2.4446  0.4803
16574TIP3   OH271136   6.042   5.061   0.103  0.2815  0.2286  0.0947
16574TIP3    H171137   6.128   5.066   0.063  0.5881 -1.2676  0.5197
16574TIP3    H271138   6.039   4.975   0.146 -1.6564 -0.0559 -0.4705
16575TIP3   OH271139   2.589   2.257  16.412 -0.4440 -0.1012  0.0177
16575TIP3    H171140   2.565   2.215  16.329  1.2772 -0.6133 -0.2596
16575TIP3    H271141   2.578   2.187  16.477 -1.5474  0.2282  0.2041
16576TIP3   OH271142   0.609   2.858  14.820 -0.0452 -0.0857  0.3124
16576TIP3    H171143   0.565   2.783  14.858  0.4084 -0.8057 -0.5492
16576TIP3    H271144   0.696   2.826  14.795  0.7544  1.1413  1.3970
16577TIP3   OH271145   6.601   3.909  13.339  0.3134  0.2845  0.0884
16577TIP3    H171146   6.618   3.965  13.414  0.9326  3.3428 -2.1513
16577TIP3    H271147   6.506   3.898  13.339  0.2000  1.1812  0.6732
16578TIP3   OH271148   6.439   4.027   6.168 -0.4628 -0.7570 -0.4656
16578TIP3    H171149   6.361   4.053   6.217 -0.4128 -0.5756 -0.4834
16578TIP3    H271150   6.512   4.066   6.216 -0.3621 -1.1456 -0.2999
16579TIP3   OH271151   2.467   3.963  13.824 -0.0732  0.4334 -0.2155
16579TIP3    H171152   2.531   4.009  13.877 -0.2303 -0.0633  0.4034
16579TIP3    H271153   2.463   3.875  13.859 -1.4175  0.5727  0.0564
16580TIP3   OH271154   4.365   0.342  12.464 -0.3335 -0.1485  0.2258
16580TIP3    H171155   4.384   0.428  12.500 -0.4869  0.5101 -1.2218
16580TIP3    H271156   4.389   0.347  12.372 -1.5873 -1.2218 -0.2075
16581TIP3   OH271157   1.256   2.911  14.598 -0.0195 -0.8912  0.5148
16581TIP3    H171158   1.332   2.948  14.553 -0.1504 -0.9951  0.2004
16581TIP3    H271159   1.235   2.833  14.547 -1.9375  0.5180 -1.0282
16582TIP3   OH271160   3.892   0.679   3.745 -0.6117  0.1126  0.0732
16582TIP3    H171161   3.810   0.667   3.697 -0.5434 -0.1388  0.0193
16582TIP3    H271162   3.944   0.601   3.724 -0.2138  0.4478 -0.1902
16583TIP3   OH271163   4.364   3.622   2.087 -0.4706 -0.5835 -0.2016
16583TIP3    H171164   4.377   3.567   2.010  0.1688 -1.4627  0.5140
16583TIP3    H271165   4.452   3.642   2.117 -0.7185 -0.4277  0.4253
16584TIP3   OH271166   1.621   1.560  11.882 -0.0504 -0.1658 -0.7098
16584TIP3    H171167   1.715   1.553  11.899  0.1810  0.2349 -1.7326
16584TIP3    H271168   1.611   1.531  11.791 -0.5237  2.3560 -1.5292
16585TIP3   OH271169   1.016   3.521   5.152  0.3439  0.3057 -0.3313
16585TIP3    H171170   1.023   3.608   5.113 -0.2252  1.6725  2.3256
16585TIP3    H271171   1.103   3.504   5.188  0.4869 -0.3000 -0.9570
16586TIP3   OH271172   4.302   0.201  15.816  0.1123 -0.0290  0.4502
16586TIP3    H171173   4.293   0.144  15.892 -0.2854 -1.1687 -0.4197
16586TIP3    H271174   4.262   0.152  15.744  3.4699 -0.5730 -1.2733
16587TIP3   OH271175   6.424   1.819  11.472 -0.3536  0.3614  0.2899
16587TIP3    H171176   6.400   1.880  11.543 -0.1048  2.6092 -1.4452
16587TIP3    H271177   6.507   1.852  11.439 -0.4505 -0.6402 -1.0324
16588TIP3   OH271178   4.232   4.070  16.195 -0.3015 -0.2824 -0.1603
16588TIP3    H171179   4.297   4.140  16.190  2.0320 -2.3192 -0.6204
16588TIP3    H271180   4.212   4.050  16.103 -0.0146 -0.9965 -0.0718
16589TIP3   OH271181   6.247   0.801   2.419  0.2468 -0.2945 -0.4127
16589TIP3    H171182   6.256   0.746   2.497 -0.2874  0.6225  0.3204
16589TIP3    H271183   6.153   0.803   2.401  0.1951  0.7630 -0.1183
16590TIP3   OH271184   2.098   1.076   4.178 -0.2872  0.2934  0.3497
16590TIP3    H171185   2.086   1.083   4.273 -0.2817  0.0391  0.3710
16590TIP3    H271186   2.065   1.158   4.143 -0.1340  0.4561  0.5874
16591TIP3   OH271187   2.168   1.491   5.654 -0.2946  0.3047  0.2090
16591TIP3    H171188   2.243   1.517   5.600 -0.9893  1.2443 -0.3462
16591TIP3    H271189   2.094   1.489   5.593 -0.6926 -0.7848  0.7145
16592TIP3   OH271190   3.367   5.509   3.264  0.5572 -0.0593  0.0789
16592TIP3    H171191   3.339   5.556   3.186  0.4120 -0.2885 -0.0069
16592TIP3    H271192   3.379   5.419   3.235  0.6995 -0.1023  0.2744
16593TIP3   OH271193   3.200   4.362   3.555 -0.4118  0.5608 -0.1663
16593TIP3    H171194   3.189   4.455   3.535 -2.2417  0.3150 -0.4856
16593TIP3    H271195   3.146   4.317   3.490  0.7234 -0.7534 -0.2270
16594TIP3   OH271196   1.580   2.377   3.503 -0.2020 -0.4261 -0.3562
16594TIP3    H171197   1.621   2.307   3.452  1.0140  0.6596 -0.9485
16594TIP3    H271198   1.620   2.370   3.589 -0.1460 -0.5105 -0.3885
16595TIP3   OH271199   1.664   3.190  13.411  0.0013  0.3592 -0.1564
16595TIP3    H171200   1.684   3.129  13.481 -0.8624 -0.6023 -0.7342
16595TIP3    H271201   1.724   3.166  13.340 -1.9835 -1.4764 -1.2958
16596TIP3   OH271202   3.683   2.607  10.930 -0.2243 -0.2442 -0.5853
16596TIP3    H171203   3.626   2.679  10.903 -0.1556 -0.2879 -0.8594
16596TIP3    H271204   3.768   2.629  10.892  0.3412  0.5734  1.0592
16597TIP3   OH271205   4.639   0.237   1.217  0.1234 -0.0056 -0.0224
16597TIP3    H171206   4.710   0.269   1.272 -0.3644 -0.4925  0.9201
16597TIP3    H271207   4.683   0.197   1.142  0.8319 -0.0350  0.4003
16598TIP3   OH271208   3.446   1.707  15.029 -0.1627  0.1820 -0.1297
16598TIP3    H171209   3.485   1.761  15.097 -1.0048  0.3972  0.1918
16598TIP3    H271210   3.483   1.620  15.043 -0.9277  0.0295  1.1280
16599TIP3   OH271211   3.760   0.160  15.447 -0.6302 -0.5345  0.1475
16599TIP3    H171212   3.816   0.230  15.415  1.1815 -1.9135  0.1309
16599TIP3    H271213   3.729   0.190  15.532 -2.3300  1.5110 -1.1159
16600TIP3   OH271214   0.435   0.349  15.451 -0.3967  0.3986  0.0494
16600TIP3    H171215   0.501   0.293  15.492 -2.1634 -1.6991  0.2550
16600TIP3    H271216   0.377   0.375  15.523 -0.7038  0.8645 -0.3579
16601TIP3   OH271217   6.125   3.006   4.824  0.3018  0.0082 -0.3766
16601TIP3    H171218   6.099   2.915   4.831  0.5640  0.0618  2.1865
16601TIP3    H271219   6.044   3.056   4.837  0.5198  0.1168  0.7043
16602TIP3   OH271220   3.055   2.269   2.861  0.2213 -0.3213 -0.7661
16602TIP3    H171221   3.125   2.223   2.814 -0.7471 -0.5985 -1.9861
16602TIP3    H271222   3.085   2.359   2.865  0.5450 -0.3881 -1.4965
16603TIP3   OH271223   1.235   6.634  11.863 -0.0329 -0.0538 -0.5656
16603TIP3    H171224   1.230   6.539  11.869  0.3562  0.0185  2.1862
16603TIP3    H271225   1.328   6.653  11.854  0.0839  0.0728  0.6882
16604TIP3   OH271226   1.686   0.789  17.266  0.1348 -0.1024 -0.0307
16604TIP3    H171227   1.703   0.821  17.177  1.4104 -0.0468  0.2063
16604TIP3    H271228   1.715   0.861  17.323  0.8701 -0.7645  0.4518
16605TIP3   OH271229   2.593   5.132  16.322 -0.6209 -1.1552 -0.4665
16605TIP3    H171230   2.614   5.038  16.329 -1.0855 -1.3272 -1.2552
16605TIP3    H271231   2.608   5.166  16.410  1.8174 -1.5039 -0.6570
16606TIP3   OH271232   1.754   2.806  16.694 -0.1985  0.0544  0.0463
16606TIP3    H171233   1.671   2.849  16.675 -0.5014  0.2522  1.6484
16606TIP3    H271234   1.736   2.712  16.684 -0.7762  0.0637  0.8962
16607TIP3   OH271235   6.188   3.708  15.080  0.6559  0.1224  0.1202
16607TIP3    H171236   6.245   3.663  15.142 -0.2779 -1.4649 -0.1334
16607TIP3    H271237   6.133   3.764  15.135  0.4255 -0.6094  0.6527
16608TIP3   OH271238   1.420   5.271   2.444 -0.7861 -0.1255  0.3245
16608TIP3    H171239   1.375   5.323   2.511 -2.4496  0.0427 -0.8675
16608TIP3    H271240   1.373   5.187   2.444 -1.6423  0.3220 -1.4714
16609TIP3   OH271241   0.154   1.040   6.007 -0.2216  0.6985 -0.1140
16609TIP3    H171242   0.116   1.032   6.094 -0.7525  1.2447 -0.2919
16609TIP3    H271243   0.146   0.952   5.970 -0.0234  0.4707  0.3694
16610TIP3   OH271244   0.960   6.444  12.992  0.2284 -0.6342  0.5464
16610TIP3    H171245   1.039   6.438  13.045  0.2411 -1.6244  0.4484
16610TIP3    H271246   0.935   6.536  12.995  0.9321 -0.4570  1.2353
16611TIP3   OH271247   1.475   2.642   2.283 -0.2961  0.1271  0.0520
16611TIP3    H171248   1.558   2.658   2.239 -0.6748 -1.0397 -1.1755
16611TIP3    H271249   1.494   2.573   2.346 -0.0264  0.8976  0.8199
16612TIP3   OH271250   3.783   1.439   3.525 -0.1311 -0.3821 -0.4616
16612TIP3    H171251   3.775   1.405   3.614 -0.5422 -0.2502 -0.4471
16612TIP3    H271252   3.858   1.499   3.528  1.8966 -2.7156 -0.9277
16613TIP3   OH271253   5.990   0.445   1.294 -0.1395  0.3176 -0.2592
16613TIP3    H171254   6.035   0.487   1.220 -1.2434  1.7153 -0.1761
16613TIP3    H271255   5.898   0.464   1.280 -0.5206 -0.7830  0.6452
16614TIP3   OH271256   1.216   5.170   3.460 -0.2188 -0.7572  0.1522
16614TIP3    H171257   1.298   5.211   3.488 -0.8582  0.2717  0.5566
16614TIP3    H271258   1.244   5.092   3.411  0.9983 -0.3176  0.1101
16615TIP3   OH271259   4.097   0.920  15.258 -0.6489  0.4707  0.0522
16615TIP3    H171260   4.050   0.893  15.180 -2.3705 -3.1223  2.0557
16615TIP3    H271261   4.183   0.877  15.251  0.5514  2.8805 -1.2508
16616TIP3   OH271262   6.631   5.245   4.249  0.3086  0.0335  0.2777
16616TIP3    H171263   6.564   5.200   4.197 -0.4177 -1.0488  2.0557
16616TIP3    H271264   6.583   5.281   4.324  1.2432  1.9799 -0.0075
16617TIP3   OH271265   4.607   5.858  14.867  0.0989  0.0669  0.0078
16617TIP3    H171266   4.583   5.924  14.932 -0.6454  0.6612 -0.8320
16617TIP3    H271267   4.692   5.826  14.895  0.6704  1.6756  0.2228
16618TIP3   OH271268   1.363   6.298  14.238 -0.2505  0.6770 -1.0822
16618TIP3    H171269   1.364   6.228  14.304 -0.0963 -0.4570 -2.2576
16618TIP3    H271270   1.338   6.377  14.288  1.5742  0.2277  0.6569
16619TIP3   OH271271   6.313   1.272  17.168 -0.0251 -0.7267  0.8159
16619TIP3    H171272   6.397   1.310  17.143  0.5343 -2.9359 -1.0654
16619TIP3    H271273   6.248   1.334  17.135  0.8632 -0.7409 -1.1167
16620TIP3   OH271274   2.117   4.698   5.775 -0.0990 -0.8750 -0.1532
16620TIP3    H171275   2.109   4.793   5.788  0.9428 -0.8541  0.3950
16620TIP3    H271276   2.119   4.662   5.864 -0.7660 -1.4528 -0.3576
16621TIP3   OH271277   0.497   4.302   2.941 -0.1082 -0.2759  0.7376
16621TIP3    H171278   0.515   4.270   3.029  1.4929  0.0331  0.5688
16621TIP3    H271279   0.491   4.223   2.887 -1.3956 -0.4787  1.1522
16622TIP3   OH271280   0.550   3.034   4.635  0.2652 -0.0410  0.2854
16622TIP3    H171281   0.491   3.098   4.594  0.7692  0.1449 -0.1700
16622TIP3    H271282   0.493   2.979   4.688 -0.2504  0.4448  0.2433
16623TIP3   OH271283   1.773   1.873   5.755  0.3944  0.1685 -0.0426
16623TIP3    H171284   1.751   1.783   5.775 -2.2906  1.1261  1.7480
16623TIP3    H271285   1.836   1.867   5.683  0.7377 -3.0962  0.4204
16624TIP3   OH271286   2.929   2.857  17.291  0.1603  0.3604 -0.3044
16624TIP3    H171287   2.858   2.801  17.259 -0.4331  1.0500 -0.2446
16624TIP3    H271288   2.968   2.894  17.212 -0.1625  0.7004 -0.3095
16625TIP3   OH271289   6.568   5.313  10.943 -0.9631 -0.1954 -0.4802
16625TIP3    H171290   6.639   5.361  10.986 -2.1562  0.2921  1.0189
16625TIP3    H271291   6.581   5.330  10.850  0.4909  0.4299 -0.2003
16626TIP3   OH271292   2.045   6.442  11.449 -0.3121 -0.0037  0.5668
16626TIP3    H171293   2.102   6.479  11.381  2.2671 -1.1525  1.9596
16626TIP3    H271294   2.104   6.420  11.520 -2.4738 -1.8196  1.9423
16627TIP3   OH271295   2.295   0.778  14.513  0.2078  0.3403  0.5634
16627TIP3    H171296   2.271   0.862  14.553 -0.3147  0.3767  0.1822
16627TIP3    H271297   2.337   0.803  14.431 -3.4061  0.2254 -1.5109
16628TIP3   OH271298   5.070   0.924   4.384  0.2288 -0.4609 -0.1479
16628TIP3    H171299   5.054   0.961   4.297  1.3225  0.9548  0.2192
16628TIP3    H271300   4.995   0.867   4.400 -0.0869 -0.6073 -1.9353
16629TIP3   OH271301   2.530   1.582  17.384  0.4397  0.1954 -0.0344
16629TIP3    H171302   2.539   1.517  17.453  1.8491 -0.3982 -0.7311
16629TIP3    H271303   2.616   1.585  17.343  0.1421  1.8348 -0.6214
16630TIP3   OH271304   5.175   5.785  10.756 -0.2654  0.1789  0.7087
16630TIP3    H171305   5.219   5.813  10.676 -0.2743  2.1429  1.3541
16630TIP3    H271306   5.135   5.701  10.733  0.1848  0.4429 -1.1675
16631TIP3   OH271307   0.001   2.025  13.978 -0.0283 -0.8532  0.4878
16631TIP3    H171308   0.032   2.098  14.032  0.1832  0.1407 -0.9358
16631TIP3    H271309  -0.063   1.980  14.034  1.7862 -1.2215  2.3883
16632TIP3   OH271310   4.135   6.057  13.690  0.3245  0.0706  0.5524
16632TIP3    H171311   4.209   6.008  13.725 -0.6793 -2.4410 -0.5509
16632TIP3    H271312   4.063   6.038  13.751  0.2736  1.5409  0.9812
16633TIP3   OH271313   3.404   1.193   2.095 -0.3968 -0.2162  0.0091
16633TIP3    H171314   3.398   1.203   2.190 -0.0594  1.5165 -0.1279
16633TIP3    H271315   3.435   1.103   2.082  1.4148  0.1245  1.6145
16634TIP3   OH271316   0.054   1.302  17.412 -0.3625  0.3997 -0.1327
16634TIP3    H171317  -0.020   1.267  17.462 -0.4584  0.6649 -0.0883
16634TIP3    H271318   0.053   1.252  17.330  0.6795 -1.0758  0.6997
16635TIP3   OH271319   5.494   3.252   2.149  0.5740 -0.4332 -0.5286
16635TIP3    H171320   5.532   3.339   2.149 -1.1299  0.3833  1.0584
16635TIP3    H271321   5.474   3.234   2.057 -1.0440  1.8202 -0.7008
16636TIP3   OH271322   1.135   5.631   5.948  0.1248 -0.2951 -0.2869
16636TIP3    H171323   1.088   5.569   6.003  2.4312 -1.7397  0.2017
16636TIP3    H271324   1.209   5.659   6.002  0.9629  0.3340 -1.7043
16637TIP3   OH271325   5.753   1.912   5.072  0.0547  0.6143 -0.7650
16637TIP3    H171326   5.743   1.824   5.035  0.3712  0.7653 -1.2073
16637TIP3    H271327   5.836   1.909   5.119 -0.3228  0.4375 -0.0942
16638TIP3   OH271328   6.722   4.116  17.116  0.8685  0.1211 -0.1794
16638TIP3    H171329   6.741   4.048  17.052 -1.7717 -1.6187  0.7069
16638TIP3    H271330   6.712   4.196  17.064  1.6399 -0.6339 -1.5389
16639TIP3   OH271331   6.680   2.774   5.009  0.1617  0.7277 -0.0490
16639TIP3    H171332   6.588   2.765   5.032  0.4214  0.3589  0.8935
16639TIP3    H271333   6.716   2.831   5.076  0.5914  0.9958 -0.5002
16640TIP3   OH271334   1.995   5.896   1.554 -0.2059  0.3093  0.1017
16640TIP3    H171335   2.068   5.842   1.583  0.8894  0.4594 -2.1752
16640TIP3    H271336   2.003   5.898   1.459 -2.7092  1.0229 -0.1589
16641TIP3   OH271337   3.835   0.816   0.822 -0.1909 -0.2569  0.3917
16641TIP3    H171338   3.819   0.897   0.774 -0.2355 -0.4010  0.1608
16641TIP3    H271339   3.748   0.787   0.850 -0.4156 -1.2433 -1.1934
16642TIP3   OH271340   3.025   4.004  12.986 -0.5514  0.3394  0.5938
16642TIP3    H171341   2.939   4.004  12.943 -0.8032  0.9596  1.0802
16642TIP3    H271342   3.009   3.965  13.071 -0.3612  0.5099  0.7087
16643TIP3   OH271343   5.988   5.448   0.682  0.3241  0.4017 -0.7944
16643TIP3    H171344   6.032   5.487   0.606  2.2111  0.1087  0.0838
16643TIP3    H271345   6.026   5.494   0.757  0.5895 -1.2167  0.1018
16644TIP3   OH271346   6.020   2.789   1.922 -0.0169  0.2668  0.4390
16644TIP3    H171347   5.952   2.822   1.864 -1.4556 -0.4078  1.6621
16644TIP3    H271348   5.976   2.725   1.978  1.7434 -0.5868  0.9508
16645TIP3   OH271349   4.718   4.703  17.260  0.4681  0.3531  0.4073
16645TIP3    H171350   4.628   4.736  17.266 -0.5604 -2.0916 -0.3327
16645TIP3    H271351   4.729   4.679  17.169  0.5740 -2.5868  1.0967
16646TIP3   OH271352   4.365   4.231   1.160 -0.5201  0.0422  0.3842
16646TIP3    H171353   4.360   4.136   1.147 -0.4758  0.1932 -0.8830
16646TIP3    H271354   4.322   4.246   1.244 -1.6686 -0.9674  0.0033
16647TIP3   OH271355   5.420   4.862   3.579 -0.9060 -0.2207  0.3732
16647TIP3    H171356   5.404   4.770   3.559 -1.0300 -0.2311  0.5178
16647TIP3    H271357   5.494   4.861   3.640 -1.8495 -0.3309  1.5708
16648TIP3   OH271358   3.042   3.321  17.457  0.2265  0.1301 -0.2753
16648TIP3    H171359   3.060   3.243  17.405  1.2497 -0.2498  0.6074
16648TIP3    H271360   2.984   3.374  17.402 -1.1745 -1.6123 -0.5552
16649TIP3   OH271361   3.638   2.853   5.777 -0.5150  0.2859 -0.0364
16649TIP3    H171362   3.663   2.904   5.700  1.7779 -1.1993 -0.3667
16649TIP3    H271363   3.703   2.876   5.843  0.5157 -1.9894 -0.1493
16650TIP3   OH271364   4.020   5.391  15.019  0.2695 -0.0384  0.3388
16650TIP3    H171365   3.940   5.443  15.009 -0.2772 -0.9715 -0.2966
16650TIP3    H271366   3.991   5.300  15.010  1.4211 -0.3810 -0.0866
16651TIP3   OH271367   4.110   0.967  13.561  0.1419 -0.2437  0.0036
16651TIP3    H171368   4.173   1.006  13.621  0.4750  0.7869 -0.9831
16651TIP3    H271369   4.152   0.974  13.475 -1.7470  1.4976 -0.8547
16652TIP3   OH271370   3.968   0.865   6.452  0.1753 -0.1206 -0.9765
16652TIP3    H171371   3.920   0.860   6.535  0.1878  1.1500 -0.8769
16652TIP3    H271372   3.900   0.872   6.385  0.1835  1.1280 -0.8781
16653TIP3   OH271373   4.713   2.489  17.226  0.4087  0.3197 -0.0100
16653TIP3    H171374   4.694   2.400  17.196  1.3865 -0.9990  2.9250
16653TIP3    H271375   4.627   2.532  17.228  0.1295  0.1931 -3.2644
16654TIP3   OH271376   3.815   4.354  16.158  0.3924 -0.2489  0.4917
16654TIP3    H171377   3.879   4.364  16.227  1.3045 -1.5661 -0.1168
16654TIP3    H271378   3.750   4.422  16.175  2.4494  1.8459  0.5442
16655TIP3   OH271379   4.865   2.560  14.359  0.3938  0.1769 -0.2363
16655TIP3    H171380   4.909   2.529  14.279 -0.7248 -1.0299 -0.4095
16655TIP3    H271381   4.805   2.489  14.382  0.8563  0.3979  1.8289
16656TIP3   OH271382   1.108   6.599   1.211  0.2868  0.1370  0.1970
16656TIP3    H171383   1.197   6.606   1.176  0.8795  1.4671  1.8434
16656TIP3    H271384   1.060   6.551   1.144  1.4794  1.9885 -2.1618
16657TIP3   OH271385   5.083   4.674  15.935 -0.1286  0.1269 -0.4054
16657TIP3    H171386   5.123   4.631  16.010 -0.5376  0.6058  0.0922
16657TIP3    H271387   5.156   4.720  15.892 -0.0004  0.3390  0.0351
16658TIP3   OH271388   1.531   6.624  16.186  0.2636  0.8080 -0.1030
16658TIP3    H171389   1.461   6.680  16.221 -0.8764  0.0781 -1.1460
16658TIP3    H271390   1.547   6.658  16.098  0.5962  0.3952 -0.2018
16659TIP3   OH271391   4.198   4.902   1.783  0.2072 -0.2334 -0.3979
16659TIP3    H171392   4.180   4.820   1.830 -2.5031  0.7930  0.5907
16659TIP3    H271393   4.111   4.934   1.757  1.3481  1.2372 -2.7298
16660TIP3   OH271394   3.687   6.126  11.475 -0.0788 -0.2324 -0.4134
16660TIP3    H171395   3.606   6.177  11.472  0.4059  0.5919 -0.1414
16660TIP3    H271396   3.725   6.136  11.388  0.1535  0.1172 -0.2755
16661TIP3   OH271397   3.445   5.587   6.211  0.0828  0.6978  0.6483
16661TIP3    H171398   3.505   5.515   6.230  1.2371  1.2497 -0.7937
16661TIP3    H271399   3.367   5.567   6.264  1.4261 -0.1259  2.4119
16662TIP3   OH271400   6.209   5.819  15.001 -0.1202 -0.2031  0.2775
16662TIP3    H171401   6.282   5.810  15.062 -0.3205  1.1898  0.7420
16662TIP3    H271402   6.153   5.886  15.039 -3.9572 -4.0491  2.1443
16663TIP3   OH271403   0.181   4.131  12.313  0.1083  0.4687  0.0589
16663TIP3    H171404   0.239   4.169  12.380 -1.1541  1.0923  0.8414
16663TIP3    H271405   0.234   4.064  12.271  1.3836  0.9802  0.7798
16664TIP3   OH271406   1.894   4.850  16.335 -0.0161 -0.3245 -0.1448
16664TIP3    H171407   1.882   4.877  16.244 -1.6052  2.2368  0.7146
16664TIP3    H271408   1.864   4.925  16.386  1.4594 -1.4136  2.5174
16665TIP3   OH271409   4.084   1.503  16.227 -0.2729  0.2103 -0.4215
16665TIP3    H171410   4.030   1.570  16.271  0.2965  0.9914 -0.8832
16665TIP3    H271411   4.022   1.453  16.174 -0.9214 -0.5065  0.9463
16666TIP3   OH271412   2.285   4.479  14.652  0.3230 -0.0148  0.3218
16666TIP3    H171413   2.277   4.574  14.654  2.0128  0.3351 -3.0339
16666TIP3    H271414   2.380   4.463  14.656  0.1522 -1.4374 -0.5257
16667TIP3   OH271415   1.035   5.528   3.942  0.0249 -0.0774 -0.4186
16667TIP3    H171416   1.031   5.479   4.025 -0.4229  0.2327 -0.2533
16667TIP3    H271417   1.099   5.597   3.958 -0.6843  0.5023 -0.0448
16668TIP3   OH271418   5.212   3.038  17.154 -0.7536 -0.5943 -0.8491
16668TIP3    H171419   5.289   2.982  17.142 -0.3610 -0.3589  0.4589
16668TIP3    H271420   5.152   2.984  17.205 -0.3823  0.1410  0.3970
16669TIP3   OH271421   1.906   3.740   0.027 -0.3924  0.0168  0.1178
16669TIP3    H171422   1.948   3.669   0.074  3.0319  0.1109 -2.4449
16669TIP3    H271423   1.882   3.702  -0.058  2.4348  1.9062 -1.7137
16670TIP3   OH271424   5.824   5.072   3.496  0.0403 -0.1542 -0.4123
16670TIP3    H171425   5.919   5.060   3.487  0.1680  0.7869 -0.4509
16670TIP3    H271426   5.800   5.130   3.423 -0.5335 -0.2381 -0.2940
16671TIP3   OH271427   2.200   1.234  13.373  0.1471  0.4651  0.0447
16671TIP3    H171428   2.229   1.145  13.355 -2.2258 -0.2045 -0.7748
16671TIP3    H271429   2.134   1.252  13.305 -0.0074  2.5465  0.6809
16672TIP3   OH271430   1.138   0.292  16.568 -0.1720 -0.6147 -0.1290
16672TIP3    H171431   1.082   0.221  16.599 -0.5376 -0.6619 -0.8533
16672TIP3    H271432   1.119   0.365  16.626 -0.5216 -0.8237  0.0203
16673TIP3   OH271433   5.580   3.669   5.678 -0.0981  0.0803 -0.4483
16673TIP3    H171434   5.658   3.721   5.693  1.0627 -1.0004 -2.3173
16673TIP3    H271435   5.579   3.605   5.749  0.1002  0.7634  0.1849
16674TIP3   OH271436   5.096   0.485   1.860  0.1926  0.1207 -0.5888
16674TIP3    H171437   5.081   0.566   1.811  1.9003  0.3843 -0.7738
16674TIP3    H271438   5.105   0.513   1.951 -1.4753 -0.1807 -0.2995
16675TIP3   OH271439   3.452   1.425  15.079  0.3896  0.3197 -0.2048
16675TIP3    H171440   3.512   1.394  15.012  1.7236  1.9866  0.1352
16675TIP3    H271441   3.366   1.425  15.037  1.0912  0.6718 -1.6795
16676TIP3   OH271442   3.673   3.900   2.356 -0.0899  0.2358  0.2948
16676TIP3    H171443   3.682   3.922   2.449 -1.2375 -1.0689  0.7568
16676TIP3    H271444   3.748   3.843   2.338  0.3553  0.8064  0.2980
16677TIP3   OH271445   0.994   0.553   4.034  0.4521 -0.1687  0.1342
16677TIP3    H171446   0.947   0.469   4.027 -0.5815  0.2603  1.5245
16677TIP3    H271447   0.997   0.571   4.128 -1.2823  2.4061 -0.1987
16678TIP3   OH271448   3.339   1.133   3.082 -0.1890 -0.1070 -0.1199
16678TIP3    H171449   3.249   1.124   3.052  0.5085 -1.2786 -2.0146
16678TIP3    H271450   3.392   1.110   3.006  1.7233  0.6123  0.9333
16679TIP3   OH271451   2.955   1.439   0.969  0.2781  0.0584  0.0686
16679TIP3    H171452   2.995   1.522   0.944  0.3047 -0.3746 -1.4084
16679TIP3    H271453   3.019   1.373   0.944  0.9798 -0.3888  2.6945
16680TIP3   OH271454   3.333   3.957   4.766 -0.1262  0.2091  0.2392
16680TIP3    H171455   3.313   3.995   4.680  0.8265 -0.0420 -0.1044
16680TIP3    H271456   3.267   3.994   4.824 -1.7094 -0.7024 -0.8737
16681TIP3   OH271457   2.017   6.228  13.105  0.7002 -0.0657 -0.1636
16681TIP3    H171458   2.060   6.154  13.148 -0.4385 -0.7505 -0.1636
16681TIP3    H271459   1.949   6.188  13.051  1.2651  0.8629 -1.6246
16682TIP3   OH271460   0.101   1.843   0.593 -0.0861 -0.0491 -0.1603
16682TIP3    H171461   0.133   1.894   0.667 -0.7629 -1.1249  0.9209
16682TIP3    H271462   0.006   1.839   0.606 -0.0222 -1.8745  0.0209
16683TIP3   OH271463   0.966   6.671   2.775  0.7893  0.0908  0.4213
16683TIP3    H171464   0.957   6.766   2.783 -1.2503 -0.1341  1.5023
16683TIP3    H271465   1.038   6.649   2.834  1.4512  0.9745 -0.0335
16684TIP3   OH271466   1.593   2.325   2.749  0.1292  0.6477 -0.0190
16684TIP3    H171467   1.603   2.375   2.830 -0.4954  0.8451 -0.0589
16684TIP3    H271468   1.682   2.321   2.712  0.0143  2.7391 -0.6104
16685TIP3   OH271469   0.967   1.309   2.816  0.6515  0.4561 -0.1222
16685TIP3    H171470   0.924   1.288   2.733 -0.5514  1.7143  0.1298
16685TIP3    H271471   0.932   1.245   2.878 -0.7142  1.3003  0.0186
16686TIP3   OH271472   1.689   3.550  11.967 -0.5118 -0.1756 -0.2309
16686TIP3    H171473   1.762   3.544  11.905 -0.2663  1.5133 -0.1575
16686TIP3    H271474   1.616   3.581  11.914  0.2028  3.2473  0.5751
16687TIP3   OH271475   2.114   0.579   5.231  0.1753 -0.0263 -0.1132
16687TIP3    H171476   2.132   0.498   5.280 -1.8227 -0.0459  0.6949
16687TIP3    H271477   2.085   0.641   5.298  1.0501  1.1786 -0.8225
16688TIP3   OH271478   4.353   2.909   5.648 -0.1273 -0.1109 -0.0292
16688TIP3    H171479   4.320   2.941   5.732  0.0936 -0.2855  0.1250
16688TIP3    H271480   4.447   2.926   5.652 -0.0205 -0.7024  0.0207
16689TIP3   OH271481   5.906   5.780   4.835  0.1740  0.2295  0.2429
16689TIP3    H171482   5.814   5.786   4.809 -0.2734 -0.2543  1.6032
16689TIP3    H271483   5.924   5.863   4.879  0.5228  0.4854 -0.3622
16690TIP3   OH271484   6.123   4.753   5.040 -0.6403  0.1889  0.0953
16690TIP3    H171485   6.131   4.835   4.992  0.8582  0.3482  0.5546
16690TIP3    H271486   6.108   4.687   4.972  2.2561  0.2887 -0.8088
16691TIP3   OH271487   4.527   3.963  13.341  0.2948  0.2820 -0.1994
16691TIP3    H171488   4.607   3.991  13.385 -0.2486  1.4074  0.1096
16691TIP3    H271489   4.494   3.890  13.394  0.7328  0.2913  0.0863
16692TIP3   OH271490   2.703   0.363   0.658  0.1020 -0.2337  0.6869
16692TIP3    H171491   2.718   0.269   0.669  0.4354 -0.4580 -1.3305
16692TIP3    H271492   2.791   0.401   0.660  0.0379 -0.0796  0.5054
16693TIP3   OH271493   4.866   1.524   2.145  0.3420 -0.1176 -0.1797
16693TIP3    H171494   4.894   1.464   2.214  0.4653 -0.1740 -0.2805
16693TIP3    H271495   4.793   1.478   2.102  1.4664 -0.8997 -1.2976
16694TIP3   OH271496   2.829   1.328  17.044 -0.2106  0.3455 -0.3282
16694TIP3    H171497   2.856   1.278  16.967  2.0989  0.5830  0.2524
16694TIP3    H271498   2.801   1.261  17.107 -0.1208 -0.0028 -0.6525
16695TIP3   OH271499   2.215   0.930  11.500  0.3186  0.5129  0.2909
16695TIP3    H171500   2.239   0.897  11.413  0.8255  0.6147  0.3899
16695TIP3    H271501   2.291   0.911  11.555 -0.1138  0.1949  0.7815
16696TIP3   OH271502   1.691   4.996  13.077  0.0991 -0.1807  0.9913
16696TIP3    H171503   1.742   5.014  13.156  2.2486  0.5403 -0.4830
16696TIP3    H271504   1.640   5.076  13.063  1.1970  0.4809  0.6127
16697TIP3   OH271505   4.387   1.942  11.914 -0.4422  0.4216  0.0734
16697TIP3    H171506   4.449   1.884  11.958 -2.5560 -2.9929 -1.0804
16697TIP3    H271507   4.440   1.985  11.846  1.4585  0.8811  1.7485
16698TIP3   OH271508   5.112   1.521  14.521  0.4679 -0.1564 -0.4320
16698TIP3    H171509   5.047   1.552  14.584  0.7871 -0.2919 -0.0319
16698TIP3    H271510   5.196   1.548  14.559  0.7318 -1.1804 -0.2594
16699TIP3   OH271511   2.832   4.336  16.568 -0.2600  0.0409 -0.1174
16699TIP3    H171512   2.748   4.292  16.580 -0.3613  0.1292 -0.4938
16699TIP3    H271513   2.824   4.381  16.484  0.2367 -0.1182 -0.2543
16700TIP3   OH271514   0.077   6.058   5.065  0.6352 -0.3554 -0.4411
16700TIP3    H171515   0.144   6.004   5.023  1.0731  0.9539 -1.5100
16700TIP3    H271516   0.089   6.145   5.026 -0.1107  0.4917  1.1455
16701TIP3   OH271517   1.870   3.533   0.402  0.4108 -0.5047  1.0789
16701TIP3    H171518   1.801   3.520   0.468  0.7097  2.3164  2.0558
16701TIP3    H271519   1.947   3.492   0.441  0.2142 -0.2328  1.7788
16702TIP3   OH271520   5.939   1.517   1.353  0.1915 -0.4290 -0.6111
16702TIP3    H171521   5.994   1.541   1.427 -2.0067 -0.0886  1.0201
16702TIP3    H271522   5.955   1.586   1.288 -0.1538  1.0740  0.8354
16703TIP3   OH271523   5.308   2.065  13.254 -0.4236 -0.1684  0.1481
16703TIP3    H171524   5.321   2.158  13.232  1.9448  0.0251  1.8589
16703TIP3    H271525   5.391   2.024  13.229 -0.9132 -1.5402  0.7201
16704TIP3   OH271526   1.081   4.495  16.071 -0.0384  0.5054  0.3149
16704TIP3    H171527   1.156   4.489  16.129 -1.0748  2.4685  1.9642
16704TIP3    H271528   1.091   4.579  16.026 -0.3228 -0.0519 -0.8470
16705TIP3   OH271529   1.091   6.532   3.484  0.4289  0.7631  0.1755
16705TIP3    H171530   1.007   6.571   3.507 -0.2584 -0.9167  0.6259
16705TIP3    H271531   1.130   6.509   3.568  0.1072 -0.9246 -0.1018
16706TIP3   OH271532   5.680   4.607  15.782 -0.1314 -0.3094 -0.5828
16706TIP3    H171533   5.692   4.565  15.867  0.5494 -1.2412 -1.1170
16706TIP3    H271534   5.753   4.575  15.729  0.7362  1.9519 -0.8881
16707TIP3   OH271535   0.144   4.856   5.005 -0.0051  0.1860 -0.6993
16707TIP3    H171536   0.076   4.811   4.955 -1.4495  1.9419 -0.4077
16707TIP3    H271537   0.145   4.812   5.090 -1.3018  0.5982 -0.4592
16708TIP3   OH271538   4.774   3.131   3.973  0.0789 -0.2391  0.5084
16708TIP3    H171539   4.842   3.188   3.937 -1.5301  0.8739 -0.8913
16708TIP3    H271540   4.757   3.068   3.903 -1.9014  0.9113 -0.1333
16709TIP3   OH271541   0.155   4.464   5.123  0.1938  0.8361 -0.3682
16709TIP3    H171542   0.085   4.492   5.182 -0.8517 -1.4481 -0.4186
16709TIP3    H271543   0.114   4.461   5.037  0.1925 -0.8574 -0.3460
16710TIP3   OH271544   1.891   2.977   4.852  0.6682 -0.8376  0.2538
16710TIP3    H171545   1.894   2.926   4.933  0.8161  1.5831  1.8667
16710TIP3    H271546   1.892   2.911   4.782 -0.9796 -3.0904  2.1876
16711TIP3   OH271547   1.261   0.353   3.340  0.0601  0.2467  0.1806
16711TIP3    H171548   1.334   0.301   3.309  0.8411  0.2130  1.9334
16711TIP3    H271549   1.221   0.389   3.261  2.8233  1.4315 -0.7841
16712TIP3   OH271550   0.234   2.711  13.408 -0.0466 -0.1317  0.0988
16712TIP3    H171551   0.270   2.653  13.476  1.8786  0.0132 -0.7443
16712TIP3    H271552   0.275   2.681  13.327 -2.1254 -0.1416 -1.0030
16713TIP3   OH271553   1.391   3.203   5.823  0.3458  0.1543  0.2438
16713TIP3    H171554   1.396   3.111   5.797 -1.4029  0.0628  0.0843
16713TIP3    H271555   1.353   3.200   5.911  0.2039  0.7258  0.2008
16714TIP3   OH271556   3.634   1.938  14.646 -0.5369  0.1531  0.1903
16714TIP3    H171557   3.713   1.911  14.693 -0.2776  1.3250  0.4649
16714TIP3    H271558   3.568   1.873  14.671  0.1049 -0.3390  0.6490
16715TIP3   OH271559   4.927   6.135  15.837 -0.3781 -0.1934  0.4595
16715TIP3    H171560   4.891   6.063  15.785  1.0603 -0.2869 -0.4639
16715TIP3    H271561   5.021   6.128  15.826 -0.1690  1.4340  0.8863
16716TIP3   OH271562   0.710   5.509   0.353 -0.2235  0.1127  0.5818
16716TIP3    H171563   0.684   5.546   0.269 -1.0495  0.2694  0.8965
16716TIP3    H271564   0.665   5.563   0.418  1.6980  1.0494  1.2107
16717TIP3   OH271565   2.227   6.165  16.098  0.2398 -0.3969  0.0598
16717TIP3    H171566   2.229   6.093  16.036 -0.1793 -1.3882  1.1609
16717TIP3    H271567   2.225   6.123  16.184 -2.8146  0.8200  0.7333
16718TIP3   OH271568   5.822   4.180  13.310  0.0602  0.2584 -0.2715
16718TIP3    H171569   5.897   4.125  13.333  0.9457  0.7428 -1.8624
16718TIP3    H271570   5.837   4.205  13.219 -3.0832 -1.3472 -1.3866
16719TIP3   OH271571   3.597   4.147   2.180  0.4098 -0.2004  0.2006
16719TIP3    H171572   3.618   4.055   2.196  0.4588 -0.2216  0.0204
16719TIP3    H271573   3.617   4.191   2.263  1.7511 -0.1228 -0.1293
16720TIP3   OH271574   0.710   4.257   2.027  0.2780  0.1998 -0.4204
16720TIP3    H171575   0.689   4.337   1.979 -0.1270  0.0213 -0.5485
16720TIP3    H271576   0.673   4.271   2.114  0.8460  0.4461 -0.2139
16721TIP3   OH271577   0.412   4.674  14.369 -0.3383  0.1306  0.0137
16721TIP3    H171578   0.330   4.710  14.405 -0.6148  0.6225 -1.0626
16721TIP3    H271579   0.384   4.602  14.313 -0.1273  0.8278 -1.0230
16722TIP3   OH271580   6.118   3.254   1.863 -0.6782 -0.2895 -0.3857
16722TIP3    H171581   6.189   3.192   1.845  0.0416  0.7999 -1.4865
16722TIP3    H271582   6.137   3.287   1.951  0.0334 -0.2201 -0.5592
16723TIP3   OH271583   2.446   4.311  13.855 -0.6041  0.4437 -0.3832
16723TIP3    H171584   2.516   4.248  13.866 -0.7233  0.3589 -0.0950
16723TIP3    H271585   2.420   4.302  13.763 -0.7780 -0.0933 -0.2868
16724TIP3   OH271586   5.721   4.517  16.043  0.5020  0.4897  0.0609
16724TIP3    H171587   5.804   4.493  16.083  0.8812 -0.2532 -1.1273
16724TIP3    H271588   5.706   4.607  16.071  1.2239  0.3152  1.0597
16725TIP3   OH271589   4.367   3.589   0.258 -0.1287 -0.4537 -0.0689
16725TIP3    H171590   4.450   3.635   0.249 -0.7578  0.6304 -0.4490
16725TIP3    H271591   4.340   3.570   0.168  0.0729 -1.4999  0.0766
16726TIP3   OH271592   1.783   4.710   0.153 -0.3813 -0.0138 -0.0769
16726TIP3    H171593   1.712   4.648   0.138 -0.4333  0.2233 -0.8110
16726TIP3    H271594   1.838   4.704   0.075 -1.3244  2.1280 -0.9863
16727TIP3   OH271595   3.021   1.774  13.584 -0.3159  0.5885  0.2657
16727TIP3    H171596   3.029   1.686  13.548 -1.0293 -0.0184  1.5313
16727TIP3    H271597   3.110   1.809  13.581 -0.2017  0.2536 -1.2485
16728TIP3   OH271598   2.537   5.035   5.547  0.0214 -0.6248  0.3942
16728TIP3    H171599   2.608   5.092   5.517  1.3414 -2.1591  0.4706
16728TIP3    H271600   2.574   4.947   5.542 -1.3073 -1.3245  2.0479
16729TIP3   OH271601   5.514   4.764   2.751 -0.2286 -0.2020  0.5071
16729TIP3    H171602   5.500   4.670   2.753 -0.3488 -0.1737  1.3014
16729TIP3    H271603   5.595   4.775   2.701 -1.5241 -0.5348 -1.8179
16730TIP3   OH271604   3.291   5.443   2.743  0.0829 -0.5116  0.0082
16730TIP3    H171605   3.387   5.440   2.750  0.2367 -0.7672 -1.8861
16730TIP3    H271606   3.261   5.373   2.800  0.8619  1.0020  2.4553
16731TIP3   OH271607   2.020   2.181   0.604 -0.0618 -0.0042 -0.0170
16731TIP3    H171608   2.037   2.230   0.684  0.5158 -0.7422  0.3233
16731TIP3    H271609   2.101   2.134   0.586 -0.8566 -1.5152  0.1640
16732TIP3   OH271610   2.933   4.978   3.515  0.2010  0.4004 -0.1969
16732TIP3    H171611   2.839   4.996   3.522  0.3736  0.8354  1.5367
16732TIP3    H271612   2.939   4.885   3.495 -0.6106 -0.1779  1.9813
16733TIP3   OH271613   1.456   2.185   3.039 -0.1610 -0.1994  0.0422
16733TIP3    H171614   1.395   2.212   3.107  2.1443  1.1148  1.6956
16733TIP3    H271615   1.410   2.204   2.957 -1.0081  3.2858  1.1604
16734TIP3   OH271616   3.274   3.803  16.261  0.0704  0.6172 -0.1109
16734TIP3    H171617   3.186   3.772  16.241 -0.4411  2.0233 -0.1806
16734TIP3    H271618   3.282   3.796  16.356 -0.4209  1.1975 -0.0196
16735TIP3   OH271619   1.474   4.799  12.277  0.0605  0.1810 -0.0658
16735TIP3    H171620   1.526   4.873  12.308 -0.0615  1.1507 -2.0363
16735TIP3    H271621   1.511   4.777  12.191 -1.2596 -0.6649 -0.4548
16736TIP3   OH271622   2.380   4.456   2.680  0.5695 -0.2896  0.0168
16736TIP3    H171623   2.352   4.375   2.638  0.0657 -0.3809  0.5136
16736TIP3    H271624   2.346   4.449   2.769 -0.0714  0.7679 -0.1320
16737TIP3   OH271625   0.238   1.208  14.537  0.4728  0.4402  0.5339
16737TIP3    H171626   0.327   1.182  14.512  0.4463  1.3466 -0.5863
16737TIP3    H271627   0.243   1.303  14.547 -0.5326  0.5891 -0.2669
16738TIP3   OH271628   1.410   5.568   1.943 -0.0504  0.1889 -0.7115
16738TIP3    H171629   1.377   5.577   2.033  0.6096  0.9736 -0.5414
16738TIP3    H271630   1.489   5.514   1.952 -0.0707  0.1354 -0.8483
16739TIP3   OH271631   4.776   6.148   4.340 -0.7004 -0.4842  0.1255
16739TIP3    H171632   4.804   6.133   4.430  0.2626 -0.3938 -0.1444
16739TIP3    H271633   4.737   6.235   4.340  0.6243  0.1369  0.1807
16740TIP3   OH271634   3.536   4.562   0.919  0.3010  0.0059  0.6261
16740TIP3    H171635   3.452   4.571   0.874  0.3273  0.1879  0.6129
16740TIP3    H271636   3.563   4.472   0.902  0.8067  0.3672 -0.5868
16741TIP3   OH271637   3.791   0.890  12.053 -0.2559  0.0111  0.4342
16741TIP3    H171638   3.741   0.923  11.978 -0.6481  0.4893  0.8954
16741TIP3    H271639   3.744   0.923  12.129  1.3681  1.4218  0.8891
16742TIP3   OH271640   4.723   1.740   1.677  0.2732  0.0516  0.2238
16742TIP3    H171641   4.691   1.683   1.747  1.2258 -2.6163 -1.3521
16742TIP3    H271642   4.818   1.724   1.675  0.1343 -1.0027 -2.4288
16743TIP3   OH271643   2.802   6.351  14.710  0.3340  0.1120 -0.3244
16743TIP3    H171644   2.767   6.272  14.751  0.8993  0.3720  0.6735
16743TIP3    H271645   2.753   6.423  14.750  0.0895  0.2999 -0.9506
16744TIP3   OH271646   5.656   3.410   5.180 -0.1251 -0.3532  0.8634
16744TIP3    H171647   5.658   3.318   5.206  0.3801 -0.3166  0.9701
16744TIP3    H271648   5.728   3.450   5.229 -2.2551  0.7755  3.2323
16745TIP3   OH271649   5.783   0.177   2.893 -0.0319 -0.1448  0.3793
16745TIP3    H171650   5.836   0.097   2.889 -0.7892 -0.5920 -1.7204
16745TIP3    H271651   5.739   0.172   2.978  1.8003 -0.6808  1.3777
16746TIP3   OH271652   3.438   3.203  12.838  0.3220  0.3261 -0.5087
16746TIP3    H171653   3.531   3.210  12.814  0.4053 -0.4233 -0.4179
16746TIP3    H271654   3.398   3.281  12.799  1.0368  0.8058 -0.3139
16747TIP3   OH271655   6.503   0.236  12.760  0.2806  0.3691 -0.0296
16747TIP3    H171656   6.434   0.301  12.753  0.0495  0.2089  0.7157
16747TIP3    H271657   6.533   0.242  12.850 -0.8478 -1.6669  0.5392
16748TIP3   OH271658   2.712   4.374  11.703  0.5624  0.1035  0.1569
16748TIP3    H171659   2.629   4.415  11.677  0.7849 -0.2745 -1.2624
16748TIP3    H271660   2.779   4.425  11.658  1.0929  0.1679  0.9951
16749TIP3   OH271661   2.871   5.502  13.970  0.3194 -0.5842  0.6339
16749TIP3    H171662   2.869   5.561  14.045 -0.5277 -0.8465  0.8299
16749TIP3    H271663   2.961   5.470  13.967  0.9710  1.1469  0.1723
16750TIP3   OH271664   0.867   3.178   5.658  0.2332  0.2115 -0.7183
16750TIP3    H171665   0.891   3.258   5.705 -1.3166  0.5541 -0.4392
16750TIP3    H271666   0.868   3.203   5.566  0.7571  0.2629 -0.7000
16751TIP3   OH271667   6.646   3.217  14.976  0.6490 -0.2160 -0.3907
16751TIP3    H171668   6.706   3.263  15.034  0.6487 -0.9201  0.1940
16751TIP3    H271669   6.586   3.172  15.035 -0.2560  0.2065 -0.9592
16752TIP3   OH271670   1.228   3.798  15.775 -0.2184  0.0911 -0.1085
16752TIP3    H171671   1.177   3.746  15.712 -0.6605 -0.5839  0.7925
16752TIP3    H271672   1.319   3.776  15.755 -0.2461  1.1754 -1.6176
16753TIP3   OH271673   0.281   4.037  14.352  0.2362  0.0471  0.3411
16753TIP3    H171674   0.257   4.066  14.264 -0.5162  0.3603  0.6397
16753TIP3    H271675   0.202   3.995  14.385  0.6785 -0.5230  0.6799
16754TIP3   OH271676   5.446   4.005  16.011  1.0225 -0.1892 -0.7723
16754TIP3    H171677   5.383   3.938  15.986 -3.4575  2.8373  1.1644
16754TIP3    H271678   5.452   4.061  15.933 -2.4823  1.9223  0.2559
16755TIP3   OH271679   1.253   1.880   2.553 -0.3109 -0.2315 -0.0186
16755TIP3    H171680   1.283   1.966   2.525 -2.8120  0.2351 -1.5810
16755TIP3    H271681   1.273   1.822   2.480 -0.8459 -0.4423 -0.0034
16756TIP3   OH271682   1.733   1.856  14.420 -0.5154 -0.0684 -0.9298
16756TIP3    H171683   1.706   1.932  14.472  0.3891 -0.3768  0.0370
16756TIP3    H271684   1.682   1.862  14.339 -0.8106  1.2916 -0.6598
16757TIP3   OH271685   1.733   3.932  16.964 -0.1715  0.1909  0.3224
16757TIP3    H171686   1.771   3.938  17.051 -0.1671  0.0018  0.3337
16757TIP3    H271687   1.807   3.940  16.904  0.2299 -2.5073  0.3635
16758TIP3   OH271688   5.983   2.998  12.860 -0.4479 -0.2620 -0.1023
16758TIP3    H171689   6.050   2.971  12.797 -0.5178  0.4388 -0.4861
16758TIP3    H271690   6.010   2.957  12.942 -0.1209 -0.8395 -0.4845
16759TIP3   OH271691   6.057   0.001   6.621  0.6730  0.1067 -0.6046
16759TIP3    H171692   6.093   0.026   6.706  1.7446 -1.8478 -0.4031
16759TIP3    H271693   6.109   0.051   6.558  0.9912  0.3637 -0.1466
16760TIP3   OH271694   6.708   0.817   0.515  0.1939 -0.7083 -0.1500
16760TIP3    H171695   6.647   0.888   0.497 -0.1632 -0.8476  0.4491
16760TIP3    H271696   6.793   0.860   0.526  0.2364 -0.5296 -1.1458
16761TIP3   OH271697   6.504   3.718  16.159  0.7661 -0.9168  0.5717
16761TIP3    H171698   6.438   3.666  16.114  3.1458 -1.5232 -2.4907
16761TIP3    H271699   6.573   3.656  16.180  1.9570  0.3209  0.4078
16762TIP3   OH271700   3.560   6.142  15.301  0.3504 -0.3818  0.7199
16762TIP3    H171701   3.551   6.048  15.317  0.7347 -0.8108 -1.3391
16762TIP3    H271702   3.517   6.156  15.217 -1.2087  1.6275  1.7613
16763TIP3   OH271703   5.288   1.610   1.216  0.5709 -0.0699  0.3425
16763TIP3    H171704   5.309   1.696   1.178  1.8794 -1.1611 -1.6192
16763TIP3    H271705   5.374   1.571   1.235 -0.0158 -0.7534  1.7208
16764TIP3   OH271706   6.721   6.031  15.479 -0.2618  0.6219  0.0376
16764TIP3    H171707   6.743   5.956  15.535  1.4427  2.3457  1.8095
16764TIP3    H271708   6.747   6.108  15.529 -3.9699  2.6494 -0.7275
16765TIP3   OH271709   6.374   0.669  14.251 -0.1754  0.5253  0.4403
16765TIP3    H171710   6.307   0.609  14.218  0.5039 -0.1271  0.2127
16765TIP3    H271711   6.392   0.727  14.177  0.4080 -0.1034  0.0814
16766TIP3   OH271712   4.963   5.594  14.036 -0.0889  0.9446  0.2434
16766TIP3    H171713   4.959   5.682  14.072 -0.4080  1.5471 -1.1715
16766TIP3    H271714   5.045   5.558  14.068  1.8783  3.0947 -1.9548
16767TIP3   OH271715   3.045   2.094   6.101 -0.1040 -0.2834 -0.2209
16767TIP3    H171716   3.122   2.087   6.157 -1.8707 -0.6036  2.3015
16767TIP3    H271717   2.974   2.117   6.160 -1.9678  0.1406 -2.4794
16768TIP3   OH271718   5.022   2.513   2.054 -0.0741  0.6277  0.2810
16768TIP3    H171719   5.061   2.435   2.014  1.0300  1.2028  0.2067
16768TIP3    H271720   5.091   2.548   2.111 -1.0541  0.7537  1.4231
16769TIP3   OH271721   4.513   1.795   2.195  0.0838  0.0092  0.1856
16769TIP3    H171722   4.567   1.850   2.252 -1.7170  0.1476  1.9198
16769TIP3    H271723   4.504   1.713   2.244 -1.0898 -0.0609 -0.1224
16770TIP3   OH271724   5.353   5.562   1.653 -0.0320  0.3414 -0.2528
16770TIP3    H171725   5.307   5.567   1.569 -0.1259 -0.1991 -0.2333
16770TIP3    H271726   5.284   5.566   1.719 -0.0061  0.1346 -0.2130
16771TIP3   OH271727   1.355   3.562  12.452 -0.1090 -0.8348 -0.4691
16771TIP3    H171728   1.308   3.540  12.371 -1.1187  1.0681 -0.4602
16771TIP3    H271729   1.330   3.653  12.470 -2.6589 -2.0885  3.7952
16772TIP3   OH271730   6.658   4.793  11.496  0.0325  0.1623 -0.3751
16772TIP3    H171731   6.673   4.699  11.497 -1.2518 -0.0579 -0.2292
16772TIP3    H271732   6.630   4.812  11.406  1.8106  0.6820 -0.8561
16773TIP3   OH271733   0.549   4.493   0.203 -0.4261 -0.5892  0.3266
16773TIP3    H171734   0.530   4.549   0.128 -1.5902  0.1917  1.1655
16773TIP3    H271735   0.474   4.434   0.209 -0.6644 -0.2132  1.2332
16774TIP3   OH271736   1.721   2.926   4.582  0.2934  0.0468 -0.3917
16774TIP3    H171737   1.716   2.888   4.494  0.1140  0.9288 -0.7704
16774TIP3    H271738   1.744   2.852   4.639  0.6485 -0.4824 -1.2082
16775TIP3   OH271739   5.256   2.775  17.403  0.1470 -0.0901  0.0467
16775TIP3    H171740   5.318   2.714  17.363  0.5139 -0.2610  0.8464
16775TIP3    H271741   5.295   2.796  17.488 -0.5950  0.2721  0.3078
16776TIP3   OH271742   2.582   1.654   2.360  0.2847 -0.0221 -0.0767
16776TIP3    H171743   2.596   1.632   2.268 -1.5408  0.2462 -0.4481
16776TIP3    H271744   2.566   1.570   2.403 -1.2111  0.0379 -0.4707
16777TIP3   OH271745   1.287   3.498  15.888 -0.1086  0.0239 -0.4121
16777TIP3    H171746   1.205   3.506  15.838  0.2499 -0.2505 -1.0581
16777TIP3    H271747   1.267   3.437  15.958 -1.1130  1.6919  0.8438
16778TIP3   OH271748   0.421   2.193   3.094 -0.4171  0.3829 -0.0811
16778TIP3    H171749   0.366   2.271   3.104 -1.4337 -0.2476 -0.5834
16778TIP3    H271750   0.378   2.142   3.025 -0.5454 -1.2697  1.1514
16779TIP3   OH271751   1.609   1.750  16.451 -0.6604  0.0488 -0.5576
16779TIP3    H171752   1.697   1.784  16.460 -0.6865  0.3066 -1.2508
16779TIP3    H271753   1.566   1.809  16.390 -2.4604  2.1519  2.4791
16780TIP3   OH271754   1.472   0.447  12.057 -0.2198 -0.1634  0.0160
16780TIP3    H171755   1.542   0.395  12.018  0.9929  0.1574  1.6250
16780TIP3    H271756   1.507   0.536  12.059 -0.5183 -0.0569  1.1598
16781TIP3   OH271757   4.464   2.386  14.553  0.4157 -0.2404 -0.2588
16781TIP3    H171758   4.388   2.390  14.495  0.5050 -1.0898 -0.4458
16781TIP3    H271759   4.539   2.394  14.494  0.5131  2.5517  0.0780
16782TIP3   OH271760   3.409   6.320  12.509  0.0964  0.0671  0.2237
16782TIP3    H171761   3.384   6.360  12.593 -1.1419 -1.0575  0.4374
16782TIP3    H271762   3.417   6.393  12.449  1.0810  0.9062  1.3281
16783TIP3   OH271763   3.704   2.219   0.402 -0.1461  0.0397 -0.9470
16783TIP3    H171764   3.739   2.281   0.467  1.5597  0.2577 -2.0006
16783TIP3    H271765   3.669   2.275   0.332  0.5735 -0.1593 -1.4825
16784TIP3   OH271766   4.072   0.166   4.129 -0.4515  0.0898  0.2551
16784TIP3    H171767   4.154   0.119   4.144  0.8077  1.9188 -0.4921
16784TIP3    H271768   4.022   0.153   4.209 -1.1558 -4.1740 -0.6189
16785TIP3   OH271769   1.229   4.760   3.132 -0.4311 -0.5106 -0.2626
16785TIP3    H171770   1.259   4.785   3.045 -1.2294  0.5526 -0.2433
16785TIP3    H271771   1.142   4.723   3.118 -1.1069  0.8535  0.2126
16786TIP3   OH271772   0.011   5.790   5.162  0.5488  0.4644  0.4298
16786TIP3    H171773  -0.048   5.766   5.233 -0.6187 -0.4907 -0.8055
16786TIP3    H271774   0.037   5.879   5.182 -0.3914  0.5046  1.6263
16787TIP3   OH271775   3.678   2.171  15.868  0.1924 -1.2191  0.0088
16787TIP3    H171776   3.649   2.205  15.783 -2.5785 -2.2954  0.4058
16787TIP3    H271777   3.773   2.184  15.868  0.0265  0.7737 -2.3394
16788TIP3   OH271778   3.919   4.825   5.175  0.1480  0.2181  0.7031
16788TIP3    H171779   3.826   4.835   5.153  0.3848 -0.9714 -1.0845
16788TIP3    H271780   3.946   4.912   5.204 -1.5950  0.4928  1.6536
16789TIP3   OH271781   3.265   5.836  12.809 -0.1667 -0.3655 -0.0418
16789TIP3    H171782   3.333   5.780  12.772  0.7885  1.1724 -0.6892
16789TIP3    H271783   3.310   5.884  12.879 -0.2704  1.4112 -1.1377
16790TIP3   OH271784   4.513   4.222  14.251  0.3078 -0.4107  0.4490
16790TIP3    H171785   4.604   4.193  14.265 -0.1741 -1.9487  0.5722
16790TIP3    H271786   4.466   4.188  14.327 -0.4459  0.0920  0.2133
16791TIP3   OH271787   0.582   1.028  17.305 -0.0674 -0.3389  0.4494
16791TIP3    H171788   0.673   1.046  17.327  0.4224  0.9688 -2.3201
16791TIP3    H271789   0.580   0.935  17.284  0.7879 -0.2191 -0.1781
16792TIP3   OH271790   0.561   2.886  14.367  0.2768  0.2484  0.1092
16792TIP3    H171791   0.522   2.803  14.394  1.8743 -0.0701  1.6615
16792TIP3    H271792   0.548   2.944  14.442  0.8304  0.7892 -0.2082
16793TIP3   OH271793   5.674   6.110   4.576  0.4751  0.4168  0.2945
16793TIP3    H171794   5.635   6.028   4.609  0.4052  0.2188 -0.2668
16793TIP3    H271795   5.767   6.102   4.598  1.1209 -1.2973 -2.5458
16794TIP3   OH271796   2.059   2.020   0.121  0.0710  0.1985  0.2487
16794TIP3    H171797   2.139   2.006   0.072  0.7149  1.1140  0.9927
16794TIP3    H271798   2.063   1.958   0.194 -0.5801 -0.7176 -0.4713
16795TIP3   OH271799   3.014   0.348   5.244 -0.4369 -0.1483  0.1109
16795TIP3    H171800   2.949   0.415   5.266 -0.5722  0.1447 -1.0883
16795TIP3    H271801   3.091   0.372   5.296 -1.0080 -0.0033  0.9068
16796TIP3   OH271802   2.378   2.557  16.762 -0.2068  0.4849 -0.7766
16796TIP3    H171803   2.461   2.527  16.726  0.6905  0.9153  0.8823
16796TIP3    H271804   2.399   2.594  16.847 -2.3285 -0.8864  0.4335
16797TIP3   OH271805   0.801   0.652  14.607 -0.4174  0.0503 -0.6100
16797TIP3    H171806   0.779   0.742  14.584 -1.0231  0.2107  0.4830
16797TIP3    H271807   0.888   0.657  14.646 -0.0113 -0.0029 -1.5008
16798TIP3   OH271808   4.962   0.994   2.793 -0.5728 -0.5724 -0.3550
16798TIP3    H171809   4.904   1.063   2.759  3.7583  3.5431 -0.5673
16798TIP3    H271810   4.979   0.938   2.718 -0.7782  0.9460 -1.6009
16799TIP3   OH271811   2.726   1.906  12.811  0.0511  0.3095  0.4091
16799TIP3    H171812   2.729   1.864  12.725 -1.1948 -1.1181  1.0247
16799TIP3    H271813   2.636   1.937  12.819  0.0932  0.1998  1.3190
16800TIP3   OH271814   6.244   4.177   6.310  0.8146 -0.5461 -0.0912
16800TIP3    H171815   6.223   4.270   6.303 -0.7399 -0.8108  0.5514
16800TIP3    H271816   6.283   4.168   6.397  0.0055 -0.6260  0.2803
16801TIP3   OH271817   2.596   6.701  15.523 -0.1479  0.5860 -0.9261
16801TIP3    H171818   2.558   6.613  15.521 -0.5798  0.7872 -1.9296
16801TIP3    H271819   2.682   6.689  15.562 -0.8745 -0.0188  0.5872
16802TIP3   OH271820   6.679   2.365   3.154  0.8791  0.2013 -0.4983
16802TIP3    H171821   6.664   2.276   3.184 -0.5001  0.1207 -1.3504
16802TIP3    H271822   6.726   2.355   3.071  2.0113  0.3348  0.1039
16803TIP3   OH271823   1.130   1.951   1.723  0.5370  0.1893  0.0065
16803TIP3    H171824   1.136   1.858   1.703  0.8272  0.2056  0.0058
16803TIP3    H271825   1.042   1.976   1.698  0.2183 -0.2439  0.6570
16804TIP3   OH271826   1.541   5.826  15.788 -0.3164 -0.1285  0.3469
16804TIP3    H171827   1.546   5.920  15.805 -0.3908 -0.0216 -0.1963
16804TIP3    H271828   1.619   5.789  15.830 -0.5475  0.1065  0.9918
16805TIP3   OH271829   0.909   1.746  16.490  0.1136  0.0367 -0.0853
16805TIP3    H171830   0.916   1.789  16.404 -0.6573  2.6382  1.0411
16805TIP3    H271831   0.815   1.746  16.509  0.3142 -0.0265  0.9738
16806TIP3   OH271832   2.241   3.296   5.015 -0.4207  0.4755  0.6633
16806TIP3    H171833   2.295   3.357   5.066 -0.2052 -1.0787  2.4216
16806TIP3    H271834   2.154   3.301   5.054 -0.4629 -0.1327  0.6687
16807TIP3   OH271835   4.646   3.515   4.379 -0.0276 -1.0361  0.1882
16807TIP3    H171836   4.669   3.584   4.441 -0.4276  0.1073 -0.8984
16807TIP3    H271837   4.698   3.439   4.407  0.4832 -0.2852  1.3501
16808TIP3   OH271838   0.686   6.209   3.308  0.1721 -0.1380 -0.4532
16808TIP3    H171839   0.721   6.284   3.260  0.4043 -1.1595 -1.9393
16808TIP3    H271840   0.591   6.216   3.298  0.2400 -0.6466 -1.5796
16809TIP3   OH271841   3.703   4.357   5.894  0.0682  0.0164  0.8368
16809TIP3    H171842   3.654   4.440   5.889  1.2861  0.8005  1.5059
16809TIP3    H271843   3.667   4.312   5.970  0.6593  0.7836  1.5831
16810TIP3   OH271844   3.447   0.286   4.125  0.3150 -0.6079 -0.1443
16810TIP3    H171845   3.500   0.213   4.157  0.5979 -0.3352  0.0145
16810TIP3    H271846   3.374   0.293   4.187 -0.5600 -1.7202 -0.9947
16811TIP3   OH271847   0.338   0.448  16.213  0.0949  0.3125 -0.1424
16811TIP3    H171848   0.383   0.518  16.260  0.2651 -0.4334  0.8386
16811TIP3    H271849   0.405   0.381  16.201  0.0016  0.4123 -1.3077
16812TIP3   OH271850   4.267   3.575  17.507 -0.2914 -0.0820  0.1364
16812TIP3    H171851   4.218   3.652  17.481  0.3258  0.1674 -0.3138
16812TIP3    H271852   4.277   3.524  17.427  4.4569  2.2404 -1.1531
16813TIP3   OH271853   2.920   3.722   1.110 -0.1585  0.3394  0.0971
16813TIP3    H171854   2.924   3.628   1.128 -0.9257  0.0069 -1.3830
16813TIP3    H271855   2.892   3.761   1.193  1.5082 -0.5648  1.1401
16814TIP3   OH271856   3.879   6.108   3.878  0.5402  0.7552  0.1312
16814TIP3    H171857   3.796   6.123   3.833  0.3294  0.0096  0.2594
16814TIP3    H271858   3.921   6.194   3.879  0.0616  1.0106 -0.5109
16815TIP3   OH271859   2.848   0.676  15.644  0.1424  0.5655 -0.0216
16815TIP3    H171860   2.888   0.725  15.715 -0.6879  0.3207  0.6308
16815TIP3    H271861   2.878   0.586  15.658  1.0818  0.7335 -0.7981
16816TIP3   OH271862   4.958   1.852   2.518 -0.1698  0.2812  0.1089
16816TIP3    H171863   4.889   1.788   2.538 -0.6772  1.5176  2.7801
16816TIP3    H271864   4.920   1.937   2.543  2.2689  0.9998  1.8118
16817TIP3   OH271865   2.172   1.961   5.829 -0.1511  0.2588  0.6634
16817TIP3    H171866   2.264   1.941   5.845  0.0625  0.1719 -0.5730
16817TIP3    H271867   2.124   1.882   5.855  0.3381 -0.5196 -0.7197
16818TIP3   OH271868   4.088   6.417  16.425 -0.7434  0.0598  0.4769
16818TIP3    H171869   4.063   6.452  16.511 -1.4510  0.9981 -0.0880
16818TIP3    H271870   4.133   6.335  16.444 -0.2936  0.5862  1.7860
16819TIP3   OH271871   0.725   5.680  16.516  0.2018 -0.8781 -0.0094
16819TIP3    H171872   0.699   5.741  16.585 -0.8946 -1.8856  0.5065
16819TIP3    H271873   0.691   5.595  16.545 -0.5287 -1.2876 -1.9091
16820TIP3   OH271874   2.536   5.114   0.398 -0.1455  0.0836 -0.0050
16820TIP3    H171875   2.594   5.042   0.375 -1.3437 -1.8091  2.3706
16820TIP3    H271876   2.592   5.174   0.448  0.3830 -0.3872 -0.0164
16821TIP3   OH271877   4.231   6.013   2.145 -0.0992 -0.0240  0.1356
16821TIP3    H171878   4.180   5.970   2.077  1.4457 -1.9924  0.1295
16821TIP3    H271879   4.252   5.943   2.207  0.9691  1.1076  1.1089
16822TIP3   OH271880   2.639   3.155  16.090 -0.3214 -0.4413 -0.3967
16822TIP3    H171881   2.586   3.086  16.130  0.4553 -1.6943 -1.4506
16822TIP3    H271882   2.705   3.108  16.040  0.6467  1.0896 -0.6109
16823TIP3   OH271883   1.707   3.606   1.706 -0.3434 -0.0326 -0.5063
16823TIP3    H171884   1.631   3.568   1.662  1.1983 -2.7845 -1.0065
16823TIP3    H271885   1.764   3.635   1.635  0.0156  0.0498 -0.1866
16824TIP3   OH271886   5.102   1.077  15.016  0.0712 -0.0019 -0.1823
16824TIP3    H171887   5.096   1.146  14.949 -1.0280 -0.8775 -1.0170
16824TIP3    H271888   5.192   1.082  15.046  1.8691 -1.9874 -4.4102
16825TIP3   OH271889   3.375   0.017  14.277 -0.2908  0.4995  0.2877
16825TIP3    H171890   3.365  -0.026  14.193  1.1231  1.9557 -0.6747
16825TIP3    H271891   3.469   0.021  14.292 -0.5016  0.4221  1.8801
16826TIP3   OH271892   3.426   0.732  12.175  0.3646 -0.3582  0.0850
16826TIP3    H171893   3.404   0.671  12.105 -0.0272 -1.2023  0.9358
16826TIP3    H271894   3.433   0.678  12.254  0.8302  0.5716  0.7046
16827TIP3   OH271895   6.054   0.075   1.715 -0.0417 -0.2005  0.5522
16827TIP3    H171896   5.982   0.042   1.662 -0.3273 -0.6055  1.1841
16827TIP3    H271897   6.081   0.155   1.671 -1.7920  0.7201  1.0434
16828TIP3   OH271898   3.754   1.956   4.961  0.1364 -0.7932  0.3168
16828TIP3    H171899   3.708   1.888   5.010 -1.4328  0.0985  0.1383
16828TIP3    H271900   3.750   1.927   4.870 -0.9632 -0.2624  0.1781
16829TIP3   OH271901   3.415   5.177   3.062 -0.0831 -0.2249  0.6204
16829TIP3    H171902   3.437   5.124   3.138 -1.4416 -0.2600  1.0254
16829TIP3    H271903   3.472   5.145   2.993  2.8117  1.3271  2.1173
16830TIP3   OH271904   1.943   1.273  11.395 -0.1792  0.5211  0.0202
16830TIP3    H171905   1.877   1.235  11.453 -0.0727  0.8029  0.3261
16830TIP3    H271906   1.892   1.326  11.333 -0.2871  0.2764 -0.1028
16831TIP3   OH271907   5.620   0.184  16.999 -0.1286  0.3366 -0.1597
16831TIP3    H171908   5.584   0.095  16.992 -0.3155  0.3929  0.0836
16831TIP3    H271909   5.565   0.227  17.064  0.8026  0.2034  0.7509
16832TIP3   OH271910   1.766   0.104   1.908  0.2194  0.1717  0.0627
16832TIP3    H171911   1.824   0.171   1.943  0.7074 -0.5977  0.7443
16832TIP3    H271912   1.725   0.064   1.985  0.9578 -1.2242 -0.2295
16833TIP3   OH271913   5.645   4.983  15.195 -0.4138 -0.5342 -0.6821
16833TIP3    H171914   5.653   4.937  15.111  0.9939 -0.3493 -0.6792
16833TIP3    H271915   5.573   5.044  15.181 -1.0588 -1.4169 -1.3165
16834TIP3   OH271916   3.208   6.629  11.933 -0.1039  0.3471 -0.1637
16834TIP3    H171917   3.126   6.657  11.891  0.9897  1.1365 -1.8981
16834TIP3    H271918   3.198   6.534  11.943 -0.6294  0.1929 -1.8191
16835TIP3   OH271919   0.701   2.915   5.204 -0.1950 -0.3059 -0.0257
16835TIP3    H171920   0.706   2.992   5.261  0.0688 -0.3052 -0.0500
16835TIP3    H271921   0.667   2.846   5.261  0.2912 -0.3667  0.1957
16836TIP3   OH271922   3.927   4.561   2.703 -0.0996 -0.7281  0.2427
16836TIP3    H171923   3.993   4.531   2.640  1.1308 -1.6246  1.8618
16836TIP3    H271924   3.945   4.654   2.713 -1.4732 -0.1345 -1.9752
16837TIP3   OH271925   2.359   3.692  13.550 -0.0272  0.0978 -0.4993
16837TIP3    H171926   2.368   3.780  13.514  0.0929 -0.1711 -1.1274
16837TIP3    H271927   2.433   3.643  13.514  1.0243  0.2234  1.3360
16838TIP3   OH271928   0.476   0.323  12.152 -0.3151  0.3092 -0.1492
16838TIP3    H171929   0.460   0.289  12.064  0.8903 -0.8711  0.0556
16838TIP3    H271930   0.506   0.247  12.202  0.7085  1.3153  0.8185
16839TIP3   OH271931   6.499   2.007   4.227  0.4257 -0.7747  0.0629
16839TIP3    H171932   6.440   1.984   4.155  1.6102 -1.6798 -0.6509
16839TIP3    H271933   6.586   1.982   4.196  1.4987  2.2167  0.3135
16840TIP3   OH271934   3.759   1.874  15.658  0.5928 -0.6478 -0.0083
16840TIP3    H171935   3.756   1.896  15.752 -3.4937 -0.0786 -0.0867
16840TIP3    H271936   3.734   1.781  15.655  2.7666 -1.2666 -0.5134
16841TIP3   OH271937   1.626   0.785   4.869  0.2445  0.3311 -0.3956
16841TIP3    H171938   1.674   0.847   4.923  0.6512  1.1271 -1.6373
16841TIP3    H271939   1.689   0.714   4.853 -0.1680 -0.3445  0.8883
16842TIP3   OH271940   3.875   5.108  13.746  0.3098  0.3932 -0.1396
16842TIP3    H171941   3.930   5.184  13.765 -0.7437  0.6982  2.0232
16842TIP3    H271942   3.927   5.033  13.776 -0.0313  0.5922  0.9827
16843TIP3   OH271943   1.775   2.099   4.916 -0.1157 -0.2961 -0.5096
16843TIP3    H171944   1.855   2.069   4.960 -0.8033 -0.1394  0.8993
16843TIP3    H271945   1.789   2.193   4.904 -0.4240 -0.1090  0.5130
16844TIP3   OH271946   2.918   5.553   2.901 -0.4748 -0.1636 -0.4765
16844TIP3    H171947   2.923   5.628   2.961 -1.1154 -0.6759  0.2412
16844TIP3    H271948   2.937   5.477   2.957  0.1095 -0.5422 -1.1838
16845TIP3   OH271949   1.468   5.985   1.120  0.4762  0.4250 -0.1006
16845TIP3    H171950   1.428   5.904   1.089 -1.5105  1.1183  0.4892
16845TIP3    H271951   1.484   6.037   1.041  2.7335 -0.8743 -0.5920
16846TIP3   OH271952   2.454   0.376   4.080  0.1366  0.4147 -0.3857
16846TIP3    H171953   2.474   0.455   4.130  0.2335 -0.1556  0.5033
16846TIP3    H271954   2.413   0.407   4.000  0.3323  1.3705 -0.1219
16847TIP3   OH271955   0.544   0.343   5.290 -0.5277 -0.3500  0.2151
16847TIP3    H171956   0.514   0.376   5.205 -0.0496  0.7765  0.4655
16847TIP3    H271957   0.515   0.252   5.292 -1.3277 -0.1335 -0.7790
16848TIP3   OH271958   6.287   5.940   3.966  0.3191  0.0325 -0.4539
16848TIP3    H171959   6.359   5.877   3.960  1.8135  1.6804 -0.6582
16848TIP3    H271960   6.222   5.908   3.905  1.0117 -1.3389 -0.5085
16849TIP3   OH271961   1.187   3.833   0.335  0.0571  0.0390  0.7337
16849TIP3    H171962   1.108   3.863   0.380 -1.8880 -0.3724 -2.1391
16849TIP3    H271963   1.216   3.909   0.284 -0.8167 -0.8774 -1.2028
16850TIP3   OH271964   0.426   0.818  13.453  0.1169  0.6608  0.1030
16850TIP3    H171965   0.369   0.885  13.415  0.2081  0.4578 -0.3865
16850TIP3    H271966   0.501   0.812  13.394  0.1856  0.2366  0.2256
16851TIP3   OH271967   3.016   6.308  10.718 -0.5235  0.2475  0.5228
16851TIP3    H171968   2.928   6.269  10.709  0.0548 -1.3230  1.1859
16851TIP3    H271969   3.023   6.369  10.645 -2.1431  0.3617  0.4128
16852TIP3   OH271970   0.695   1.411  10.843 -0.6006  0.0812  0.3766
16852TIP3    H171971   0.774   1.458  10.869 -0.5750  0.0301  0.3927
16852TIP3    H271972   0.723   1.355  10.771 -0.6742  0.2305  0.2315
16853TIP3   OH271973   6.376   0.250   4.764 -0.0213 -0.4586 -0.2316
16853TIP3    H171974   6.466   0.258   4.732  0.0024 -0.3906 -0.1468
16853TIP3    H271975   6.322   0.260   4.685  0.1181 -3.2709 -0.7835
16854TIP3   OH271976   1.532   6.524  15.371 -0.0564  0.0382 -0.3831
16854TIP3    H171977   1.484   6.553  15.449 -1.2008  0.5447 -1.2634
16854TIP3    H271978   1.615   6.572  15.376  1.1283 -2.0162  1.9818
16855TIP3   OH271979   0.312   4.505  12.383 -0.2866  0.0616 -0.0278
16855TIP3    H171980   0.404   4.508  12.358 -0.2267 -2.3426 -0.2693
16855TIP3    H271981   0.270   4.572  12.328  0.9122 -0.5744 -1.7908
16856TIP3   OH271982   0.273   5.675  12.274  0.3377 -0.0020  0.0061
16856TIP3    H171983   0.318   5.756  12.296 -0.8368  0.8593 -0.6517
16856TIP3    H271984   0.309   5.610  12.334  1.7274  0.8610  0.1397
16857TIP3   OH271985   1.657   2.053   5.351 -0.5617  0.1319  0.4358
16857TIP3    H171986   1.718   2.078   5.281 -1.5144  0.3153 -0.3601
16857TIP3    H271987   1.664   2.123   5.415  0.7063 -0.2952  0.7956
16858TIP3   OH271988   6.572   0.539   6.734  0.1509  0.1102  0.1099
16858TIP3    H171989   6.619   0.553   6.652  0.0145 -1.5970 -0.3002
16858TIP3    H271990   6.481   0.525   6.706 -0.5381  2.6619  0.8335
16859TIP3   OH271991   1.469   5.100   0.100 -0.0221 -0.3352  0.2356
16859TIP3    H171992   1.408   5.053   0.043  0.2939  2.0766 -2.3068
16859TIP3    H271993   1.550   5.103   0.050  1.5413 -1.3783  2.5332
16860TIP3   OH271994   2.572   0.419  13.874 -0.7517  0.3231 -0.2155
16860TIP3    H171995   2.549   0.379  13.958 -0.5972  1.1251  0.2087
16860TIP3    H271996   2.506   0.487  13.861 -1.5912 -0.6651 -1.3986
16861TIP3   OH271997   2.415   3.383  12.104 -0.0290 -0.5767 -0.0880
16861TIP3    H171998   2.481   3.452  12.107 -1.0819  0.5511 -1.4675
16861TIP3    H271999   2.437   3.332  12.026 -0.4678 -0.5299 -0.2436
16862TIP3   OH272000   4.429   0.378   0.891 -0.5937 -0.4697 -0.0745
16862TIP3    H172001   4.446   0.305   0.950 -1.5835  1.1907  2.4412
16862TIP3    H272002   4.340   0.363   0.858 -0.6826 -0.5568  0.2052
16863TIP3   OH272003   1.863   4.098   0.354  0.0970  0.5577  0.2188
16863TIP3    H172004   1.872   4.055   0.268  0.1566  1.6352 -0.3339
16863TIP3    H272005   1.844   4.026   0.414 -3.8180  0.0584 -1.3012
16864TIP3   OH272006   4.437   4.576  15.316 -0.5361  0.4763  0.1293
16864TIP3    H172007   4.490   4.496  15.320  1.6225  1.8702  1.7787
16864TIP3    H272008   4.361   4.557  15.370  0.7861  0.0377  1.9233
16865TIP3   OH272009   5.970   2.743   1.094 -0.3725  0.4645 -0.8199
16865TIP3    H172010   5.988   2.658   1.054 -0.7138  0.9996 -2.1669
16865TIP3    H272011   5.934   2.796   1.023  1.4600  2.2914 -0.4724
16866TIP3   OH272012   5.543   1.586   1.494  0.1839  0.0130 -0.0770
16866TIP3    H172013   5.570   1.675   1.470 -1.4516  0.4203 -0.5372
16866TIP3    H272014   5.540   1.539   1.411 -1.1564  0.1831 -0.1481
16867TIP3   OH272015   3.460   5.086   4.413  0.1462  0.1503  0.4325
16867TIP3    H172016   3.537   5.141   4.396 -0.8715  1.8482  1.0170
16867TIP3    H272017   3.386   5.145   4.397 -0.9890 -0.8844  1.6873
16868TIP3   OH272018   5.769   5.063  13.443 -0.0930  0.5146  0.3845
16868TIP3    H172019   5.815   4.981  13.461 -1.4130 -0.3726 -0.1101
16868TIP3    H272020   5.682   5.051  13.482 -0.6030  1.3163 -0.4607
16869TIP3   OH272021   4.587   3.768   3.210  0.3249 -0.5377  0.0989
16869TIP3    H172022   4.507   3.770   3.157 -0.2883  1.8990  0.9559
16869TIP3    H272023   4.557   3.752   3.299  1.1089 -2.2776  0.0776
16870TIP3   OH272024   6.703   5.932  11.935 -0.3939 -0.0417 -0.2148
16870TIP3    H172025   6.722   5.839  11.946 -1.0764 -0.2382 -0.6049
16870TIP3    H272026   6.666   5.960  12.019 -1.9454 -0.5887 -0.6846
16871TIP3   OH272027   1.683   6.204  14.368  0.3528  0.3936  0.0077
16871TIP3    H172028   1.657   6.174  14.281 -1.9437 -1.0251  1.0703
16871TIP3    H272029   1.680   6.125  14.423 -2.6915  1.8554  2.2481
16872TIP3   OH272030   3.256   5.999  17.190 -0.0600  0.8426 -0.5383
16872TIP3    H172031   3.299   6.079  17.159  1.1461  0.8420  1.0130
16872TIP3    H272032   3.245   6.013  17.284 -1.5085 -0.0889 -0.5452
16873TIP3   OH272033   6.655   5.542  10.543 -0.4922  0.3456  1.1516
16873TIP3    H172034   6.616   5.569  10.460 -0.1316  1.4709  1.3335
16873TIP3    H272035   6.734   5.596  10.551  0.2758 -0.7953  1.5255
16874TIP3   OH272036   1.924   3.292   1.796 -0.1600 -0.2276 -0.2244
16874TIP3    H172037   1.990   3.224   1.811 -0.2213 -0.3880 -0.6642
16874TIP3    H272038   1.858   3.276   1.863 -0.8127 -1.4091 -1.1034
16875TIP3   OH272039   4.893   4.605   3.440 -0.6404 -0.1047 -0.2370
16875TIP3    H172040   4.873   4.652   3.359 -0.1860 -1.4715 -1.1753
16875TIP3    H272041   4.969   4.551   3.419 -0.5922 -0.5889  1.0666
16876TIP3   OH272042   1.192   2.878  15.353  0.2026 -0.6010 -0.8514
16876TIP3    H172043   1.238   2.801  15.319  0.8607 -2.0969  2.9619
16876TIP3    H272044   1.259   2.926  15.402 -1.4749 -1.1366  2.1919
16877TIP3   OH272045   1.460   5.316  14.477 -0.3423 -0.3916  0.3502
16877TIP3    H172046   1.489   5.401  14.442 -1.2657 -0.1894  0.0382
16877TIP3    H272047   1.526   5.293  14.542  0.2384  0.2839  0.0218
16878TIP3   OH272048   1.307   1.857  15.805 -0.1235 -0.3152  0.0875
16878TIP3    H172049   1.266   1.776  15.774  0.6950 -0.6154 -0.2217
16878TIP3    H272050   1.369   1.829  15.871  0.2553  0.0523 -0.1070
16879TIP3   OH272051   5.689   6.709   6.287 -0.3577 -0.0956 -0.5372
16879TIP3    H172052   5.772   6.745   6.316 -1.0922 -0.2570  1.9972
16879TIP3    H272053   5.700   6.614   6.295 -1.2062 -0.0950  1.3841
16880TIP3   OH272054   4.931   3.082  11.728  0.0513  0.2478 -0.1094
16880TIP3    H172055   4.949   3.025  11.802 -0.3902  1.7118  1.1810
16880TIP3    H272056   5.015   3.088  11.681  1.6466  2.5924  2.6739
16881TIP3   OH272057   6.731   4.133  15.283  1.0173  0.6132 -0.2504
16881TIP3    H172058   6.712   4.069  15.215 -0.0415 -1.8168  2.1363
16881TIP3    H272059   6.826   4.127  15.296  0.9570 -0.3184 -0.2125
16882TIP3   OH272060   3.675   1.277  17.057  0.5773 -0.8216  0.1248
16882TIP3    H172061   3.608   1.280  17.125  0.5660 -0.3805  0.0987
16882TIP3    H272062   3.728   1.355  17.073  0.2097 -0.3859 -0.7536
16883TIP3   OH272063   0.885   2.267   4.370  0.9485 -0.2515 -0.2621
16883TIP3    H172064   0.875   2.265   4.275  1.5912  0.1204 -0.3433
16883TIP3    H272065   0.879   2.175   4.397 -0.2429 -0.2741 -0.5398
16884TIP3   OH272066   2.729   3.656   5.192  0.0066  0.8350  0.0601
16884TIP3    H172067   2.796   3.718   5.164  0.4275 -0.0522 -0.9673
16884TIP3    H272068   2.726   3.590   5.123 -1.6061  0.5964  0.3040
16885TIP3   OH272069   3.462   5.185  14.200 -0.3641  0.0933 -0.3686
16885TIP3    H172070   3.440   5.248  14.268 -0.1722 -0.9469  0.6847
16885TIP3    H272071   3.386   5.184  14.142 -0.8143  0.4928  0.2125
16886TIP3   OH272072   5.962   6.068  15.813  0.7552 -0.1480  0.1952
16886TIP3    H172073   5.943   6.028  15.898  3.5241 -0.0368  0.9550
16886TIP3    H272074   5.951   6.162  15.828 -1.9260 -0.2368 -0.5516
16887TIP3   OH272075   1.879   0.155  11.072  0.0163 -0.2267  0.4723
16887TIP3    H172076   1.861   0.238  11.117  1.0665  1.8511 -2.5939
16887TIP3    H272077   1.793   0.115  11.061 -1.3211  2.9684 -2.2519
16888TIP3   OH272078   0.780   2.702   4.270 -0.2651 -0.3042  0.0221
16888TIP3    H172079   0.873   2.723   4.269 -0.2422 -0.4012 -1.1178
16888TIP3    H272080   0.738   2.774   4.223 -0.8666  0.1035  1.1334
16889TIP3   OH272081   3.789   4.506   6.423 -0.1569 -0.7242 -0.4107
16889TIP3    H172082   3.736   4.529   6.500  2.2162 -1.3077  1.4915
16889TIP3    H272083   3.761   4.418   6.400 -0.8301 -0.5771 -0.1858
16890TIP3   OH272084   0.436   5.726  13.718  0.0894 -0.0373  0.2655
16890TIP3    H172085   0.425   5.782  13.795  0.9474  0.4363  0.0631
16890TIP3    H272086   0.531   5.726  13.703 -0.1068  0.3579 -1.1363
16891TIP3   OH272087   3.109   6.553  11.505  0.6859  0.1740 -0.5250
16891TIP3    H172088   3.141   6.619  11.566  0.5920  0.0726 -0.3671
16891TIP3    H272089   3.153   6.574  11.422  1.7656 -0.4202 -0.1299
16892TIP3   OH272090   2.042   3.144   0.726 -0.4963 -0.1771  0.4454
16892TIP3    H172091   2.029   3.133   0.820  0.2561 -1.2291  0.4456
16892TIP3    H272092   2.120   3.199   0.718  1.6687 -3.0377  0.4964
16893TIP3   OH272093   5.522   1.862   4.812  0.2270  0.3589 -0.3112
16893TIP3    H172094   5.555   1.934   4.758 -1.5563  0.4958 -1.3227
16893TIP3    H272095   5.439   1.895   4.847 -1.1721 -1.4879 -1.6479
16894TIP3   OH272096   0.947   3.461   6.181 -0.2821 -0.6839 -0.9683
16894TIP3    H172097   0.975   3.499   6.264 -0.6220 -1.7830 -0.3301
16894TIP3    H272098   0.981   3.521   6.114  1.8083 -0.8772 -0.1365
16895TIP3   OH272099   2.238   5.143   0.461 -0.0479 -0.0278 -0.3736
16895TIP3    H172100   2.203   5.056   0.439 -1.5883 -0.0323  1.7452
16895TIP3    H272101   2.332   5.129   0.473 -0.1458 -1.2136 -0.8764
16896TIP3   OH272102   4.430   3.533   1.476 -0.4037  0.3670  0.1091
16896TIP3    H172103   4.501   3.594   1.494 -0.4175  0.1623  0.9111
16896TIP3    H272104   4.443   3.506   1.385  2.6553 -2.3561  1.1466
16897TIP3   OH272105   6.319   5.851  12.974  0.5066  0.4050 -0.1181
16897TIP3    H172106   6.306   5.930  13.027  0.8134  1.7396 -1.8920
16897TIP3    H272107   6.332   5.885  12.885  0.8236 -1.6646 -0.9150
16898TIP3   OH272108   5.031   5.265   2.247 -0.4395  0.1869 -0.5827
16898TIP3    H172109   5.071   5.179   2.234  0.9762  0.6262  0.6336
16898TIP3    H272110   4.972   5.254   2.321  1.6186  0.7521  1.2764
16899TIP3   OH272111   6.140   5.497  14.760  0.0698 -0.7674  0.9938
16899TIP3    H172112   6.166   5.579  14.803  1.2160 -1.7552  2.2878
16899TIP3    H272113   6.182   5.501  14.674  2.1138 -0.9798  1.9149
16900TIP3   OH272114   4.547   0.134  13.004  0.0227  0.2264  0.3560
16900TIP3    H172115   4.451   0.139  13.008  0.0436  0.6792  0.3415
16900TIP3    H272116   4.570   0.180  12.923  0.1823 -0.9462 -0.2797
16901TIP3   OH272117   5.077   3.964  16.956  0.2328 -0.4261  0.7269
16901TIP3    H172118   5.020   4.020  16.903 -1.3144 -2.2787  0.3135
16901TIP3    H272119   5.160   4.012  16.962 -1.3843  2.5518  1.5878
16902TIP3   OH272120   0.909   6.139  13.537 -0.0602 -0.7349 -0.2536
16902TIP3    H172121   0.890   6.223  13.494 -0.5619  1.1682  3.2380
16902TIP3    H272122   1.004   6.139  13.548 -0.1787  0.2003  1.0569
16903TIP3   OH272123   0.066   0.451  16.313 -0.1304 -0.3466  0.2180
16903TIP3    H172124   0.161   0.446  16.300 -0.4615 -0.6625 -2.8996
16903TIP3    H272125   0.037   0.360  16.308 -0.7752 -0.0927 -0.8048
16904TIP3   OH272126   3.696   1.215  12.222  0.0906 -0.1552  0.2312
16904TIP3    H172127   3.688   1.286  12.159 -2.1327 -0.5545  0.0105
16904TIP3    H272128   3.772   1.240  12.275  0.1219  1.7530 -0.6121
16905TIP3   OH272129   1.927   0.290  14.932  0.1440  0.4833 -0.0229
16905TIP3    H172130   1.942   0.288  15.026  1.1948 -2.9226 -0.1533
16905TIP3    H272131   2.013   0.311  14.894  0.1733 -0.0863 -0.2759
16906TIP3   OH272132   4.158   4.645   2.185  0.1346 -0.0051 -0.6757
16906TIP3    H172133   4.069   4.613   2.197 -0.4752  1.8238  0.0928
16906TIP3    H272134   4.213   4.583   2.234 -1.0912  0.6509  1.7109
16907TIP3   OH272135   1.922   4.251  11.706 -0.4182 -0.9428 -0.0175
16907TIP3    H172136   1.966   4.334  11.688 -2.4726 -0.1511 -1.7786
16907TIP3    H272137   1.954   4.191  11.639  0.1128 -1.2176  0.4752
16908TIP3   OH272138   6.058   1.595  11.190  0.2855  0.2731  0.0841
16908TIP3    H172139   6.077   1.591  11.096 -1.2405  0.8808 -0.2837
16908TIP3    H272140   5.963   1.600  11.194  0.0541 -2.8958  1.7834
16909TIP3   OH272141   4.873   1.127  14.216  0.1304 -0.1316 -0.4511
16909TIP3    H172142   4.889   1.216  14.247 -1.2257  0.6753 -1.9082
16909TIP3    H272143   4.824   1.086  14.287 -0.5896  0.8025 -0.3861
16910TIP3   OH272144   4.814   4.073  12.943 -0.2295 -0.1553 -0.3125
16910TIP3    H172145   4.909   4.066  12.933  0.1774  2.0460  1.1975
16910TIP3    H272146   4.796   4.030  13.026 -0.5809 -0.6111 -0.6205
16911TIP3   OH272147   5.482   0.230  11.924  0.0642 -0.5674 -0.1901
16911TIP3    H172148   5.482   0.168  11.997  2.1341 -0.3793  0.0087
16911TIP3    H272149   5.495   0.177  11.846 -0.3647 -0.5842 -0.2551
16912TIP3   OH272150   6.016   2.561   3.793  0.0184  0.0666 -0.4296
16912TIP3    H172151   6.075   2.487   3.778  0.5202 -0.2487  2.5615
16912TIP3    H272152   6.068   2.638   3.769  0.0389 -0.3989 -2.0312
16913TIP3   OH272153   3.273   6.676   1.446  0.3707 -0.7558 -0.3570
16913TIP3    H172154   3.266   6.631   1.362 -1.0803  0.6359 -1.0265
16913TIP3    H272155   3.191   6.657   1.491  0.9136 -1.0470  0.5392
16914TIP3   OH272156   0.049   3.348   3.304 -0.3458  0.6194 -0.6799
16914TIP3    H172157   0.088   3.269   3.267  1.2616  1.0107  0.1294
16914TIP3    H272158  -0.045   3.340   3.284 -0.2590 -1.6005 -0.3691
16915TIP3   OH272159   4.504   0.552  15.990 -0.0760  0.2920 -0.6985
16915TIP3    H172160   4.449   0.481  15.956 -0.7679 -0.7496  2.2889
16915TIP3    H272161   4.482   0.627  15.935 -2.2765 -0.8399 -1.5254
16916TIP3   OH272162   4.414   3.222  11.217 -0.1249 -0.0318  0.2690
16916TIP3    H172163   4.503   3.255  11.231 -0.4587  2.4518 -2.5776
16916TIP3    H272164   4.362   3.266  11.285  0.4920 -0.0101  0.7424
16917TIP3   OH272165   2.956   1.244   4.919  0.1076  0.2782 -0.6297
16917TIP3    H172166   2.924   1.156   4.901  0.4659 -0.2401  1.0820
16917TIP3    H272167   3.051   1.236   4.918  0.1701  0.1769  1.3457
16918TIP3   OH272168   2.454   0.817   3.654 -0.4032  0.4832  0.7289
16918TIP3    H172169   2.487   0.906   3.668 -2.9775  1.6687  0.0235
16918TIP3    H272170   2.389   0.805   3.723  0.5545 -1.2655  1.3734
16919TIP3   OH272171   3.578   3.648  14.602 -0.6467  0.1370  0.4883
16919TIP3    H172172   3.573   3.570  14.547 -2.1019  0.2983  0.3585
16919TIP3    H272173   3.644   3.626  14.668 -0.5919 -0.9583  0.0969
16920TIP3   OH272174   1.020   3.367  17.179  0.0741 -0.0394  0.0183
16920TIP3    H172175   1.064   3.353  17.263 -0.5293 -0.2783  0.2997
16920TIP3    H272176   1.014   3.279  17.140 -0.8684 -0.1246  0.3456
16921TIP3   OH272177   5.267   6.236   2.267 -0.7281 -0.2042 -0.2859
16921TIP3    H172178   5.210   6.292   2.319 -1.9609 -1.3168 -0.4064
16921TIP3    H272179   5.283   6.159   2.322  0.7590  0.1268 -0.2145
16922TIP3   OH272180   5.913   2.976   3.240  0.2634  0.2706 -0.0745
16922TIP3    H172181   5.883   2.997   3.151  0.4160  1.5836  0.1662
16922TIP3    H272182   5.964   3.053   3.267  3.1990 -1.5037 -0.1317
16923TIP3   OH272183   6.629   5.695   4.622 -0.1096  0.1991  0.0411
16923TIP3    H172184   6.536   5.684   4.642 -0.7247  1.7899 -1.6875
16923TIP3    H272185   6.675   5.658   4.698 -2.1664  0.7726  1.6442
16924TIP3   OH272186   2.409   4.586  13.013  0.0662  0.3037  0.2293
16924TIP3    H172187   2.349   4.539  12.954  0.9228 -0.0785 -0.3559
16924TIP3    H272188   2.439   4.519  13.074  1.0490  0.1276 -0.4150
16925TIP3   OH272189   3.366   3.369   1.555 -0.1929  0.3536  0.0886
16925TIP3    H172190   3.356   3.283   1.516  0.1670  0.0511  0.6402
16925TIP3    H272191   3.320   3.429   1.496 -0.8006 -0.2726 -0.0740
16926TIP3   OH272192   6.205   6.567  11.877 -0.2114  0.2951 -0.2000
16926TIP3    H172193   6.208   6.531  11.966  0.1873  3.3182  1.1406
16926TIP3    H272194   6.112   6.585  11.862 -0.0614  2.1386  0.7433
16927TIP3   OH272195   6.458   1.206   0.164  0.5376  0.5072  0.1553
16927TIP3    H172196   6.460   1.243   0.075  0.0885 -1.9795 -0.9877
16927TIP3    H272197   6.497   1.119   0.154 -0.1371 -0.0892  2.2795
16928TIP3   OH272198   4.144   1.838  16.623 -0.2821 -0.0327  0.4686
16928TIP3    H172199   4.068   1.780  16.617  1.7476 -2.7342 -1.5280
16928TIP3    H272200   4.133   1.899  16.551 -0.1829 -0.9359 -0.3291
16929TIP3   OH272201   5.196   0.160  17.496 -0.4544  0.7813  0.2843
16929TIP3    H172202   5.266   0.159  17.561  0.2645 -0.8340 -0.4344
16929TIP3    H272203   5.117   0.141  17.546  0.2475 -1.7112  0.6357
16930TIP3   OH272204   5.972   6.224   3.924  0.7892  0.5875  0.2753
16930TIP3    H172205   5.970   6.234   4.019 -0.2416  0.1057  0.3240
16930TIP3    H272206   5.896   6.274   3.893 -1.0759 -2.1128  0.0520
16931TIP3   OH272207   5.139   3.570  15.788 -0.3271  0.2333 -0.0094
16931TIP3    H172208   5.045   3.576  15.806 -0.4375 -1.5395  0.1939
16931TIP3    H272209   5.147   3.494  15.730  0.9136  0.8243 -0.6404
16932TIP3   OH272210   0.508   5.209  11.631 -0.2310 -0.4465  0.2126
16932TIP3    H172211   0.448   5.164  11.691 -0.9545 -1.2002 -1.0224
16932TIP3    H272212   0.595   5.195  11.669 -0.8474  2.0062  2.9097
16933TIP3   OH272213   2.356   0.564  13.593 -0.2088 -0.4916 -0.0588
16933TIP3    H172214   2.339   0.589  13.684 -1.5694 -0.8038 -0.2151
16933TIP3    H272215   2.437   0.611  13.570  0.1484 -0.4147  1.3027
16934TIP3   OH272216   4.134   6.142   5.547 -0.2367 -0.2658 -0.0892
16934TIP3    H172217   4.038   6.143   5.539 -0.2589 -1.0685  0.0771
16934TIP3    H272218   4.150   6.120   5.638  0.1166 -0.5269 -0.2158
16935TIP3   OH272219   4.503   0.609   4.950  0.6933 -0.4783 -0.2217
16935TIP3    H172220   4.555   0.599   4.870  0.4905  0.4653 -0.4808
16935TIP3    H272221   4.517   0.699   4.977  1.2603 -0.9630  1.1825
16936TIP3   OH272222   3.324   4.743   5.912 -0.4986 -0.4114  0.7474
16936TIP3    H172223   3.284   4.787   5.986 -1.1740  1.9773 -0.9314
16936TIP3    H272224   3.258   4.748   5.842  1.2130  0.1164 -0.9075
16937TIP3   OH272225   6.286   1.416   1.776 -0.2163  0.2476 -0.1731
16937TIP3    H172226   6.229   1.402   1.700 -0.5292  2.6700 -0.4764
16937TIP3    H272227   6.227   1.414   1.851 -0.3855  0.7062 -0.2888
16938TIP3   OH272228   2.428   3.795   3.977  0.1826 -0.3988 -0.0053
16938TIP3    H172229   2.448   3.702   3.963 -0.1117 -0.5286  0.4117
16938TIP3    H272230   2.332   3.798   3.982  0.1201  0.1247 -1.3411
16939TIP3   OH272231   5.691   6.590   2.913 -0.3345 -0.2445 -0.1003
16939TIP3    H172232   5.770   6.620   2.957 -1.0640  0.3806  0.8098
16939TIP3    H272233   5.700   6.495   2.910  0.1790 -0.2218  0.5325
16940TIP3   OH272234   3.677   5.489   3.298  0.0985  0.3089 -0.2081
16940TIP3    H172235   3.731   5.456   3.369 -0.0393 -0.3664 -0.4125
16940TIP3    H272236   3.598   5.522   3.342  1.3540  2.9553  0.2932
16941TIP3   OH272237   2.788   2.471   1.900 -0.2441  0.2941  0.0340
16941TIP3    H172238   2.745   2.459   1.815 -1.6558 -0.3742  0.8259
16941TIP3    H272239   2.783   2.565   1.916 -0.5281  0.3435 -0.3249
16942TIP3   OH272240   3.563   0.585   5.894  0.3194  0.2811 -0.4901
16942TIP3    H172241   3.585   0.558   5.805 -1.4708  0.7522 -1.1055
16942TIP3    H272242   3.648   0.608   5.933  1.2231 -0.6922 -1.7902
16943TIP3   OH272243   0.586   0.961   2.879  0.2019 -0.4697 -0.4617
16943TIP3    H172244   0.513   0.919   2.923  0.3137  1.1440  1.4423
16943TIP3    H272245   0.557   0.974   2.789 -1.4751 -0.7159  0.0189
16944TIP3   OH272246   6.110   5.946   4.171  0.3227  0.0564  0.3200
16944TIP3    H172247   6.058   5.888   4.115 -0.4439 -0.4240  1.4778
16944TIP3    H272248   6.193   5.957   4.124 -0.9033  1.1352 -1.7736
16945TIP3   OH272249   2.133   5.421  16.278  0.0999  0.1588  0.2017
16945TIP3    H172250   2.222   5.389  16.295 -0.2525 -2.0742 -1.7039
16945TIP3    H272251   2.146   5.501  16.227  0.9987  0.8566  1.4808
16946TIP3   OH272252   1.230   0.007   4.542 -0.4100  0.2494 -1.3034
16946TIP3    H172253   1.266  -0.062   4.486  0.1130  0.4053 -1.1687
16946TIP3    H272254   1.305   0.065   4.559 -0.6628  0.4332 -0.7927
16947TIP3   OH272255   5.889   2.678  13.675 -0.2731 -0.1135  0.3003
16947TIP3    H172256   5.855   2.765  13.656  0.5095  0.6370  2.0586
16947TIP3    H272257   5.821   2.618  13.645 -1.2705  1.1519 -0.0414
16948TIP3   OH272258   1.282   2.659  16.862 -0.4727  0.2716 -0.1867
16948TIP3    H172259   1.190   2.687  16.866 -0.7541 -0.5077 -0.6741
16948TIP3    H272260   1.276   2.563  16.861  0.4143  0.1902  1.0035
16949TIP3   OH272261   0.964   5.719  11.557  0.3245 -0.1728  0.2855
16949TIP3    H172262   1.001   5.650  11.502  1.5208 -1.5250  2.6073
16949TIP3    H272263   1.035   5.783  11.565  0.3868 -0.2953  0.7365
16950TIP3   OH272264   1.311   5.304  15.401 -0.1651  0.0717  0.1060
16950TIP3    H172265   1.235   5.359  15.420 -1.0781 -0.7908 -0.8657
16950TIP3    H272266   1.296   5.225  15.454  0.1410 -0.0251  0.0492
16951TIP3   OH272267   4.633   0.396   2.462  0.3923  0.4954  0.4887
16951TIP3    H172268   4.609   0.368   2.550 -0.3413 -1.2634 -0.2208
16951TIP3    H272269   4.729   0.400   2.463  0.4787 -1.0571  0.9585
16952TIP3   OH272270   2.147   4.359   1.117  0.3162  0.5027  0.3672
16952TIP3    H172271   2.065   4.374   1.071 -0.4570 -1.7316  0.9349
16952TIP3    H272272   2.185   4.282   1.074  3.1125  2.5072 -1.1395
16953TIP3   OH272273   6.372   1.154  14.813  0.0227 -0.4276 -0.4301
16953TIP3    H172274   6.448   1.159  14.755 -0.6559 -0.1885 -1.3291
16953TIP3    H272275   6.379   1.232  14.869 -1.3181  1.5232 -2.7826
16954TIP3   OH272276   5.381   4.704   2.198 -0.2009  0.2594  0.1891
16954TIP3    H172277   5.407   4.684   2.288 -1.0468 -1.6263  0.0742
16954TIP3    H272278   5.294   4.665   2.189 -0.2727  0.6846 -1.3595
16955TIP3   OH272279   6.560   3.348  16.182 -0.7875 -0.1859  0.4937
16955TIP3    H172280   6.486   3.326  16.125  1.2754  0.1185 -2.4772
16955TIP3    H272281   6.632   3.295  16.149  1.0082  1.4669  1.5775
16956TIP3   OH272282   1.579   6.449   5.489  0.0243  0.0100  0.3207
16956TIP3    H172283   1.527   6.423   5.413  0.2375 -2.5639  0.9459
16956TIP3    H272284   1.517   6.494   5.547 -0.7638 -0.2986 -0.2687
16957TIP3   OH272285   3.275   3.771  12.855  1.3134 -0.2364 -0.6777
16957TIP3    H172286   3.343   3.744  12.793  1.3111 -0.6762 -0.4947
16957TIP3    H272287   3.253   3.690  12.903  1.1872  0.0574 -0.2340
16958TIP3   OH272288   4.545   5.665  13.948 -0.0544  0.2788  0.4466
16958TIP3    H172289   4.512   5.696  13.864  0.6918  1.4662  0.5738
16958TIP3    H272290   4.640   5.663  13.938  0.0175  0.0218  1.1178
16959TIP3   OH272291   4.223   4.290  16.463  0.1104  0.3183 -0.3513
16959TIP3    H172292   4.291   4.286  16.530 -1.2799 -0.8074  1.0745
16959TIP3    H272293   4.268   4.321  16.384  1.9571  0.9702  0.8901
16960TIP3   OH272294   3.936   2.372  11.068 -0.0143 -0.0198  0.7824
16960TIP3    H172295   3.960   2.311  11.138  0.6407  0.4013  0.9332
16960TIP3    H272296   3.861   2.330  11.025  0.2522 -0.7995  1.0502
16961TIP3   OH272297   4.599   2.825  14.071  0.6028 -0.2252 -0.2189
16961TIP3    H172298   4.677   2.846  14.019  1.1383  0.8549  0.9477
16961TIP3    H272299   4.633   2.806  14.159 -0.2294 -2.4782 -0.3317
16962TIP3   OH272300   0.820   2.313  11.285  0.0843 -0.5023 -0.9212
16962TIP3    H172301   0.799   2.263  11.364  0.2205  0.4026 -0.3028
16962TIP3    H272302   0.894   2.266  11.246 -0.8954 -1.7875 -1.3093
16963TIP3   OH272303   1.534   6.430   4.898  0.7469 -0.2183 -0.2405
16963TIP3    H172304   1.614   6.467   4.861  0.9040  0.1190  0.4172
16963TIP3    H272305   1.565   6.360   4.955  0.6257  0.3622  0.5495
16964TIP3   OH272306   3.493   0.933  17.484  0.0380 -0.0067  0.0405
16964TIP3    H172307   3.462   0.845  17.462 -0.1419  0.0566  0.0474
16964TIP3    H272308   3.515   0.973  17.400 -0.2455  0.0813  0.0078
16965TIP3   OH272309   5.886   2.131   1.080  0.1661 -0.1675 -0.1080
16965TIP3    H172310   5.797   2.104   1.103  0.1801  0.9561  1.4284
16965TIP3    H272311   5.873   2.204   1.019  0.0619 -0.6899 -0.7175
16966TIP3   OH272312   0.615   3.505  13.203 -0.1110  0.0027  0.3812
16966TIP3    H172313   0.698   3.458  13.202 -0.7790 -1.2142  0.2114
16966TIP3    H272314   0.555   3.449  13.154 -1.0365  0.8515  0.5133
16967TIP3   OH272315   5.541   0.725   1.338 -0.0018  0.7053  0.0029
16967TIP3    H172316   5.467   0.670   1.311 -1.5174  1.1936  2.8325
16967TIP3    H272317   5.588   0.671   1.402  0.7513  1.2646 -0.0717
16968TIP3   OH272318   2.639   3.042  16.523  0.5156  0.1246  0.4787
16968TIP3    H172319   2.608   3.010  16.607 -0.4765 -0.6693 -0.1645
16968TIP3    H272320   2.656   3.136  16.537  0.7169 -0.0799  1.6375
16969TIP3   OH272321   6.439   2.659   3.413  0.9374  0.4052 -0.3348
16969TIP3    H172322   6.467   2.659   3.321 -1.7409  2.4473 -1.2672
16969TIP3    H272323   6.370   2.725   3.417  0.6104  0.0240  3.0872
16970TIP3   OH272324   0.045   1.725  17.157  0.3857  0.4768 -0.0104
16970TIP3    H172325   0.030   1.665  17.084 -1.7555  0.5052  0.3334
16970TIP3    H272326   0.030   1.672  17.235 -2.1213  1.4976  0.2980
16971TIP3   OH272327   5.792   6.604   0.891 -0.2993  0.5542  0.0089
16971TIP3    H172328   5.830   6.595   0.804  2.1144 -2.9456  1.1793
16971TIP3    H272329   5.725   6.535   0.895 -1.1757  1.4147  0.5866
16972TIP3   OH272330   3.734   5.394   0.077 -0.5153  0.4301  0.6280
16972TIP3    H172331   3.792   5.398   0.154  0.3941  1.5431 -0.0823
16972TIP3    H272332   3.766   5.463   0.019 -0.0310 -1.5169 -1.5696
16973TIP3   OH272333   4.824   6.327  17.302  1.0392 -0.1519  0.1405
16973TIP3    H172334   4.734   6.295  17.312  0.2712  1.5852 -0.6070
16973TIP3    H272335   4.879   6.261  17.343 -0.7094 -0.4916  2.0868
16974TIP3   OH272336   0.609   6.296   0.471  0.1223 -0.0228  0.1040
16974TIP3    H172337   0.528   6.248   0.458  0.2228  0.0243 -0.7665
16974TIP3    H272338   0.666   6.236   0.519 -0.3424 -0.1459  0.4984
16975TIP3   OH272339   4.991   6.457  15.733 -0.1686 -0.0257  0.0946
16975TIP3    H172340   5.010   6.499  15.817 -0.4837 -0.6068  0.4667
16975TIP3    H272341   4.901   6.427  15.741  0.0048 -0.6467 -0.2104
16976TIP3   OH272342   1.833   4.628  11.772  0.2990 -0.3120 -0.2669
16976TIP3    H172343   1.834   4.632  11.677 -0.0397  1.0058 -0.2308
16976TIP3    H272344   1.903   4.567  11.794 -0.2007 -1.3227 -1.3764
16977TIP3   OH272345   3.472   3.647   4.059  0.7629  0.1856 -0.5742
16977TIP3    H172346   3.460   3.594   4.137  0.2710  0.2722 -0.5889
16977TIP3    H272347   3.481   3.583   3.988  2.4976  0.0747 -0.2882
16978TIP3   OH272348   6.002   3.450  15.062 -0.1908 -0.0869  0.4839
16978TIP3    H172349   6.043   3.452  15.149 -2.3113  0.1909  1.5500
16978TIP3    H272350   5.963   3.537  15.052 -0.6775 -0.3968 -0.3819
16979TIP3   OH272351   1.982   2.922   3.373 -0.1328 -0.0003 -0.3834
16979TIP3    H172352   2.032   2.929   3.455 -0.8627  0.5957  0.0211
16979TIP3    H272353   2.005   3.001   3.325 -0.1298 -0.0820 -0.5150
16980TIP3   OH272354   5.072   4.824   1.262  0.1804 -0.3582  0.5252
16980TIP3    H172355   5.054   4.851   1.352 -0.1633 -0.7519  0.5807
16980TIP3    H272356   5.058   4.903   1.210 -2.7830 -0.8208  0.4376
16981TIP3   OH272357   2.647   3.407   2.291 -0.0829 -0.1679  0.4692
16981TIP3    H172358   2.717   3.411   2.357 -0.0629 -0.1823  0.4490
16981TIP3    H272359   2.692   3.378   2.212 -0.3485 -1.5209  0.7842
16982TIP3   OH272360   4.734   1.658   3.973 -0.6458  0.2077 -0.2015
16982TIP3    H172361   4.654   1.607   3.989 -0.3940 -0.5952 -1.3438
16982TIP3    H272362   4.761   1.631   3.886  0.4636  1.0417 -0.1230
16983TIP3   OH272363   5.306   2.588   1.204 -0.3537  0.7615 -0.3194
16983TIP3    H172364   5.353   2.668   1.180  0.3754  0.7174  0.8985
16983TIP3    H272365   5.220   2.598   1.164  0.0092  1.7820 -0.8711
16984TIP3   OH272366   5.916   3.279  12.877 -0.5096  0.2806 -0.4788
16984TIP3    H172367   5.891   3.275  12.784  0.6979 -1.8002 -0.7932
16984TIP3    H272368   5.902   3.189  12.908 -0.0521  0.7452  1.1252
16985TIP3   OH272369   6.722   6.411   5.131  0.0758 -0.3202 -0.3788
16985TIP3    H172370   6.761   6.431   5.216 -1.7139 -1.3315  0.7407
16985TIP3    H272371   6.741   6.488   5.078 -0.6714  1.3562  1.6413
16986TIP3   OH272372   3.995   4.150   3.767  0.1547  0.4281 -0.0707
16986TIP3    H172373   4.079   4.165   3.723  0.5918  1.2009  0.9778
16986TIP3    H272374   3.980   4.056   3.756 -0.0431  0.6641 -2.2975
16987TIP3   OH272375   4.619   3.228   0.696 -0.4153 -0.4219 -0.0797
16987TIP3    H172376   4.646   3.176   0.621  1.1291  1.1615 -0.6886
16987TIP3    H272377   4.540   3.273   0.668 -0.3260 -0.4939 -0.4434
16988TIP3   OH272378   0.561   5.071   3.675 -0.3682  0.1447  0.1307
16988TIP3    H172379   0.646   5.110   3.697  0.7684 -2.9150  1.6994
16988TIP3    H272380   0.556   5.078   3.579  1.3794  0.8832  0.0458
16989TIP3   OH272381   6.310   1.347  13.181 -0.4184  0.1648 -0.8430
16989TIP3    H172382   6.237   1.313  13.129 -0.8676 -0.1214 -0.0454
16989TIP3    H272383   6.337   1.273  13.236  0.1155  0.4254 -0.7471
16990TIP3   OH272384   2.129   6.156  13.969  0.4162 -0.1791  0.2409
16990TIP3    H172385   2.208   6.148  13.916  0.5487  1.0202  0.2270
16990TIP3    H272386   2.142   6.236  14.020 -0.3245 -0.5475  1.0385
16991TIP3   OH272387   1.132   6.696  12.657  0.3434 -0.4128 -0.2465
16991TIP3    H172388   1.062   6.633  12.678 -1.0600  1.2473  0.2572
16991TIP3    H272389   1.213   6.649  12.677 -0.6834 -1.7800  0.9211
16992TIP3   OH272390   2.590   3.252   4.981  0.2130 -0.3597 -0.7691
16992TIP3    H172391   2.566   3.345   4.988  0.3858 -0.4072  0.6075
16992TIP3    H272392   2.685   3.251   4.988  0.1071 -0.9108  3.9878
16993TIP3   OH272393   1.488   3.689  13.786  0.2679 -0.0675 -0.3938
16993TIP3    H172394   1.545   3.728  13.854 -2.0983  1.2809  0.9449
16993TIP3    H272395   1.418   3.647  13.835  0.6011 -2.6845 -1.9820
16994TIP3   OH272396   4.484   3.104  13.743 -0.4812  0.2710  0.0845
16994TIP3    H172397   4.511   3.088  13.833  1.0256 -0.6482 -0.4899
16994TIP3    H272398   4.525   3.033  13.693 -0.7842  1.1129 -1.4091
16995TIP3   OH272399   4.239   5.274  16.424 -0.2451  0.1335 -0.0807
16995TIP3    H172400   4.160   5.306  16.466 -0.5499  1.5339 -1.5875
16995TIP3    H272401   4.311   5.310  16.477 -0.5902 -0.9029  1.1252
16996TIP3   OH272402   4.101   0.569  13.504 -0.5169 -0.2321 -0.3792
16996TIP3    H172403   4.029   0.631  13.507 -1.8658 -1.7595  0.8641
16996TIP3    H272404   4.061   0.487  13.473  0.3006 -1.5330  1.7815
16997TIP3   OH272405   4.959   4.244  13.599 -0.0972  0.0700  0.1738
16997TIP3    H172406   5.050   4.213  13.602  0.1316  0.8020  1.3372
16997TIP3    H272407   4.928   4.235  13.689 -1.5998 -1.3109 -0.4268
16998TIP3   OH272408   3.711   2.276   6.239  0.5006  0.0047 -0.0670
16998TIP3    H172409   3.790   2.264   6.292  0.2581 -0.5791  0.1669
16998TIP3    H272410   3.665   2.193   6.247 -0.8145  0.7934  0.9245
16999TIP3   OH272411   5.069   5.281  12.960  0.3295  0.1449  0.0444
16999TIP3    H172412   5.150   5.267  12.910 -0.9574 -0.0983 -2.0907
16999TIP3    H272413   5.027   5.356  12.917 -1.2023 -0.5408  0.2792
17000TIP3   OH272414   5.133   4.514   5.628 -0.3895 -1.2398 -0.9167
17000TIP3    H172415   5.076   4.478   5.696 -0.4364 -0.5080 -0.5555
17000TIP3    H272416   5.074   4.549   5.562 -0.3564 -1.0869 -0.8665
17001TIP3   OH272417   6.030   0.569   2.462  0.3703 -0.1476  0.3252
17001TIP3    H172418   5.952   0.530   2.503  0.1397  0.8782  0.8826
17001TIP3    H272419   6.094   0.573   2.533  0.1846  1.0434  0.4410
17002TIP3   OH272420   4.652   0.881  16.890 -0.4380 -0.2554  0.2713
17002TIP3    H172421   4.570   0.882  16.842 -1.0896  1.5214  1.3030
17002TIP3    H272422   4.716   0.917  16.829 -0.8971  0.3663  0.1371
17003TIP3   OH272423   2.421   2.862   1.525  0.5149  0.5162 -0.1286
17003TIP3    H172424   2.475   2.910   1.588  1.1707 -1.5958  1.0361
17003TIP3    H272425   2.343   2.838   1.575  0.3303  0.1404 -0.5942
17004TIP3   OH272426   4.082   2.822  13.789 -0.3903  0.1401  0.8128
17004TIP3    H172427   4.142   2.838  13.861 -0.8881  2.9195  0.7043
17004TIP3    H272428   3.999   2.798  13.831 -0.4545  0.9385  1.1492
17005TIP3   OH272429   0.339   2.902   5.345  0.9828 -0.3237 -0.4752
17005TIP3    H172430   0.353   2.987   5.387  0.7090 -0.2525 -0.5262
17005TIP3    H272431   0.311   2.923   5.256  0.4628 -0.4539 -0.3510
17006TIP3   OH272432   5.282   3.466   4.941  0.6728  0.3149 -0.4493
17006TIP3    H172433   5.259   3.452   4.849  2.7179 -1.1228 -0.8323
17006TIP3    H272434   5.348   3.536   4.938  0.7696  0.2397 -0.0692
17007TIP3   OH272435   4.228   2.952  16.422 -0.2956  0.3331 -0.8858
17007TIP3    H172436   4.261   2.902  16.497 -1.5586  1.0521  0.1950
17007TIP3    H272437   4.285   3.029  16.417 -1.6108  1.4973  0.8798
17008TIP3   OH272438   0.929   0.197  15.858  0.3967 -0.2844 -0.2203
17008TIP3    H172439   0.846   0.246  15.854  0.9896  0.8801  1.0135
17008TIP3    H272440   0.905   0.113  15.898 -0.4163 -0.5542 -1.2171
17009TIP3   OH272441   2.909   0.698  15.358 -0.4902 -0.3091  0.0164
17009TIP3    H172442   2.902   0.692  15.453 -0.6164 -0.5322 -0.0061
17009TIP3    H272443   3.002   0.683  15.340 -0.6268 -1.2296  0.0368
17010TIP3   OH272444   1.941   2.519   5.003  0.4643  0.1633 -0.2097
17010TIP3    H172445   1.861   2.531   5.054  0.0196 -1.2008 -0.5579
17010TIP3    H272446   1.913   2.525   4.912  0.8269  0.0391 -0.3310
17011TIP3   OH272447   4.857   2.430   2.556  0.6093 -0.4069 -0.0357
17011TIP3    H172448   4.885   2.483   2.631  2.3262  0.0607 -0.9476
17011TIP3    H272449   4.780   2.382   2.588  0.3847  0.9055  1.5277
17012TIP3   OH272450   2.189   5.559  12.179 -0.0638  0.6207  0.1590
17012TIP3    H172451   2.181   5.470  12.145  1.2210 -0.8032  3.2628
17012TIP3    H272452   2.101   5.581  12.209 -0.7334  1.0939 -1.9179
17013TIP3   OH272453   5.316   3.127   4.677  0.2501 -0.0684  0.4172
17013TIP3    H172454   5.365   3.074   4.614  0.5419  0.3204  0.3121
17013TIP3    H272455   5.240   3.074   4.699  0.6357 -0.6138  0.4624
17014TIP3   OH272456   1.583   3.387   5.854  0.3221  0.3563  0.1371
17014TIP3    H172457   1.539   3.472   5.858  0.3978  0.3656  0.9601
17014TIP3    H272458   1.512   3.323   5.855  0.2817  0.3020  3.4827
17015TIP3   OH272459   6.032   4.635  16.533 -0.0221  0.3565 -0.1959
17015TIP3    H172460   5.950   4.591  16.554  0.6598  0.0835  2.2929
17015TIP3    H272461   6.099   4.567  16.545  0.7427  1.1256  0.0029
17016TIP3   OH272462   3.000   1.656   0.810 -0.3452  0.5412 -0.4946
17016TIP3    H172463   3.074   1.636   0.752 -0.8478 -0.0253 -0.9693
17016TIP3    H272464   2.930   1.684   0.750 -0.6293  0.7064 -0.0877
17017TIP3   OH272465   3.718   5.758   5.159 -0.2190  0.8029 -0.2351
17017TIP3    H172466   3.712   5.801   5.073 -1.1517  1.3313  0.0903
17017TIP3    H272467   3.639   5.784   5.205 -0.4553 -0.6853  0.2497
17018TIP3   OH272468   2.806   0.551   2.155  0.2385  0.3366  0.8142
17018TIP3    H172469   2.757   0.535   2.074 -0.1498 -1.8701  1.3981
17018TIP3    H272470   2.743   0.594   2.213 -0.0907  0.2109  0.5527
17019TIP3   OH272471   0.551   5.287   1.854 -0.2721 -0.1696 -0.0365
17019TIP3    H172472   0.525   5.195   1.852 -0.6954 -0.0876  0.8886
17019TIP3    H272473   0.497   5.325   1.924 -1.2406  1.1299 -1.4450
17020TIP3   OH272474   3.945   6.001  14.604  0.1384  0.3054  0.0580
17020TIP3    H172475   3.990   6.024  14.686 -0.1602 -1.4093  0.7473
17020TIP3    H272476   3.938   5.906  14.607 -2.5195  0.4069 -0.5703
17021TIP3   OH272477   3.866   4.645  16.443  0.8745  0.3114 -0.1082
17021TIP3    H172478   3.778   4.623  16.414  1.4087  0.1141 -1.6991
17021TIP3    H272479   3.859   4.735  16.475  0.9344  2.3254 -4.8862
17022TIP3   OH272480   3.938   1.828  11.867  0.4751 -0.4946 -0.2692
17022TIP3    H172481   3.935   1.853  11.775 -1.1667 -0.1373 -0.1385
17022TIP3    H272482   3.964   1.736  11.866  3.0189  0.1542 -0.9229
17023TIP3   OH272483   5.049   1.030  16.185 -0.1878  0.5859  0.0627
17023TIP3    H172484   5.069   1.083  16.262 -3.1598  3.2999 -0.8108
17023TIP3    H272485   5.069   1.088  16.111 -1.3906 -0.3201 -1.0137
17024TIP3   OH272486   3.627   2.230  14.859  0.6559 -0.1613  0.2152
17024TIP3    H172487   3.638   2.274  14.943 -0.4312 -1.9691  1.3553
17024TIP3    H272488   3.559   2.164  14.874 -1.5213  1.1670 -2.7650
17025TIP3   OH272489   0.430   4.860  16.974 -0.1435 -0.1885  0.1729
17025TIP3    H172490   0.398   4.942  16.938  2.0980  1.3652  1.4456
17025TIP3    H272491   0.522   4.856  16.947 -0.1205 -2.1586  0.3854
17026TIP3   OH272492   6.515   5.047   5.909  0.0620  0.0656  0.4003
17026TIP3    H172493   6.429   5.008   5.892 -0.6763  2.3354 -1.6058
17026TIP3    H272494   6.497   5.118   5.970  0.6918 -0.0513  0.7298
17027TIP3   OH272495   0.859   6.502  16.879 -0.0583 -0.2464 -0.1613
17027TIP3    H172496   0.942   6.546  16.861 -0.8640  0.9949 -0.9598
17027TIP3    H272497   0.819   6.489  16.793 -1.2413  0.2790  0.2866
17028TIP3   OH272498   2.308   0.443   3.526  0.0864 -0.5091 -0.0562
17028TIP3    H172499   2.311   0.395   3.443  1.1908 -3.2527  1.4530
17028TIP3    H272500   2.222   0.485   3.526 -0.4208 -1.4241 -2.0424
17029TIP3   OH272501   5.890   6.395   4.443  0.4986 -0.4552  0.4508
17029TIP3    H172502   5.953   6.324   4.436 -0.5565 -1.4477  0.6266
17029TIP3    H272503   5.937   6.466   4.485  1.2643 -1.4597  1.3130
17030TIP3   OH272504   6.363   0.512  16.992 -0.3415  0.0844 -0.3687
17030TIP3    H172505   6.305   0.437  16.976  0.1824 -0.7349  1.4065
17030TIP3    H272506   6.312   0.587  16.961 -1.5075 -0.8318 -0.7764
17031TIP3   OH272507   6.632   6.046  14.354 -0.0111 -0.1941  0.0844
17031TIP3    H172508   6.538   6.058  14.367 -0.0729 -0.5356 -0.0341
17031TIP3    H272509   6.672   6.123  14.394 -0.4544  1.0342 -1.6920
17032TIP3   OH272510   3.848   5.321   4.227 -0.5622  0.1771 -0.1137
17032TIP3    H172511   3.785   5.290   4.162  1.1925 -3.0129 -0.5307
17032TIP3    H272512   3.909   5.376   4.178 -0.3242 -0.6838 -0.8196
17033TIP3   OH272513   5.726   4.651   5.302 -0.4708  0.3351  0.3369
17033TIP3    H172514   5.696   4.741   5.298  0.8127  0.7828  0.2903
17033TIP3    H272515   5.646   4.599   5.315 -1.1403  1.5280  1.1888
17034TIP3   OH272516   2.489   4.304  16.051 -0.5402  0.6653  0.0755
17034TIP3    H172517   2.449   4.221  16.077  0.3522  0.0933 -0.3490
17034TIP3    H272518   2.505   4.350  16.134 -2.0492  0.9155  0.2600
17035TIP3   OH272519   2.063   5.582  13.316  0.4036  0.4294 -0.0172
17035TIP3    H172520   2.012   5.519  13.367 -0.1615  0.4420 -0.5538
17035TIP3    H272521   1.999   5.625  13.259  1.0605  0.2060 -0.9567
17036TIP3   OH272522   0.161   5.419  10.829 -0.1621  0.3059 -0.2066
17036TIP3    H172523   0.199   5.332  10.837  1.0736  0.9431  1.6486
17036TIP3    H272524   0.077   5.405  10.787  0.0603 -1.7664 -0.0620
17037TIP3   OH272525   6.723   1.909   3.603  0.6161 -0.2555 -0.1170
17037TIP3    H172526   6.702   1.962   3.680  0.9723  1.3178 -1.0448
17037TIP3    H272527   6.803   1.862   3.627 -0.2013 -1.0946  1.0450
17038TIP3   OH272528   5.901   3.160  15.207 -0.0778 -0.3506  0.1494
17038TIP3    H172529   5.938   3.074  15.187  2.0470  0.0893  1.8956
17038TIP3    H272530   5.968   3.204  15.259 -0.7620  2.6991 -1.3317
17039TIP3   OH272531   5.830   0.741  17.013 -0.4040 -0.0655  0.3978
17039TIP3    H172532   5.866   0.802  17.077  1.2923 -0.0113 -0.5667
17039TIP3    H272533   5.874   0.763  16.931 -1.8660 -0.7301 -0.6013
17040TIP3   OH272534   4.272   0.299   1.340 -0.5332  0.1182 -0.8807
17040TIP3    H172535   4.217   0.360   1.291 -1.2751  1.0715  1.0590
17040TIP3    H272536   4.215   0.223   1.355 -0.3628 -0.1020 -1.3476
17041TIP3   OH272537   1.260   4.366   1.998 -0.4071  0.4049  0.0169
17041TIP3    H172538   1.239   4.308   2.071 -0.9284  0.9740  0.3250
17041TIP3    H272539   1.287   4.307   1.927  0.1976 -0.1453  0.6870
17042TIP3   OH272540   3.141   5.585  11.574 -0.2812 -0.2138 -0.7006
17042TIP3    H172541   3.152   5.668  11.527 -1.2183  0.1512 -0.2952
17042TIP3    H272542   3.166   5.518  11.511  1.3203  0.4068 -0.7722
17043TIP3   OH272543   0.856   6.186   2.016 -0.1295  0.0335  0.4536
17043TIP3    H172544   0.942   6.157   2.044 -0.2401 -1.3965 -0.5941
17043TIP3    H272545   0.873   6.249   1.946  0.1122 -2.2770 -1.6919
17044TIP3   OH272546   5.008   4.775   2.866  0.5696 -0.2706 -0.2939
17044TIP3    H172547   5.052   4.856   2.839  1.9627 -0.6089  0.8288
17044TIP3    H272548   5.060   4.742   2.940  0.0245 -2.1806 -0.6922
17045TIP3   OH272549   3.783   5.687  10.496 -0.0382  0.9868 -0.2215
17045TIP3    H172550   3.840   5.688  10.573  1.0441  2.3367 -0.9982
17045TIP3    H272551   3.729   5.609  10.507  2.5710 -0.8783  0.0995
17046TIP3   OH272552   0.894   2.120   2.344  0.0976 -0.7602 -0.2582
17046TIP3    H172553   0.859   2.032   2.355 -1.3694 -0.3190 -1.1518
17046TIP3    H272554   0.876   2.164   2.427  0.0997 -1.0558 -0.1015
17047TIP3   OH272555   3.900   6.164   5.177  0.1952 -0.4501  0.3240
17047TIP3    H172556   3.864   6.130   5.096  1.0836  1.6886 -1.0414
17047TIP3    H272557   3.828   6.213   5.217  0.5150  0.7561 -0.5553
17048TIP3   OH272558   4.110   4.006   1.609  0.3748 -0.1865  0.4964
17048TIP3    H172559   4.147   3.928   1.567  0.6206  0.0002  0.3647
17048TIP3    H272560   4.110   4.073   1.540  0.5524  0.0506  0.7231
17049TIP3   OH272561   0.242   2.112   2.893 -0.0377 -0.3872  0.1519
17049TIP3    H172562   0.203   2.030   2.923 -1.9502  0.3307 -0.2752
17049TIP3    H272563   0.256   2.099   2.799 -2.1317  0.3837 -0.3249
17050TIP3   OH272564   0.155   5.421  15.316 -0.2415  0.3689  0.0909
17050TIP3    H172565   0.081   5.377  15.275  1.5505 -2.7453 -0.1355
17050TIP3    H272566   0.220   5.429  15.246  0.7058  0.2965  0.9360
17051TIP3   OH272567   1.588   1.622  14.265 -0.2053 -0.0574 -0.4004
17051TIP3    H172568   1.597   1.717  14.271  1.3881 -0.1754 -0.5581
17051TIP3    H272569   1.604   1.602  14.172 -0.7219 -0.4674 -0.4055
17052TIP3   OH272570   6.405   1.772  17.253  0.3635  0.0177  0.1020
17052TIP3    H172571   6.350   1.843  17.219 -3.6042 -3.2118 -0.9893
17052TIP3    H272572   6.443   1.731  17.175 -0.8910 -1.5638  0.2762
17053TIP3   OH272573   5.595   4.982  12.258  0.1241  0.0348 -0.2939
17053TIP3    H172574   5.674   4.938  12.227 -0.5321 -0.5897 -1.1305
17053TIP3    H272575   5.584   4.951  12.348  0.0678 -0.9656 -0.6369
17054TIP3   OH272576   1.981   3.299  15.820 -0.2796  0.3341  0.0137
17054TIP3    H172577   2.067   3.340  15.830  0.1743 -0.1852 -1.5295
17054TIP3    H272578   1.921   3.372  15.807 -0.3205  0.7894  2.3141
17055TIP3   OH272579   2.741   3.602  14.429  0.0890  0.3714  0.0170
17055TIP3    H172580   2.760   3.513  14.398 -2.1564 -0.2024  0.1265
17055TIP3    H272581   2.796   3.613  14.507 -1.1576 -1.7684  1.2852
17056TIP3   OH272582   6.636   4.144  13.497  0.4622  0.1617  0.1164
17056TIP3    H172583   6.655   4.107  13.583 -0.6079 -1.2423 -0.2165
17056TIP3    H272584   6.722   4.166  13.461  1.3349 -3.1079 -0.1124
17057TIP3   OH272585   4.033   5.669  13.733 -0.3849  0.1166 -0.0067
17057TIP3    H172586   4.115   5.708  13.702 -0.6225  0.2904 -0.4071
17057TIP3    H272587   3.999   5.621  13.658  0.0728 -1.1503  0.5651
17058TIP3   OH272588   0.452   4.866   5.754 -0.0852 -0.5507  0.1614
17058TIP3    H172589   0.505   4.945   5.740  0.2089 -0.8627 -0.5314
17058TIP3    H272590   0.506   4.795   5.721 -0.2466 -1.0850  1.0022
17059TIP3   OH272591   6.238   0.461  14.156  1.0050 -0.1610 -0.1350
17059TIP3    H172592   6.184   0.419  14.223 -0.8070  1.6258 -0.4044
17059TIP3    H272593   6.207   0.423  14.073  3.0288 -2.1321 -0.0958
17060TIP3   OH272594   3.940   1.023  16.198  0.1327  0.3612 -0.0342
17060TIP3    H172595   3.957   0.930  16.187 -1.5962  0.1050 -0.7593
17060TIP3    H272596   3.928   1.056  16.110  0.5399  1.2493  0.2310
17061TIP3   OH272597   4.205   4.463   5.791 -0.3438  0.4006  0.2023
17061TIP3    H172598   4.112   4.445   5.799  0.1933 -2.3542  1.6557
17061TIP3    H272599   4.227   4.513   5.870 -0.2547 -0.7978  0.9539
17062TIP3   OH272600   3.420   1.731   2.492 -0.9614  0.1492 -0.0727
17062TIP3    H172601   3.403   1.732   2.586 -1.9663  0.1881 -0.2466
17062TIP3    H272602   3.414   1.638   2.467 -1.1982  0.1959 -0.1890
17063TIP3   OH272603   4.380   1.967  11.169 -0.0723 -0.0764  0.5055
17063TIP3    H172604   4.434   2.036  11.209  1.9883 -0.6116 -1.1545
17063TIP3    H272605   4.323   2.014  11.108  1.4039  0.2282 -0.7049
17064TIP3   OH272606   0.479   3.516  12.261 -0.8983 -0.3938 -0.0038
17064TIP3    H172607   0.416   3.574  12.218  0.3526  0.4561 -0.7658
17064TIP3    H272608   0.564   3.543  12.226 -0.2288 -2.4445 -0.0776
17065TIP3   OH272609   4.083   0.741  13.740 -0.5256 -1.2371 -0.0001
17065TIP3    H172610   4.091   0.821  13.689 -0.6054 -0.1560  1.6030
17065TIP3    H272611   4.163   0.691  13.718  0.3048 -0.0126  0.1370
17066TIP3   OH272612   3.143   4.263   0.638 -0.7468 -0.1417  0.1597
17066TIP3    H172613   3.153   4.296   0.549 -0.6839 -0.6736 -0.0372
17066TIP3    H272614   3.050   4.241   0.645 -0.3586 -2.3082 -0.5949
17067TIP3   OH272615   4.397   4.312   0.817 -0.4420 -0.5772  0.4582
17067TIP3    H172616   4.367   4.236   0.767  1.4975 -2.2431  1.6831
17067TIP3    H272617   4.365   4.296   0.905  1.5265 -0.9771  1.1456
17068TIP3   OH272618   2.096   0.580   0.355  0.2830  0.5054  0.2113
17068TIP3    H172619   2.059   0.560   0.269 -0.0989  1.9336  0.0138
17068TIP3    H272620   2.173   0.635   0.336  0.3743  0.5763  0.7693
17069TIP3   OH272621   5.257   3.531   1.114 -0.4181 -0.0080 -0.2167
17069TIP3    H172622   5.305   3.547   1.195 -0.4403 -0.3856 -0.1245
17069TIP3    H272623   5.188   3.598   1.113  1.1381  1.6767 -1.2139
17070TIP3   OH272624   5.677   4.300   3.618  0.4035  0.0398 -0.2077
17070TIP3    H172625   5.677   4.340   3.705 -1.3704  2.1510 -1.0873
17070TIP3    H272626   5.745   4.347   3.570  0.1895  0.0804 -0.4720
17071TIP3   OH272627   0.919   5.983  12.434  0.7166 -0.3451 -0.7716
17071TIP3    H172628   0.915   5.911  12.372  0.0866  0.1204 -1.2859
17071TIP3    H272629   0.864   6.052  12.395  0.8953  0.2215 -0.0520
17072TIP3   OH272630   4.627   3.915   5.578  0.0785  0.2789  0.2154
17072TIP3    H172631   4.691   3.981   5.550 -0.4063  0.1093 -1.4102
17072TIP3    H272632   4.570   3.904   5.502  1.3479 -3.5104 -0.3984
17073TIP3   OH272633   3.779   3.147  15.093 -0.4551 -0.3763 -0.0785
17073TIP3    H172634   3.811   3.082  15.156 -0.6659 -0.8530 -0.4585
17073TIP3    H272635   3.730   3.096  15.028 -1.3133  0.2559  0.0558
17074TIP3   OH272636   4.449   3.486   3.847  0.0849  0.1009  0.2767
17074TIP3    H172637   4.357   3.488   3.823 -0.1777 -0.4329  1.1884
17074TIP3    H272638   4.493   3.534   3.777 -1.2058  3.0527  1.3044
17075TIP3   OH272639   3.279   2.771  15.280 -0.1466  0.0702 -0.2762
17075TIP3    H172640   3.246   2.842  15.336 -0.4828  0.1166 -0.5304
17075TIP3    H272641   3.364   2.802  15.249  1.2058 -0.9494  2.1468
17076TIP3   OH272642   5.576   4.581  15.266  0.1892  0.6844 -0.5776
17076TIP3    H172643   5.634   4.511  15.239 -0.7779  0.1015 -1.2235
17076TIP3    H272644   5.634   4.653  15.292  1.1792  0.1287 -1.2144
17077TIP3   OH272645   3.283   1.958   0.066 -0.2346  0.1145 -0.0481
17077TIP3    H172646   3.357   1.902   0.041  0.3947  0.6985  0.4567
17077TIP3    H272647   3.241   1.980  -0.017 -0.4836 -1.0774 -0.2592
17078TIP3   OH272648   6.405   2.053  16.395  0.5357  0.4609 -0.3498
17078TIP3    H172649   6.451   2.136  16.405 -1.1546  1.2279  1.7303
17078TIP3    H272650   6.421   2.006  16.476 -0.1074 -0.4069 -0.7027
17079TIP3   OH272651   2.484   5.110  15.633 -0.1926  0.0491  0.0159
17079TIP3    H172652   2.412   5.164  15.668  1.2435  1.2963  1.1758
17079TIP3    H272653   2.561   5.166  15.639  0.9065 -1.2706 -1.1703
17080TIP3   OH272654   1.879   2.414  14.468  0.2891  0.1257  0.0932
17080TIP3    H172655   1.947   2.355  14.500  0.5007  0.9369  1.1611
17080TIP3    H272656   1.860   2.382  14.379  2.0117 -0.1387 -0.2060
17081TIP3   OH272657   4.475   0.650  14.252 -0.0466 -0.2056  0.6105
17081TIP3    H172658   4.455   0.629  14.161  0.4803  0.1597  0.4024
17081TIP3    H272659   4.402   0.613  14.302  0.1869 -1.3237  0.1451
17082TIP3   OH272660   3.035   3.222   5.698  1.0419 -0.1013  0.5807
17082TIP3    H172661   3.104   3.251   5.638  0.9130 -1.2110 -0.1599
17082TIP3    H272662   3.081   3.197   5.778  1.3822  0.1157  0.4531
17083TIP3   OH272663   4.419   2.492  12.821  0.0249 -0.1782  0.1049
17083TIP3    H172664   4.506   2.469  12.854  0.3577 -0.2679 -0.7991
17083TIP3    H272665   4.358   2.442  12.875  0.6605 -2.2181 -0.9380
17084TIP3   OH272666   0.189   2.296   3.408  0.5610  0.8985  0.5025
17084TIP3    H172667   0.252   2.346   3.356 -1.3194  1.3777 -1.4762
17084TIP3    H272668   0.221   2.206   3.404  0.3103  0.8301 -1.9236
17085TIP3   OH272669   0.261   2.171  13.808 -0.3884 -0.3047  0.0051
17085TIP3    H172670   0.342   2.174  13.757 -0.3724  1.5460  0.0576
17085TIP3    H272671   0.220   2.089  13.783  1.2059 -0.9985 -0.4805
17086TIP3   OH272672   2.860   0.548   5.335 -0.1071 -0.0738 -0.6014
17086TIP3    H172673   2.778   0.546   5.287 -1.6210 -0.6646  1.8652
17086TIP3    H272674   2.844   0.496   5.414  1.7939  1.8951  1.2358
17087TIP3   OH272675   4.202   4.259   2.413  0.1151  0.5249 -0.4729
17087TIP3    H172676   4.129   4.230   2.357  0.6432 -1.1026 -0.3725
17087TIP3    H272677   4.177   4.230   2.500  0.9693 -0.2646 -0.4740
17088TIP3   OH272678   0.665   6.043  13.720 -0.2773  0.2675  0.6899
17088TIP3    H172679   0.747   6.076  13.683  0.0093 -0.9286  0.1827
17088TIP3    H272680   0.676   5.947  13.719 -1.4087  0.1204  1.2475
17089TIP3   OH272681   2.393   3.290   2.476  0.3347  0.3540 -0.2196
17089TIP3    H172682   2.328   3.261   2.411 -0.2541 -1.0589  0.9509
17089TIP3    H272683   2.458   3.338   2.424 -0.6872  0.2318 -1.6905
17090TIP3   OH272684   5.712   0.487  15.582 -0.0326 -0.4753 -0.3320
17090TIP3    H172685   5.790   0.469  15.634  0.8801 -0.2297 -1.5667
17090TIP3    H272686   5.691   0.579  15.599 -1.5127 -1.1385  1.8366
17091TIP3   OH272687   6.502   5.865  17.248  0.3285  0.2911  0.1951
17091TIP3    H172688   6.509   5.782  17.201  3.3023 -0.4993  1.7993
17091TIP3    H272689   6.439   5.849  17.317  0.2967 -0.3859  0.0148
17092TIP3   OH272690   6.181   0.787  17.124 -0.3431 -0.0879  0.2174
17092TIP3    H172691   6.198   0.872  17.165 -3.4734 -0.0735  1.7763
17092TIP3    H272692   6.190   0.724  17.195  1.8354 -1.1815 -0.8985
17093TIP3   OH272693   2.181   5.533  15.494 -0.1431 -0.2278 -0.2230
17093TIP3    H172694   2.165   5.560  15.404 -0.4990 -2.7909 -1.0010
17093TIP3    H272695   2.239   5.457  15.487 -0.7555 -0.9361  1.6326
17094TIP3   OH272696   1.709   6.097  12.425  0.1458 -0.2171  0.1736
17094TIP3    H172697   1.726   6.100  12.331  0.0816  1.4538  0.1886
17094TIP3    H272698   1.786   6.054  12.462 -0.0485 -1.3337 -0.6707
17095TIP3   OH272699   5.872   3.548   0.252  0.1082 -0.0251 -1.0169
17095TIP3    H172700   5.914   3.483   0.308  0.5417 -0.3980 -1.7518
17095TIP3    H272701   5.778   3.531   0.260  0.1695 -0.0952 -0.4366
17096TIP3   OH272702   6.075   4.818  12.417 -0.0204 -0.2084 -0.4205
17096TIP3    H172703   6.147   4.768  12.380  1.9674 -0.1427  2.9711
17096TIP3    H272704   6.008   4.753  12.437 -0.1656 -0.5334 -1.8595
17097TIP3   OH272705   5.845   1.397   3.595 -0.1670 -0.1823 -0.1873
17097TIP3    H172706   5.857   1.460   3.667  2.3774  0.9891 -1.4869
17097TIP3    H272707   5.828   1.451   3.518  0.9750 -1.0930 -1.1375
17098TIP3   OH272708   3.692   4.016   5.251 -0.0355 -0.0536 -0.6719
17098TIP3    H172709   3.639   3.940   5.226 -0.1539 -0.0892 -0.3191
17098TIP3    H272710   3.725   4.050   5.168  1.1617 -1.3106 -0.7420
17099TIP3   OH272711   5.210   3.563  12.709  0.5325  0.2252 -0.4313
17099TIP3    H172712   5.289   3.607  12.740 -0.3332  1.4235  0.1357
17099TIP3    H272713   5.211   3.578  12.614  0.0867  1.7932 -0.2113
17100TIP3   OH272714   4.358   5.602  16.107  0.8599 -0.4773  0.2613
17100TIP3    H172715   4.387   5.539  16.041 -0.3676 -1.2017  0.3816
17100TIP3    H272716   4.429   5.666  16.112  0.5467  0.2313 -2.5728
17101TIP3   OH272717   0.537   1.509  11.047  0.1706  0.1109 -0.0326
17101TIP3    H172718   0.448   1.482  11.027  0.0766  0.3098  0.1214
17101TIP3    H272719   0.588   1.481  10.971  0.4751 -2.5203  1.0261
17102TIP3   OH272720   0.913   5.814  15.736 -0.4021 -0.2549  0.3551
17102TIP3    H172721   0.971   5.788  15.807 -1.4453 -0.4459  1.1664
17102TIP3    H272722   0.961   5.884  15.690  0.6693 -0.7636  0.6670
17103TIP3   OH272723   5.812   0.168   0.775  0.1795  0.1613 -0.3299
17103TIP3    H172724   5.782   0.079   0.761 -0.1785  0.4194 -1.3499
17103TIP3    H272725   5.896   0.159   0.820  0.1745 -0.6924 -0.4784
17104TIP3   OH272726   2.660   5.006  17.454 -0.3338  0.3385  0.1290
17104TIP3    H172727   2.619   5.052  17.381 -1.9309 -0.5751  0.4027
17104TIP3    H272728   2.677   5.074  17.519 -2.3694  0.6285  0.4017
17105TIP3   OH272729   6.438   0.844   6.084 -0.2484  0.4689  0.1765
17105TIP3    H172730   6.496   0.918   6.068  0.1394  0.1249 -0.0378
17105TIP3    H272731   6.407   0.856   6.173 -0.6317  1.1912 -0.0418
17106TIP3   OH272732   2.432   0.906  17.175 -0.2980  0.0087  0.2187
17106TIP3    H172733   2.505   0.917  17.114 -0.4870 -1.0533 -0.2172
17106TIP3    H272734   2.461   0.835  17.233 -0.0189  1.1462  1.5366
17107TIP3   OH272735   5.326   0.134  16.100 -0.3705  0.5237  0.2552
17107TIP3    H172736   5.416   0.166  16.096 -0.1508 -0.0839  0.3364
17107TIP3    H272737   5.288   0.160  16.016  0.2725 -0.3687 -0.3236
17108TIP3   OH272738   2.119   6.118   3.555  0.0992  0.4351 -0.4750
17108TIP3    H172739   2.049   6.159   3.505 -1.1859 -0.6549  0.3930
17108TIP3    H272740   2.101   6.142   3.646  0.1247 -0.8699 -0.1077
17109TIP3   OH272741   3.242   6.053   1.452  0.1404 -0.0350 -0.3848
17109TIP3    H172742   3.190   6.106   1.391 -1.5285  1.2057  1.9593
17109TIP3    H272743   3.318   6.108   1.473 -0.5850  0.6541  0.5314
17110TIP3   OH272744   6.529   2.155   3.582 -0.3149  0.0166 -0.0827
17110TIP3    H172745   6.499   2.070   3.551 -1.3364 -0.1051  1.1589
17110TIP3    H272746   6.464   2.217   3.550  1.6785  0.7740 -3.0905
17111TIP3   OH272747   2.061   0.764   2.641  0.1517 -0.3080 -0.0043
17111TIP3    H172748   1.980   0.773   2.691  0.4860 -0.9173  0.6697
17111TIP3    H272749   2.117   0.835   2.672  0.6066 -1.0858  0.9932
17112TIP3   OH272750   0.947   6.024   6.367  0.9468 -0.2847 -0.2854
17112TIP3    H172751   0.925   6.115   6.388 -0.6767 -0.7766  0.3240
17112TIP3    H272752   0.863   5.978   6.369  1.5932 -1.6130 -1.6432
17113TIP3   OH272753   1.043   6.275  14.337 -0.6376  0.0729  0.2298
17113TIP3    H172754   1.115   6.233  14.384 -1.2086 -0.2089  0.8584
17113TIP3    H272755   0.998   6.203  14.293  1.0739  0.4943 -2.4923
17114TIP3   OH272756   1.089   1.577  14.563 -0.0299 -0.5348  0.1653
17114TIP3    H172757   1.113   1.514  14.630  0.1661 -2.2480 -1.4464
17114TIP3    H272758   1.132   1.546  14.483 -1.7876  0.3308 -1.1929
17115TIP3   OH272759   3.438   4.051  14.517 -0.8151  0.2681  0.3415
17115TIP3    H172760   3.384   3.972  14.517 -1.9388  0.9837 -1.0664
17115TIP3    H272761   3.528   4.018  14.513 -1.2563 -0.9513 -0.0838
17116TIP3   OH272762   5.332   1.016   2.658  0.1699 -0.1844  0.3030
17116TIP3    H172763   5.411   0.962   2.658 -0.1575 -0.6788  0.0828
17116TIP3    H272764   5.300   1.012   2.748 -0.2644 -0.9895  0.1221
17117TIP3   OH272765   6.662   6.560  14.871  0.6379 -0.0912  0.2953
17117TIP3    H172766   6.663   6.510  14.953  0.1255 -2.5517 -1.0953
17117TIP3    H272767   6.571   6.559  14.844  0.9040  0.0869 -0.6433
17118TIP3   OH272768   6.230   0.143  16.760  0.0290 -0.1637  0.1173
17118TIP3    H172769   6.310   0.110  16.719  0.6639  2.3613 -0.8459
17118TIP3    H272770   6.159   0.102  16.711  0.7582 -0.2097 -0.9313
17119TIP3   OH272771   2.295   4.259  11.966 -0.3952  0.3251 -0.0853
17119TIP3    H172772   2.304   4.316  11.890 -1.7185 -0.4006 -0.8094
17119TIP3    H272773   2.211   4.216  11.955  1.2023 -3.0032 -0.3855
17120TIP3   OH272774   6.424   5.818   2.217 -0.1107 -0.3180  0.0607
17120TIP3    H172775   6.466   5.861   2.291  0.4457 -1.8753  0.6872
17120TIP3    H272776   6.496   5.786   2.163 -0.4404 -2.1934  0.6571
17121TIP3   OH272777   4.985   6.434  12.608  0.1595  0.3553 -0.0934
17121TIP3    H172778   5.066   6.431  12.659 -0.3668 -0.1351  0.7364
17121TIP3    H272779   4.970   6.343  12.582 -0.2337  0.4084 -0.0652
17122TIP3   OH272780   2.198   0.146  12.171 -0.3875  0.7510 -0.0137
17122TIP3    H172781   2.280   0.192  12.154  0.2899 -0.9747 -1.6560
17122TIP3    H272782   2.161   0.128  12.085 -0.5767 -1.8110  0.5127
17123TIP3   OH272783   4.137   0.279   2.480  0.2881 -0.4578 -0.0485
17123TIP3    H172784   4.101   0.211   2.536  1.0911  1.0040  2.4188
17123TIP3    H272785   4.221   0.244   2.451  1.3408 -0.0825  2.3259
17124TIP3   OH272786   6.578   2.985   3.069 -0.3187 -0.2721 -0.2263
17124TIP3    H172787   6.491   3.005   3.034 -0.8620  0.1532  1.2868
17124TIP3    H272788   6.572   3.007   3.162  1.8123  0.9985 -0.3284
17125TIP3   OH272789   1.966   1.987  15.273  0.1287 -0.3471  0.3591
17125TIP3    H172790   1.876   2.009  15.246  0.6840  0.4204 -0.9800
17125TIP3    H272791   1.980   1.899  15.237  0.4542  0.1944 -0.8918
17126TIP3   OH272792   1.962   6.241   0.863 -0.2154 -0.0328  0.6178
17126TIP3    H172793   1.902   6.212   0.932  0.1578  0.1361  1.0188
17126TIP3    H272794   2.031   6.288   0.909 -1.4729  2.7097 -0.0677
17127TIP3   OH272795   1.720   6.556  15.628  0.6543  0.3908  1.2731
17127TIP3    H172796   1.687   6.640  15.597  0.0414 -0.1193  0.5099
17127TIP3    H272797   1.641   6.506  15.651  0.8882 -0.6239 -0.0065
17128TIP3   OH272798   0.351   2.402  16.683  0.4385 -0.6465 -0.2040
17128TIP3    H172799   0.266   2.367  16.711  0.3434 -0.4333 -0.2239
17128TIP3    H272800   0.381   2.341  16.616 -0.2660 -0.0571 -1.0817
17129TIP3   OH272801   5.315   3.109  12.996  0.4063  0.4668  0.5367
17129TIP3    H172802   5.369   3.060  13.058  0.3764 -0.3977 -0.0940
17129TIP3    H272803   5.230   3.064  12.999 -0.6965  2.4431  2.3206
17130TIP3   OH272804   3.283   5.631  13.515  0.0560  0.2328  0.5682
17130TIP3    H172805   3.369   5.667  13.497 -0.4982  0.6487 -1.4001
17130TIP3    H272806   3.286   5.609  13.608  2.8270 -1.2730  0.2184
17131TIP3   OH272807   3.027   1.078  12.583 -0.3956 -0.5518 -0.8022
17131TIP3    H172808   2.968   1.043  12.515 -0.4913 -2.3967  0.1574
17131TIP3    H272809   2.971   1.136  12.635 -0.0318  1.8688 -2.9324
17132TIP3   OH272810   2.963   6.576  16.094  0.8122  0.1327 -0.5640
17132TIP3    H172811   2.917   6.492  16.097  0.6114  0.2597  1.0890
17132TIP3    H272812   2.954   6.606  16.004 -3.7059  0.8636 -0.1257
17133TIP3   OH272813   0.859   0.631   5.310 -0.0176  0.2168  0.6026
17133TIP3    H172814   0.853   0.565   5.241 -1.1269 -0.1676  1.0415
17133TIP3    H272815   0.944   0.674   5.295  0.3369 -0.7250 -0.2037
17134TIP3   OH272816   3.040   4.948  11.445  0.3531  0.8108 -0.3938
17134TIP3    H172817   3.092   5.027  11.462 -0.1601  1.3194 -1.1435
17134TIP3    H272818   3.044   4.900  11.528  1.0360  1.4065 -0.0598
17135TIP3   OH272819   1.356   4.433  13.681  0.2836  0.2331 -0.0859
17135TIP3    H172820   1.344   4.366  13.749  0.7637  0.9774  0.7433
17135TIP3    H272821   1.447   4.459  13.688  0.1993  0.7140 -0.6629
17136TIP3   OH272822   1.002   3.156  13.321  0.7989 -0.8421 -0.1923
17136TIP3    H172823   1.091   3.174  13.291  1.3101 -0.3574  1.5159
17136TIP3    H272824   1.011   3.084  13.383 -0.1646 -1.5437 -0.8358
17137TIP3   OH272825   4.350   0.921   0.677  0.3314 -0.3104 -0.1891
17137TIP3    H172826   4.346   1.012   0.647  0.7850 -0.5095 -0.8943
17137TIP3    H272827   4.300   0.920   0.758 -0.7795  0.2949 -0.8485
17138TIP3   OH272828   4.543   0.949  12.158  0.0956  0.1348 -0.6250
17138TIP3    H172829   4.628   0.916  12.129 -0.7617 -2.5033 -0.3662
17138TIP3    H272830   4.562   1.000  12.237  1.2573 -2.2934  0.7641
17139TIP3   OH272831   4.991   3.959   2.227  0.1237  0.1244  0.2160
17139TIP3    H172832   4.947   3.917   2.301  0.7805 -0.9624  0.0111
17139TIP3    H272833   4.924   4.014   2.187 -1.4620 -2.4222 -0.8336
17140TIP3   OH272834   5.190   1.151   0.982  0.9710 -0.4915 -0.1896
17140TIP3    H172835   5.222   1.192   0.902 -0.0215  1.0106  0.1457
17140TIP3    H272836   5.139   1.076   0.952 -0.8550  1.0344 -1.1239
17141TIP3   OH272837   4.453   5.897  11.663 -0.3870  0.7332 -0.1578
17141TIP3    H172838   4.388   5.849  11.612 -0.9612  0.3848  0.8703
17141TIP3    H272839   4.505   5.828  11.706  0.1212  1.0206 -0.3030
17142TIP3   OH272840   3.267   5.651   3.044  0.1205  0.1218 -0.4381
17142TIP3    H172841   3.236   5.624   2.958  0.0166  1.6855 -0.9116
17142TIP3    H272842   3.339   5.711   3.026  0.3534  0.1687  0.5773
17143TIP3   OH272843   1.431   0.631   3.474  0.3848 -0.5559 -0.0883
17143TIP3    H172844   1.340   0.659   3.465  0.4990 -0.0057  0.4119
17143TIP3    H272845   1.431   0.541   3.440  0.3554  0.5472 -3.3120
17144TIP3   OH272846   5.346   6.630  11.838  0.4481 -0.3729  0.7146
17144TIP3    H172847   5.266   6.589  11.803  0.0069 -0.6032  1.9391
17144TIP3    H272848   5.351   6.714  11.792  1.5554 -1.8347 -2.1015
17145TIP3   OH272849   2.604   3.796   2.779  0.4425  0.1623  0.3039
17145TIP3    H172850   2.690   3.833   2.760  0.4724  0.1555  0.4249
17145TIP3    H272851   2.602   3.787   2.874  1.3988 -2.4694  0.1689
17146TIP3   OH272852   5.614   2.179   4.945  0.0935 -0.3423 -0.2602
17146TIP3    H172853   5.635   2.087   4.963  0.3288 -0.5628 -1.5637
17146TIP3    H272854   5.521   2.187   4.965 -0.0930 -1.0493 -0.8254
17147TIP3   OH272855   4.342   0.656   3.816 -0.4707  0.3433 -0.1825
17147TIP3    H172856   4.364   0.563   3.809 -1.6963  0.0918 -1.1375
17147TIP3    H272857   4.266   0.667   3.759 -0.9017  1.7578  0.6010
17148TIP3   OH272858   0.316   5.159  11.854 -0.2694  0.1562  0.0393
17148TIP3    H172859   0.255   5.233  11.857 -0.6664 -0.1908  0.8451
17148TIP3    H272860   0.279   5.096  11.915  1.7477  0.5743  1.7904
17149TIP3   OH272861   1.531   0.294  15.169  0.0330  0.5924 -0.1251
17149TIP3    H172862   1.624   0.316  15.167 -0.6527  4.0015 -1.2481
17149TIP3    H272863   1.509   0.290  15.262  1.0681  1.0610  0.1536
17150TIP3   OH272864   2.859   6.530   5.680 -0.3902 -0.4167 -0.1593
17150TIP3    H172865   2.775   6.555   5.719 -0.5776 -0.2687 -0.6553
17150TIP3    H272866   2.847   6.439   5.653 -0.2417 -0.5369  0.1775
17151TIP3   OH272867   4.497   1.564   5.321  0.7120  0.3322 -0.4806
17151TIP3    H172868   4.557   1.518   5.379 -1.4936 -1.8340  0.2745
17151TIP3    H272869   4.514   1.527   5.234  0.1614 -0.6717 -0.1766
17152TIP3   OH272870   1.917   6.662  17.482 -0.1250  0.1780  0.0758
17152TIP3    H172871   1.841   6.687  17.431 -1.1652 -0.1441  1.4067
17152TIP3    H272872   1.992   6.677  17.424 -1.0438  2.1995 -0.6700
17153TIP3   OH272873   6.639   3.959   4.542  0.0121 -0.4484 -0.5504
17153TIP3    H172874   6.644   4.008   4.460  1.0173 -0.6170 -0.6121
17153TIP3    H272875   6.731   3.940   4.564 -0.2361 -0.3090  0.6724
17154TIP3   OH272876   5.278   2.137  15.594  0.4241  0.1464  0.1560
17154TIP3    H172877   5.292   2.065  15.532  1.0327  0.7265 -0.3954
17154TIP3    H272878   5.352   2.131  15.654 -0.0236 -0.2526  0.6681
17155TIP3   OH272879   4.924   0.854   1.723 -0.2924 -0.4609 -0.4460
17155TIP3    H172880   4.964   0.934   1.689 -0.9705 -0.3494 -1.0098
17155TIP3    H272881   4.997   0.794   1.736 -0.0032 -0.5814 -2.3289
17156TIP3   OH272882   2.044   4.030  15.379 -0.3014  0.0996  0.1396
17156TIP3    H172883   2.122   4.026  15.433 -0.0387 -0.6864 -0.2824
17156TIP3    H272884   2.074   4.006  15.292 -0.8706  0.5641 -0.1888
17157TIP3   OH272885   1.823   0.575   1.540 -0.5300  0.6854  0.4749
17157TIP3    H172886   1.912   0.608   1.551  0.4284 -0.9056 -1.8394
17157TIP3    H272887   1.779   0.597   1.622  2.2609  0.6093  2.0937
17158TIP3   OH272888   6.352   5.158  11.089 -0.0580  0.3170  0.1138
17158TIP3    H172889   6.435   5.206  11.084  0.2040 -0.1766 -0.3629
17158TIP3    H272890   6.294   5.217  11.137  0.8723  0.2486  1.4112
17159TIP3   OH272891   3.570   3.268   1.183  0.0586 -0.0813 -0.9280
17159TIP3    H172892   3.626   3.280   1.260 -0.1325  0.6107 -0.8927
17159TIP3    H272893   3.623   3.301   1.110 -0.4556  0.9962 -0.8349
17160TIP3   OH272894   0.720   4.873   4.500  0.1183 -0.2569 -0.4453
17160TIP3    H172895   0.699   4.910   4.415 -0.3595  0.1209 -0.1688
17160TIP3    H272896   0.791   4.928   4.534  0.0613 -0.1831 -0.4462
17161TIP3   OH272897   4.343   5.808   2.313  0.3835  0.0974  0.7305
17161TIP3    H172898   4.331   5.877   2.378  1.0413  2.9620 -1.9529
17161TIP3    H272899   4.435   5.816   2.287 -0.3045  0.4658 -1.8883
17162TIP3   OH272900   2.515   3.726  14.397  0.5522  0.0610  0.0258
17162TIP3    H172901   2.604   3.693  14.411  0.7287 -1.1078 -3.1986
17162TIP3    H272902   2.460   3.670  14.451  1.6724  0.5349  1.7466
17163TIP3   OH272903   2.283   0.310  13.550 -0.0475  0.4483  0.0113
17163TIP3    H172904   2.306   0.391  13.596  1.0561 -0.0914  0.4240
17163TIP3    H272905   2.300   0.240  13.613  0.0553 -0.1900 -0.7046
17164TIP3   OH272906   2.085   5.702   6.314  0.3220  0.1273  0.0335
17164TIP3    H172907   2.149   5.654   6.261 -1.1797 -0.9597 -0.8838
17164TIP3    H272908   2.113   5.688   6.404  1.8430  0.3912 -0.3751
17165TIP3   OH272909   0.321   1.942   4.739 -0.3851 -0.0950 -0.3152
17165TIP3    H172910   0.268   1.887   4.680 -0.6843 -0.1028 -0.0458
17165TIP3    H272911   0.334   2.023   4.690 -0.3250 -0.2357 -0.5364
17166TIP3   OH272912   3.903   0.716  12.671 -0.3212  0.1752  0.3966
17166TIP3    H172913   3.861   0.682  12.750 -0.7162 -2.7311 -0.9330
17166TIP3    H272914   3.831   0.729  12.609  0.1537  0.7245 -0.0483
17167TIP3   OH272915   5.108   6.260   5.785  0.2964  0.2894 -1.0225
17167TIP3    H172916   5.043   6.194   5.761  0.8947 -0.0241 -1.8330
17167TIP3    H272917   5.171   6.213   5.840  0.3461  0.3574 -1.0210
17168TIP3   OH272918   4.087   4.662  16.273 -0.0091  0.7505 -0.7241
17168TIP3    H172919   4.010   4.667  16.330  0.7032 -0.3291  0.3838
17168TIP3    H272920   4.155   4.710  16.321  0.0649  1.6005 -1.6405
17169TIP3   OH272921   3.601   3.949  10.800  0.3179 -0.1600  0.4223
17169TIP3    H172922   3.525   3.945  10.742  0.2147 -1.6003  0.6051
17169TIP3    H272923   3.668   3.897  10.754  0.2747 -1.2113  1.5004
17170TIP3   OH272924   5.414   3.731  15.817  0.1673  0.0887 -0.1167
17170TIP3    H172925   5.348   3.679  15.773  0.3494  1.1472 -1.7008
17170TIP3    H272926   5.420   3.812  15.766  0.7264  1.1854  1.5795
17171TIP3   OH272927   3.940   2.203  17.185 -0.3042 -0.2249  0.3878
17171TIP3    H172928   3.981   2.290  17.182 -0.9909  0.0825 -2.4499
17171TIP3    H272929   3.932   2.185  17.279  2.2005  1.6137  1.0919
17172TIP3   OH272930   0.810   5.568  12.831 -0.7053  0.8233  0.2383
17172TIP3    H172931   0.878   5.565  12.898 -0.8580 -0.5888  0.3759
17172TIP3    H272932   0.812   5.657  12.797  1.8507  0.6038 -0.4018
17173TIP3   OH272933   0.859   3.297  15.571  0.3621  0.1840 -0.0463
17173TIP3    H172934   0.858   3.205  15.544 -1.3906 -0.1048  0.8041
17173TIP3    H272935   0.851   3.346  15.489  1.1180 -0.4248 -0.4932
17174TIP3   OH272936   4.267   6.512   4.320  0.2987  0.0345 -0.2942
17174TIP3    H172937   4.228   6.521   4.407  0.6714  0.0216 -0.1263
17174TIP3    H272938   4.318   6.431   4.325 -2.7692 -2.1692 -1.6869
17175TIP3   OH272939   5.493   5.305   2.454  0.3417 -0.6075 -0.3754
17175TIP3    H172940   5.580   5.316   2.416  0.7915 -2.3595  0.0675
17175TIP3    H272941   5.509   5.283   2.546 -0.5825 -0.5077 -0.1810
17176TIP3   OH272942   5.103   2.489   3.993  0.2231 -0.0762  0.0283
17176TIP3    H172943   5.116   2.420   3.928 -0.7173  0.2410 -0.5003
17176TIP3    H272944   5.093   2.441   4.076  1.7475 -0.4630  0.0161
17177TIP3   OH272945   3.515   5.561  14.833  0.7371 -0.0165 -0.0492
17177TIP3    H172946   3.463   5.496  14.880  1.2022 -2.1338 -2.2845
17177TIP3    H272947   3.479   5.561  14.744  2.2935  1.0525 -0.7156
17178TIP3   OH272948   1.434   5.561   6.225  0.0057  0.3118  0.3942
17178TIP3    H172949   1.421   5.618   6.300  0.9661  0.5313  0.4078
17178TIP3    H272950   1.393   5.478   6.250  1.0540  0.1134  1.4973
17179TIP3   OH272951   3.968   0.113  16.207  0.2090 -0.0244  0.0368
17179TIP3    H172952   4.018   0.034  16.230  0.5930  0.3022  0.3306
17179TIP3    H272953   4.008   0.143  16.125 -1.6516 -1.6232 -1.5598
17180TIP3   OH272954   6.691   3.134   6.801  0.3733  0.2918 -0.4923
17180TIP3    H172955   6.672   3.160   6.710  1.0143 -0.3468 -0.8106
17180TIP3    H272956   6.610   3.092   6.830  0.2211  0.3499 -0.8153
17181TIP3   OH272957   5.355   1.281  12.420 -0.2247 -0.0417 -0.7703
17181TIP3    H172958   5.394   1.214  12.365 -1.4920 -0.3182 -1.3534
17181TIP3    H272959   5.322   1.234  12.496 -0.3306  0.0458 -0.7609
17182TIP3   OH272960   0.475   4.318  12.973  0.3622  0.2938 -0.1126
17182TIP3    H172961   0.443   4.364  12.895  0.3251 -0.8171 -0.7780
17182TIP3    H272962   0.396   4.283  13.014  0.3944  0.7758  0.3598
17183TIP3   OH272963   6.711   3.178   0.094 -0.7524  0.4866 -0.3840
17183TIP3    H172964   6.748   3.108   0.148 -0.4275  1.2688  0.4457
17183TIP3    H272965   6.774   3.188   0.022 -1.0449 -0.3795 -0.7711
17184TIP3   OH272966   0.372   4.435  16.111 -0.1779 -0.1382 -0.1237
17184TIP3    H172967   0.288   4.410  16.073 -0.1873  0.6635 -0.6542
17184TIP3    H272968   0.352   4.514  16.163  0.1533 -0.2274  0.1401
17185TIP3   OH272969   1.568   4.491   1.080  0.2324 -0.4485  0.4380
17185TIP3    H172970   1.581   4.397   1.071  1.7513 -0.5150  2.4670
17185TIP3    H272971   1.562   4.524   0.991  0.2542 -2.3927 -0.3213
17186TIP3   OH272972   5.385   6.238   5.190  0.5089  0.8020 -1.5310
17186TIP3    H172973   5.294   6.209   5.189  0.2317  0.9920  2.2924
17186TIP3    H272974   5.427   6.190   5.118 -1.6205 -2.8377 -0.5971
17187TIP3   OH272975   6.369   1.818   3.650 -0.1445 -0.1955 -0.6651
17187TIP3    H172976   6.425   1.747   3.620 -1.0329 -1.6296  0.8825
17187TIP3    H272977   6.402   1.839   3.738 -1.0652 -0.0288 -0.3492
17188TIP3   OH272978   6.665   4.713  16.252  0.1450 -0.4437 -0.1272
17188TIP3    H172979   6.622   4.785  16.205  1.4578  0.9294  0.7128
17188TIP3    H272980   6.669   4.742  16.343  3.3105 -0.2422 -0.2423
17189TIP3   OH272981   0.212   2.956  12.673  0.0062  0.2339  0.3304
17189TIP3    H172982   0.150   2.886  12.690 -0.0940  0.2644  0.0880
17189TIP3    H272983   0.231   2.993  12.760 -1.2178  0.9941  0.2991
17190TIP3   OH272984   5.511   3.146  16.714  0.5889  0.5137  0.2744
17190TIP3    H172985   5.447   3.140  16.785 -0.2228 -1.9009 -0.5810
17190TIP3    H272986   5.480   3.219  16.660 -0.5388  0.3674  0.7019
17191TIP3   OH272987   3.104   3.084  15.827  0.4026 -0.0672 -0.3362
17191TIP3    H172988   3.193   3.072  15.860  0.0401 -0.7999  0.4145
17191TIP3    H272989   3.108   3.055  15.736  0.9422 -0.0274 -0.3284
17192TIP3   OH272990   2.453   6.666   1.712  0.6370 -0.0130  0.0794
17192TIP3    H172991   2.491   6.741   1.667  1.0955 -0.7433 -0.8017
17192TIP3    H272992   2.386   6.703   1.769  0.4866  1.0146 -0.7253
17193TIP3   OH272993   5.453   4.937   1.890  0.3211 -0.3489 -0.0545
17193TIP3    H172994   5.533   4.976   1.925  0.7308 -0.3432 -0.9530
17193TIP3    H272995   5.389   5.008   1.892  0.2507 -0.4306  0.9214
17194TIP3   OH272996   3.461   1.412  12.064  0.4632 -0.0002 -0.1602
17194TIP3    H172997   3.510   1.458  11.996 -0.0526 -0.3976 -0.8197
17194TIP3    H272998   3.466   1.320  12.039  0.2498 -0.1484  0.3335
17195TIP3   OH272999   0.787   0.394   5.172 -0.1492  0.1114 -0.3483
17195TIP3    H173000   0.767   0.323   5.111  0.2761 -0.7960  0.5355
17195TIP3    H273001   0.720   0.386   5.240 -0.3082  0.7881 -0.4200
17196TIP3   OH273002   3.672   6.195   2.454  1.3626  0.5188  0.0721
17196TIP3    H173003   3.629   6.262   2.508 -0.7944  0.7351 -1.7321
17196TIP3    H273004   3.737   6.244   2.404 -0.0095  1.3084 -1.0326
17197TIP3   OH273005   0.737   3.193   6.662 -0.8990 -0.4591  0.4308
17197TIP3    H173006   0.738   3.270   6.719  0.0597 -0.2806  0.1940
17197TIP3    H273007   0.682   3.219   6.588  0.6658  0.6121 -0.4296
17198TIP3   OH273008   4.867   1.190  12.758  0.4396  0.0056 -0.3446
17198TIP3    H173009   4.835   1.102  12.739  2.8978 -0.5214 -2.4950
17198TIP3    H273010   4.820   1.247  12.697  0.4062 -0.1352 -0.4492
17199TIP3   OH273011   3.192   4.445  16.513  0.1188 -0.0062  0.0264
17199TIP3    H173012   3.123   4.504  16.484  1.5361  1.6194 -0.2280
17199TIP3    H273013   3.147   4.376  16.562 -1.5678  1.6245  0.8841
17200TIP3   OH273014   6.377   4.016  16.841  0.4958  0.2404 -0.5903
17200TIP3    H173015   6.319   4.042  16.770  0.9054 -3.1685 -2.3556
17200TIP3    H273016   6.378   4.092  16.899 -1.4418  2.4530 -3.1657
17201TIP3   OH273017   0.982   1.212  13.760  0.3280 -0.4057  0.2158
17201TIP3    H173018   0.906   1.199  13.704  1.0379 -0.3240 -0.7911
17201TIP3    H273019   0.946   1.214  13.849 -1.1374  1.8121 -0.3407
17202TIP3   OH273020   0.898   3.284   3.992 -0.0723  0.1966  0.1283
17202TIP3    H173021   0.979   3.274   4.043 -0.0077  0.4681  0.0780
17202TIP3    H273022   0.925   3.277   3.901 -0.0280  0.8056  0.0914
17203TIP3   OH273023   1.070   3.367  14.542  0.0387  0.0847  0.1442
17203TIP3    H173024   0.988   3.360  14.494  0.6621  0.0734 -0.9533
17203TIP3    H273025   1.055   3.436  14.606 -1.2035 -0.7308  0.7588
17204TIP3   OH273026   4.947   3.574   3.268 -0.0614  0.1425 -0.0541
17204TIP3    H173027   4.992   3.618   3.196  1.8525  0.4183  1.2425
17204TIP3    H273028   4.882   3.638   3.299 -1.4924 -0.2947 -2.0100
17205TIP3   OH273029   3.987   3.860   3.746  0.5828 -0.3877 -0.5537
17205TIP3    H173030   3.929   3.802   3.697 -2.0502  1.6811 -0.0840
17205TIP3    H273031   3.957   3.854   3.836  1.1203  0.7293 -0.2800
17206TIP3   OH273032   5.483   0.417   2.275  0.0605 -0.4510  0.2544
17206TIP3    H173033   5.485   0.326   2.246  1.3097  0.2461 -2.0776
17206TIP3    H273034   5.534   0.417   2.356  2.3256 -1.4586 -1.0802
17207TIP3   OH273035   3.524   0.986   0.662 -0.0025 -0.0766  0.0662
17207TIP3    H173036   3.513   0.920   0.594 -2.3683 -0.5159  0.7819
17207TIP3    H273037   3.548   1.066   0.615 -1.0399 -0.5066 -1.2382
17208TIP3   OH273038   1.996   6.068   4.223 -0.1207 -0.0816 -0.1368
17208TIP3    H173039   1.959   5.986   4.254 -0.1523 -0.8955 -2.1632
17208TIP3    H273040   1.985   6.065   4.128  1.1771  1.6250 -0.4013
17209TIP3   OH273041   2.256   0.900  14.815 -0.4427  0.1136  0.2237
17209TIP3    H173042   2.340   0.914  14.770 -0.1069 -2.5421 -0.1658
17209TIP3    H273043   2.191   0.935  14.754  0.2052 -0.7217 -0.9992
17210TIP3   OH273044   5.512   6.026  16.458 -0.3328  0.2259 -0.0245
17210TIP3    H173045   5.500   6.103  16.512 -0.7877 -0.4521  0.8667
17210TIP3    H273046   5.570   5.969  16.509  0.9860  0.4736 -1.2011
17211TIP3   OH273047   0.741   4.322  16.923 -1.2206 -0.5109 -0.4115
17211TIP3    H173048   0.685   4.366  16.858  0.3084  0.1764 -1.3255
17211TIP3    H273049   0.796   4.263  16.870  0.7380  0.7845  0.1064
17212TIP3   OH273050   3.629   2.900   0.977 -0.2000  0.0366  0.0308
17212TIP3    H173051   3.665   2.838   1.041  1.0792  0.5585 -0.1538
17212TIP3    H273052   3.703   2.920   0.919 -0.9288  0.7729 -0.6627
17213TIP3   OH273053   1.703   3.415   2.342  0.1058  0.1738  0.3636
17213TIP3    H173054   1.787   3.454   2.319 -0.9160  1.4462 -1.5346
17213TIP3    H273055   1.686   3.444   2.432  0.9892  1.2241  0.2089
17214TIP3   OH273056   3.979   4.010   4.920  0.0564 -0.3467  0.1284
17214TIP3    H173057   4.057   3.983   4.871  0.3937  1.1974 -0.2503
17214TIP3    H273058   3.911   4.020   4.853  0.4760  1.6218 -0.0561
17215TIP3   OH273059   6.325   5.977  12.616  0.4053 -0.3093 -0.4949
17215TIP3    H173060   6.247   5.973  12.672  1.5102 -0.0314  1.1133
17215TIP3    H273061   6.377   6.049  12.651  1.5620 -0.7169 -1.3054
17216TIP3   OH273062   4.523   5.848  11.232  0.1235 -0.6578  0.3622
17216TIP3    H173063   4.579   5.856  11.154 -0.9072  0.5191 -0.3121
17216TIP3    H273064   4.484   5.935  11.241 -0.1824 -0.9355  1.9007
17217TIP3   OH273065   0.682   0.527  13.312 -0.2436 -0.1524 -0.4304
17217TIP3    H173066   0.773   0.505  13.329  0.3531  2.5774  0.4798
17217TIP3    H273067   0.686   0.587  13.237 -1.4441 -0.8750 -1.1122
17218TIP3   OH273068   2.464   2.974   4.439 -0.3130  0.2923 -0.1508
17218TIP3    H173069   2.486   3.030   4.365 -0.6901  0.3112 -0.2510
17218TIP3    H273070   2.544   2.970   4.491 -0.0528  0.2912 -0.5507
17219TIP3   OH273071   5.493   1.060   3.709 -0.7372  0.1754 -0.4674
17219TIP3    H173072   5.452   0.989   3.759 -0.5016  1.5272  1.7613
17219TIP3    H273073   5.570   1.020   3.670 -1.4470 -1.1690 -0.5806
17220TIP3   OH273074   4.384   1.851  10.751  0.4774  0.0433 -0.0767
17220TIP3    H173075   4.326   1.921  10.721 -1.4504 -1.1153  0.6909
17220TIP3    H273076   4.333   1.771  10.737  1.7668 -1.0131  0.9916
17221TIP3   OH273077   4.077   3.470   5.647  0.0169  0.4592  0.1402
17221TIP3    H173078   4.084   3.548   5.701  0.3878 -0.1285  0.9488
17221TIP3    H273079   4.132   3.489   5.571 -2.5050  2.3605 -1.4124
17222TIP3   OH273080   5.989   5.184  15.054 -0.3871 -0.6062 -0.5847
17222TIP3    H173081   5.906   5.232  15.056 -1.7303 -2.8207  1.0150
17222TIP3    H273082   5.982   5.120  15.125  2.4281 -1.3356 -0.8504
17223TIP3   OH273083   0.369   0.045  17.125  0.2036 -0.2990 -0.3557
17223TIP3    H173084   0.414   0.013  17.047 -0.9784 -0.8440 -0.8359
17223TIP3    H273085   0.311  -0.026  17.151 -0.0608  0.2118  0.5091
17224TIP3   OH273086   6.382   1.037   3.128 -0.0551 -0.2041 -0.1090
17224TIP3    H173087   6.338   0.961   3.165  0.9914 -0.6485  0.2688
17224TIP3    H273088   6.331   1.058   3.049 -1.9687  0.3967  1.2206
17225TIP3   OH273089   3.630   6.463   3.717  0.2750  0.6452  0.4385
17225TIP3    H173090   3.721   6.484   3.698  0.6872  0.5135  2.0736
17225TIP3    H273091   3.605   6.527   3.784 -0.4969  0.0047  0.7717
17226TIP3   OH273092   1.551   5.182   1.629 -0.4139  0.0012 -0.0032
17226TIP3    H173093   1.538   5.135   1.547 -0.3843 -0.5578  0.3083
17226TIP3    H273094   1.643   5.165   1.652 -0.2364  0.6871 -0.1790
17227TIP3   OH273095   0.526   0.778  15.013 -0.0531  0.0688  0.2186
17227TIP3    H173096   0.601   0.834  14.994 -0.0945 -0.5626 -2.0496
17227TIP3    H273097   0.557   0.719  15.082  1.4035  0.0539 -0.4259
17228TIP3   OH273098   5.983   5.854  14.402  0.0698  0.0006  0.5112
17228TIP3    H173099   6.032   5.828  14.481  0.2711 -1.0114  0.0678
17228TIP3    H273100   5.930   5.778  14.380 -0.6220  0.5743  0.1356
17229TIP3   OH273101   0.205   1.989   1.805 -0.6391  0.2445  0.0682
17229TIP3    H173102   0.255   1.965   1.727 -0.5769  0.5885  0.0005
17229TIP3    H273103   0.114   1.981   1.778 -0.6258 -0.3795  0.1903
17230TIP3   OH273104   0.662   1.762  14.149  0.3138  0.7088 -0.0735
17230TIP3    H173105   0.593   1.700  14.172  0.2331  1.1575  0.9673
17230TIP3    H273106   0.713   1.772  14.229  1.1203  0.9829 -0.6062
17231TIP3   OH273107   0.954   0.915  15.978 -0.3117 -0.6954  0.4649
17231TIP3    H173108   1.027   0.917  16.039 -0.1267  3.1543  0.3445
17231TIP3    H273109   0.973   0.985  15.915 -2.8710 -1.2659 -1.1038
17232TIP3   OH273110   6.088   4.172   3.531 -0.1936 -1.2970  0.7437
17232TIP3    H173111   6.004   4.137   3.559  1.2950 -3.1348  3.3032
17232TIP3    H273112   6.141   4.094   3.512  1.6755 -0.3129  1.6482
17233TIP3   OH273113   0.792   4.504   0.612 -0.4008  0.5024  0.8178
17233TIP3    H173114   0.830   4.537   0.693 -0.6182 -0.5013  1.3414
17233TIP3    H273115   0.834   4.555   0.543 -1.3629  2.5131  1.6190
17234TIP3   OH273116   2.495   2.573   1.064  0.1275  0.1455  0.0919
17234TIP3    H173117   2.481   2.667   1.048 -1.3969 -0.0754 -0.0545
17234TIP3    H273118   2.581   2.554   1.027 -0.2441  1.1541 -1.3512
17235TIP3   OH273119   2.611   1.639   3.967 -0.7984 -0.1618  0.2245
17235TIP3    H173120   2.682   1.698   3.941  0.0191  0.4607  3.4322
17235TIP3    H273121   2.541   1.658   3.905  0.5590  1.8698 -0.8316
17236TIP3   OH273122   4.824   0.853   2.207 -0.2821 -0.2116 -0.2655
17236TIP3    H173123   4.745   0.802   2.223 -0.1376 -0.7356 -1.1477
17236TIP3    H273124   4.826   0.866   2.112 -0.6405  1.9846 -0.0278
17237TIP3   OH273125   1.264   0.243  12.644 -0.2694 -0.7820 -0.1724
17237TIP3    H173126   1.326   0.219  12.714  1.2817 -1.1320 -1.5875
17237TIP3    H273127   1.221   0.161  12.621 -2.1669 -0.3407  1.5828
17238TIP3   OH273128   4.265   0.854  16.509 -0.2845  0.7340 -0.0885
17238TIP3    H173129   4.315   0.787  16.463 -1.5961 -1.2335  1.1872
17238TIP3    H273130   4.279   0.933  16.458  0.6422 -0.6730 -2.1771
17239TIP3   OH273131   5.187   2.590  13.355 -0.2726  0.3758  0.2468
17239TIP3    H173132   5.145   2.667  13.316  0.8829  0.8261 -0.1656
17239TIP3    H273133   5.116   2.529  13.370 -1.3872  1.8886  1.5013
17240TIP3   OH273134   1.827   2.524   3.909  0.2267  0.3349 -0.4554
17240TIP3    H173135   1.830   2.615   3.880 -0.6818 -0.0073 -1.7207
17240TIP3    H273136   1.908   2.512   3.958  1.2075  1.3380 -1.7502
17241TIP3   OH273137   3.253   5.293   0.070 -0.7984 -0.2819 -0.7002
17241TIP3    H173138   3.319   5.357   0.046 -1.0723  0.3832  0.2429
17241TIP3    H273139   3.268   5.219   0.012  2.4445 -1.2426  1.1239
17242TIP3   OH273140   4.260   1.391   2.512  0.1201 -0.4391  0.1532
17242TIP3    H173141   4.209   1.311   2.528 -0.2927 -0.1719  0.1675
17242TIP3    H273142   4.202   1.447   2.461  0.4908 -0.2319 -0.0457
17243TIP3   OH273143   5.096   3.330  14.429  0.2438  0.4675  0.1778
17243TIP3    H173144   5.068   3.418  14.452 -1.3839 -0.8194  3.9628
17243TIP3    H273145   5.186   3.323  14.462  0.9748  1.0571 -1.5311
17244TIP3   OH273146   1.746   1.000   5.030  0.4301  0.7670  0.4173
17244TIP3    H173147   1.782   1.079   5.071 -0.1864  1.1012  0.3299
17244TIP3    H273148   1.664   1.030   4.989  1.2724  0.5805 -1.5305
17245TIP3   OH273149   3.350   0.504  16.580 -0.3943 -0.5047 -0.3926
17245TIP3    H173150   3.268   0.553  16.591 -0.0170  0.3751 -1.3716
17245TIP3    H273151   3.359   0.493  16.485  0.7907 -0.3108 -0.3165
17246TIP3   OH273152   6.481   5.488   2.381  0.0261  0.1234 -0.0081
17246TIP3    H173153   6.497   5.484   2.286  1.6709 -1.8846  0.2900
17246TIP3    H273154   6.568   5.494   2.419 -0.5866  0.2386  1.4141
17247TIP3   OH273155   4.695   6.040  16.247 -0.4024  0.4350  0.0295
17247TIP3    H173156   4.659   6.101  16.182 -1.9646  0.9085  1.2859
17247TIP3    H273157   4.789   6.044  16.233 -0.6598  0.7295 -2.0184
17248TIP3   OH273158   5.924   0.113   6.326 -0.6160  0.6590  0.1728
17248TIP3    H173159   5.975   0.033   6.317  1.3342  1.9795 -1.3176
17248TIP3    H273160   5.985   0.177   6.362 -2.1375  1.5150  1.3496
17249TIP3   OH273161   2.968   5.055  15.558  0.4019 -0.0899  0.0123
17249TIP3    H173162   2.969   4.982  15.620 -0.1958  0.1028  0.2548
17249TIP3    H273163   2.918   5.023  15.484 -1.0581  0.5186  0.6932
17250TIP3   OH273164   5.105   3.676  16.978  0.1647  0.2814 -0.1744
17250TIP3    H173165   5.068   3.759  16.947  0.7078  1.3537  1.9100
17250TIP3    H273166   5.196   3.677  16.949  0.6274  1.2117  1.2156
17251TIP3   OH273167   4.375   0.557  13.685 -0.4354 -0.2455  0.0348
17251TIP3    H173168   4.336   0.535  13.770 -0.1001 -0.8493  0.0375
17251TIP3    H273169   4.465   0.583  13.706  0.6101 -3.1896 -0.3699
17252TIP3   OH273170   4.579   2.315   2.183  0.2948  0.2077 -0.2221
17252TIP3    H173171   4.661   2.270   2.199 -0.1732  0.0919  2.3520
17252TIP3    H273172   4.603   2.407   2.171  0.8965 -0.0557 -1.1146
17253TIP3   OH273173   3.536   3.763   6.689 -0.4732 -0.3839  0.4117
17253TIP3    H173174   3.560   3.747   6.780  0.9306 -0.8432 -0.0137
17253TIP3    H273175   3.576   3.848   6.668  1.7230 -1.5633 -0.5631
17254TIP3   OH273176   4.806   1.478  10.936 -0.1744 -0.4879 -0.4462
17254TIP3    H173177   4.721   1.507  10.901 -0.7120 -2.5962 -1.0609
17254TIP3    H273178   4.796   1.485  11.031 -0.9413 -0.4155 -0.5202
17255TIP3   OH273179   5.095   4.970  15.579  0.0606 -0.2331  0.2678
17255TIP3    H173180   5.000   4.956  15.578  0.2824 -2.1068 -1.1404
17255TIP3    H273181   5.109   5.043  15.519 -0.5423  0.8874  1.4334
17256TIP3   OH273182   4.169   6.691   3.832  0.0861  0.0392  0.5778
17256TIP3    H173183   4.195   6.742   3.909 -0.3240  1.9310 -0.4815
17256TIP3    H273184   4.221   6.610   3.839  0.4636  0.3945  2.5275
17257TIP3   OH273185   1.534   1.468  12.189  0.0452 -0.4710  0.0078
17257TIP3    H173186   1.473   1.528  12.146  0.5972  1.8625  2.1983
17257TIP3    H273187   1.592   1.437  12.119 -0.9779  0.6462 -1.3911
17258TIP3   OH273188   1.749   3.805   2.983 -0.2139  0.2219  0.4668
17258TIP3    H173189   1.727   3.894   2.956 -3.4427 -0.6655 -0.2789
17258TIP3    H273190   1.770   3.813   3.077 -0.0773  1.7862  0.3270
17259TIP3   OH273191   5.509   4.092   1.532 -0.3869 -0.3781 -0.0976
17259TIP3    H173192   5.536   4.167   1.585  0.6411 -0.7784 -0.0308
17259TIP3    H273193   5.433   4.123   1.483 -1.0980  0.1420  1.2767
17260TIP3   OH273194   0.604   3.044  16.698  0.4763  0.1018 -0.1308
17260TIP3    H173195   0.622   2.983  16.627  0.3746 -0.6675  0.4839
17260TIP3    H273196   0.546   2.996  16.757  2.4463 -0.2417  1.7015
17261TIP3   OH273197   3.154   4.055  16.767  0.0974 -0.2000 -0.3122
17261TIP3    H173198   3.240   4.017  16.745  1.1351  1.2169  1.0788
17261TIP3    H273199   3.130   4.106  16.690  0.0283 -1.3820 -1.0936
17262TIP3   OH273200   0.695   1.677  14.674 -0.4694  0.1491  0.2816
17262TIP3    H173201   0.761   1.664  14.741  0.7019  0.1488 -0.8371
17262TIP3    H273202   0.671   1.769  14.680 -2.0293 -0.3235  2.1470
17263TIP3   OH273203   3.900   4.647   1.759 -0.1232  0.1661  0.5790
17263TIP3    H173204   3.922   4.584   1.828  0.1454 -0.6945 -0.2767
17263TIP3    H273205   3.949   4.725   1.782  0.4629 -0.3258  1.0264
17264TIP3   OH273206   5.747   4.733  12.652 -0.0785  0.0469 -0.3284
17264TIP3    H173207   5.687   4.684  12.708  0.3146  1.3150  1.2757
17264TIP3    H273208   5.829   4.737  12.700 -0.1195  2.3093 -0.3140
17265TIP3   OH273209   4.900   3.640   2.091 -0.3488 -0.1078  0.3212
17265TIP3    H173210   4.862   3.640   2.179 -0.2218  0.6926  0.3849
17265TIP3    H273211   4.926   3.549   2.076  0.9623 -0.0003  1.7011
17266TIP3   OH273212   2.249   0.101  14.436  0.2300 -0.8537  0.2157
17266TIP3    H173213   2.336   0.137  14.453  0.0502 -1.1996  1.9982
17266TIP3    H273214   2.188   0.164  14.473 -0.2547 -1.0381 -0.2447
17267TIP3   OH273215   1.169   2.301  13.208  0.5763  0.0842 -0.0165
17267TIP3    H173216   1.140   2.258  13.128 -0.4284  0.3815  0.1762
17267TIP3    H273217   1.263   2.315  13.194  0.8190 -1.6070 -0.3180
17268TIP3   OH273218   0.063   2.908   5.264  0.4816  0.1973 -0.1929
17268TIP3    H173219  -0.006   2.845   5.286  0.4436  0.7705  1.4308
17268TIP3    H273220   0.133   2.890   5.327  1.1285  0.7447 -0.7357
17269TIP3   OH273221   2.857   1.692   2.768  0.2114  0.2328 -0.3179
17269TIP3    H173222   2.764   1.713   2.767  0.3171  1.0107  1.6464
17269TIP3    H273223   2.895   1.752   2.832  1.6941 -1.4594  0.4955
17270TIP3   OH273224   1.557   5.650  14.050 -0.2765  0.1357 -0.3501
17270TIP3    H173225   1.501   5.658  13.972  0.0117  0.7606 -0.5034
17270TIP3    H273226   1.620   5.722  14.041  1.3272 -1.2737 -0.8135
17271TIP3   OH273227   0.509   1.246  14.494  0.3749  0.3264 -0.0690
17271TIP3    H173228   0.597   1.246  14.456  0.6676  1.2390  0.5738
17271TIP3    H273229   0.519   1.291  14.578 -0.6274  0.0634  0.2018
17272TIP3   OH273230   5.338   1.335  14.303 -0.7304  0.2095  0.3629
17272TIP3    H173231   5.372   1.253  14.267  1.1294  0.6358  1.0179
17272TIP3    H273232   5.283   1.371  14.233 -0.1206 -0.7308 -0.6357
17273TIP3   OH273233   0.815   3.347   4.437  0.5330  0.0449  0.6529
17273TIP3    H173234   0.794   3.272   4.494 -0.3727 -0.1720  0.0457
17273TIP3    H273235   0.730   3.383   4.412  0.9559  1.2540  0.8845
17274TIP3   OH273236   4.666   3.832   4.792 -0.0219 -0.1921  0.1263
17274TIP3    H173237   4.698   3.767   4.854  3.8652  1.6464  0.3182
17274TIP3    H273238   4.744   3.877   4.761 -2.1907  1.9861 -2.7649
17275TIP3   OH273239   6.679   3.654   3.228  0.1040 -0.5960 -0.0490
17275TIP3    H173240   6.630   3.575   3.250  0.2638 -0.9822 -1.0541
17275TIP3    H273241   6.704   3.642   3.137  2.2446 -0.5014  0.4893
17276TIP3   OH273242   3.713   0.461  14.808 -0.0616 -0.0322  0.2503
17276TIP3    H173243   3.729   0.378  14.851 -1.3791 -1.0380 -1.0976
17276TIP3    H273244   3.624   0.453  14.772  0.1492  1.5724 -0.7312
17277TIP3   OH273245   0.874   1.833  11.533  0.1119  0.3260  0.2861
17277TIP3    H173246   0.898   1.762  11.474  1.1305  0.3934  0.5939
17277TIP3    H273247   0.785   1.812  11.562  1.0328 -1.7846  1.7723
17278TIP3   OH273248   6.034   3.762   4.411  0.4874  0.5381 -0.3640
17278TIP3    H173249   5.973   3.821   4.367 -2.0353 -1.1814  0.6382
17278TIP3    H273250   6.063   3.701   4.343 -0.2715  0.3087 -0.4845
17279TIP3   OH273251   0.290   2.058  16.348 -0.1822 -0.5504 -0.1024
17279TIP3    H173252   0.323   1.970  16.331  1.0825  0.0145 -0.7940
17279TIP3    H273253   0.210   2.045  16.399 -0.8431 -2.1527 -1.4307
17280TIP3   OH273254   2.405   1.269   0.808  0.1378 -0.4529  0.2970
17280TIP3    H173255   2.326   1.319   0.786  1.2932  1.7641  0.8402
17280TIP3    H273256   2.375   1.205   0.872 -0.8967  1.9960  2.4581
17281TIP3   OH273257   6.175   4.278   0.267 -0.2769 -0.2284  0.4901
17281TIP3    H173258   6.097   4.228   0.244  1.0683 -1.8954 -0.7173
17281TIP3    H273259   6.163   4.363   0.225 -1.4711 -0.4460  0.3749
17282TIP3   OH273260   3.011   6.515  16.566  0.2282 -0.0913 -0.2605
17282TIP3    H173261   3.037   6.478  16.481 -1.0156  0.4091 -0.8905
17282TIP3    H273262   2.991   6.439  16.620  2.3617 -0.4806  0.0859
17283TIP3   OH273263   2.667   6.100  13.311 -0.5306  0.0251 -0.3194
17283TIP3    H173264   2.598   6.152  13.268 -1.9909 -1.3448  0.2937
17283TIP3    H273265   2.654   6.114  13.404 -0.7944 -1.2404 -0.1514
17284TIP3   OH273266   1.716   1.322  15.324  0.5269 -0.0585 -0.0836
17284TIP3    H173267   1.795   1.367  15.353  1.1425 -1.1728  0.0129
17284TIP3    H273268   1.733   1.229  15.342 -1.0327 -0.2647  0.4779
17285TIP3   OH273269   3.265   4.218  11.960  0.3911  0.0489  0.1564
17285TIP3    H173270   3.240   4.300  12.002 -1.0824 -0.6160  0.6428
17285TIP3    H273271   3.197   4.155  11.987 -0.1444 -0.6321 -2.4771
17286TIP3   OH273272   2.793   2.086   6.243  0.3198  0.2229  0.6426
17286TIP3    H173273   2.717   2.142   6.225  1.3552  2.4406  2.5417
17286TIP3    H273274   2.763   2.026   6.312 -0.0732  0.2272  0.4769
17287TIP3   OH273275   0.394   6.578  15.135 -0.2442  0.6402  1.0752
17287TIP3    H173276   0.457   6.527  15.187 -0.3995  0.6873  1.3124
17287TIP3    H273277   0.405   6.668  15.165  0.8369  0.9311 -0.1628
17288TIP3   OH273278   6.465   5.824   1.516  0.3885  0.0810 -0.3852
17288TIP3    H173279   6.534   5.758   1.523 -0.1640 -0.3611  2.3783
17288TIP3    H273280   6.384   5.773   1.509  0.0872  0.4977 -0.0043
17289TIP3   OH273281   0.839   3.856  15.593  0.2244 -0.5008 -1.0348
17289TIP3    H173282   0.905   3.925  15.585 -0.5063  0.0889 -2.2414
17289TIP3    H273283   0.853   3.820  15.680  0.8764  0.9218 -0.5152
17290TIP3   OH273284   0.367   4.340  13.329 -0.1234 -0.1626 -0.2107
17290TIP3    H173285   0.413   4.416  13.364 -0.4356 -0.0849  0.0353
17290TIP3    H273286   0.277   4.369  13.319 -0.7105 -1.1126  1.8425
17291TIP3   OH273287   5.575   0.329   2.807 -0.2538 -0.1224 -0.1880
17291TIP3    H173288   5.651   0.298   2.856  1.0658  2.4431 -0.3955
17291TIP3    H273289   5.516   0.254   2.803  1.1908 -1.4971  2.0949
17292TIP3   OH273290   6.373   6.428  13.557 -0.0165 -0.1568  0.3618
17292TIP3    H173291   6.323   6.356  13.597  0.4100 -1.3530 -1.1613
17292TIP3    H273292   6.454   6.431  13.608  0.6722 -1.8979 -0.5509
17293TIP3   OH273293   3.557   4.262  12.006 -0.3298 -0.6977 -0.0719
17293TIP3    H173294   3.479   4.249  11.952  0.9414  1.1297 -2.5487
17293TIP3    H273295   3.614   4.189  11.985 -1.4417 -2.3439  2.1531
17294TIP3   OH273296   6.580   4.714   4.747 -0.2772 -0.0467  0.4618
17294TIP3    H173297   6.579   4.797   4.794 -1.9062  1.0568 -1.3639
17294TIP3    H273298   6.519   4.658   4.796 -0.3018  0.3418  0.8793
17295TIP3   OH273299   1.487   5.232  12.649  0.1009  0.0063 -0.2340
17295TIP3    H173300   1.570   5.280  12.645 -0.4274  0.9426 -0.1452
17295TIP3    H273301   1.499   5.158  12.590  1.6160 -0.8357  1.0545
17296TIP3   OH273302   5.321   3.172  11.925 -0.3554  0.0796  0.0419
17296TIP3    H173303   5.327   3.240  11.992 -0.9578  1.3309 -1.1546
17296TIP3    H273304   5.347   3.215  11.844 -0.3474 -1.2309 -0.6745
17297TIP3   OH273305   5.022   2.298   3.026  0.3450 -0.0446  0.0152
17297TIP3    H173306   5.050   2.229   2.966  1.2051 -0.2120  0.5945
17297TIP3    H273307   4.977   2.250   3.097 -0.1964  0.1063 -0.2212
17298TIP3   OH273308   4.469   6.113  14.978  0.4023 -0.3891  0.6795
17298TIP3    H173309   4.538   6.174  14.951 -1.3536  0.8244 -1.3971
17298TIP3    H273310   4.453   6.134  15.070  1.4328  0.6734  0.6352
17299TIP3   OH273311   6.478   0.117  15.030  0.5157 -0.0711  0.7984
17299TIP3    H173312   6.385   0.120  15.010  0.2886  1.3968  1.9134
17299TIP3    H273313   6.519   0.170  14.962  0.5773 -0.8377  0.2213
17300TIP3   OH273314   2.530   0.956   4.392  0.0123  0.2911 -0.7974
17300TIP3    H173315   2.471   0.955   4.468 -0.9175  0.1793 -1.5095
17300TIP3    H273316   2.561   0.866   4.385  0.5530  0.4221 -0.2171
17301TIP3   OH273317   6.676   6.398  11.660  0.3058 -0.0763  0.0796
17301TIP3    H173318   6.742   6.454  11.700  2.2117 -1.7959 -0.4825
17301TIP3    H273319   6.672   6.321  11.716 -0.1436 -0.6410 -0.6945
17302TIP3   OH273320   3.405   3.129   0.071 -0.2566 -0.5882 -0.1151
17302TIP3    H173321   3.419   3.173  -0.013 -3.5269  2.4803  0.6449
17302TIP3    H273322   3.435   3.193   0.136 -1.5383 -1.1147  1.0359
17303TIP3   OH273323   1.586   5.775   4.999 -0.3551  0.0916  0.0014
17303TIP3    H173324   1.680   5.762   4.985 -0.4633 -1.7226  0.6802
17303TIP3    H273325   1.580   5.840   5.068  0.5314 -1.8323  2.0102
17304TIP3   OH273326   3.111   5.161  15.286  0.1548  0.3370 -0.0109
17304TIP3    H173327   3.027   5.127  15.316  0.3294 -0.4879 -0.4313
17304TIP3    H273328   3.173   5.138  15.356  0.1663  0.3124 -0.0297
17305TIP3   OH273329   5.980   2.936  15.528  0.2294  0.3664 -0.2013
17305TIP3    H173330   5.885   2.933  15.543 -0.2782  2.7776 -2.3210
17305TIP3    H273331   6.003   2.845  15.510 -1.7769 -0.2065 -0.1883
17306TIP3   OH273332   6.005   2.852  17.423  1.1305  0.2783  0.3243
17306TIP3    H173333   6.006   2.905  17.344  1.0555 -1.0052 -0.5551
17306TIP3    H273334   6.036   2.766  17.396 -0.6837 -0.7448  1.2787
17307TIP3   OH273335   4.209   4.396   3.151 -0.1567 -0.7389 -0.7143
17307TIP3    H173336   4.194   4.462   3.084  2.6825 -0.0133 -0.7644
17307TIP3    H273337   4.299   4.410   3.179  0.0485 -3.6155  0.4170
17308TIP3   OH273338   2.447   1.241   3.792 -0.2383 -0.1032  0.1814
17308TIP3    H173339   2.415   1.210   3.877  0.3875  1.3674  1.0004
17308TIP3    H273340   2.427   1.335   3.792  1.3432  0.2623 -0.5486
17309TIP3   OH273341   3.081   5.645  16.008  0.0990 -0.1594 -0.6470
17309TIP3    H173342   3.122   5.729  16.029  0.2478 -0.6486  1.2093
17309TIP3    H273343   3.128   5.581  16.061 -1.9961 -0.9694  0.3759
17310TIP3   OH273344   0.796   3.953  16.429  0.7374 -0.0591 -0.1167
17310TIP3    H173345   0.782   4.018  16.360 -1.3944 -0.8232 -0.4691
17310TIP3    H273346   0.745   3.985  16.503  2.8401  0.6461  1.1174
17311TIP3   OH273347   1.867   0.792   0.929  0.1005 -0.2582  0.8413
17311TIP3    H173348   1.920   0.746   0.995  0.0091 -1.3715  0.1552
17311TIP3    H273349   1.838   0.724   0.869  0.7711  0.8092 -0.7790
17312TIP3   OH273350   6.658   2.544  13.962  0.7872  0.8511 -0.2534
17312TIP3    H173351   6.674   2.532  13.869  1.0027  0.6000 -0.1879
17312TIP3    H273352   6.662   2.638  13.976 -1.4793  1.0811 -0.8892
17313TIP3   OH273353   6.382   5.990  11.563 -0.2846 -0.3464 -1.2509
17313TIP3    H173354   6.368   5.898  11.541 -0.3075 -0.5557 -0.3766
17313TIP3    H273355   6.299   6.032  11.538 -1.2037 -0.9789  0.5440
17314TIP3   OH273356   2.405   3.714   4.320  0.0853  0.3233  0.4077
17314TIP3    H173357   2.422   3.642   4.260  2.1412  1.3457 -0.3329
17314TIP3    H273358   2.365   3.672   4.397  0.7750 -1.5247 -0.1815
17315TIP3   OH273359   6.062   2.035  12.994  0.3874  0.2758  0.6518
17315TIP3    H173360   6.142   2.036  12.942  0.4306 -0.7340  0.6707
17315TIP3    H273361   6.001   2.091  12.946  0.1128 -1.3800 -1.0395
17316TIP3   OH273362   3.157   1.316  16.099 -0.4495  0.1732  0.0694
17316TIP3    H173363   3.088   1.259  16.065 -1.3466  0.8812  0.6451
17316TIP3    H273364   3.219   1.257  16.141 -1.1196 -0.4222  0.2384
17317TIP3   OH273365   5.029   3.175  14.203 -0.2439  0.4040 -0.0501
17317TIP3    H173366   5.056   3.230  14.277 -0.5706 -0.2492  0.5623
17317TIP3    H273367   5.087   3.099  14.208  0.4562  0.8503 -1.1167
17318TIP3   OH273368   4.357   1.555  16.177  0.4976 -0.2232 -0.5143
17318TIP3    H173369   4.265   1.543  16.196  0.3556 -0.6300 -1.3902
17318TIP3    H273370   4.399   1.474  16.206  0.4049 -0.4938 -1.1079
17319TIP3   OH273371   3.363   0.834   1.550 -0.5306 -0.2288  0.4146
17319TIP3    H173372   3.298   0.773   1.515 -0.8988 -0.8658  2.0851
17319TIP3    H273373   3.320   0.919   1.548 -0.3236 -0.1314 -1.1610
17320TIP3   OH273374   1.693   1.478  11.621 -0.3338 -0.6737 -0.2682
17320TIP3    H173375   1.779   1.436  11.617 -0.2754 -0.9234  2.1869
17320TIP3    H273376   1.655   1.462  11.535  2.6713  0.8727 -2.0492
17321TIP3   OH273377   3.011   2.952  12.378  0.5422  0.0573  0.1952
17321TIP3    H173378   3.026   2.928  12.470 -0.6328 -2.8484 -0.2604
17321TIP3    H273379   3.098   2.973  12.344  1.5442 -2.2968  1.1106
17322TIP3   OH273380   2.602   2.994   3.934 -0.0147  0.3075  0.3810
17322TIP3    H173381   2.602   2.903   3.907  0.7440  0.6366 -0.8263
17322TIP3    H273382   2.535   3.000   4.002 -1.0751 -0.8474 -0.5236
17323TIP3   OH273383   0.292   1.199   4.649  0.6119  0.3380  0.0698
17323TIP3    H173384   0.262   1.118   4.688 -0.8172  0.7787 -0.0605
17323TIP3    H273385   0.366   1.226   4.704  2.1812 -1.8283 -0.8320
17324TIP3   OH273386   2.277   6.524  11.919 -0.0577 -0.5142 -0.2807
17324TIP3    H173387   2.219   6.504  11.846 -0.2848  1.4777 -0.7233
17324TIP3    H273388   2.365   6.504  11.887 -0.2141 -0.2392 -0.8964
17325TIP3   OH273389   3.080   4.062   0.283 -0.3993 -0.2964 -0.2733
17325TIP3    H173390   3.092   3.985   0.338  0.6685 -0.0599 -0.1694
17325TIP3    H273391   2.987   4.061   0.261 -0.2776 -1.9922 -0.8234
17326TIP3   OH273392   1.125   0.698  13.226  0.1062  0.1790 -1.0030
17326TIP3    H173393   1.120   0.618  13.279  1.4968  0.3404 -0.5899
17326TIP3    H273394   1.216   0.727  13.235 -0.1765  1.3740 -1.7942
17327TIP3   OH273395   4.453   6.182  16.115 -0.1143 -0.2479  0.4246
17327TIP3    H173396   4.382   6.123  16.141 -1.2832  0.2488 -1.4281
17327TIP3    H273397   4.484   6.147  16.032 -0.7401  1.6107 -0.6529
17328TIP3   OH273398   5.461   5.767  14.035 -0.3950  0.1876 -0.2302
17328TIP3    H173399   5.556   5.764  14.021 -0.5414  0.6738 -1.3754
17328TIP3    H273400   5.450   5.735  14.125  0.8251 -0.1553 -0.1788
17329TIP3   OH273401   2.237   5.622  11.522  0.1422 -0.4030 -0.4636
17329TIP3    H173402   2.267   5.547  11.472  0.8763 -0.3905 -0.0609
17329TIP3    H273403   2.219   5.690  11.456 -0.8938 -1.0414 -0.8560
17330TIP3   OH273404   2.372   5.459   0.275  0.3813  0.1026  0.3078
17330TIP3    H173405   2.357   5.371   0.241 -0.1437  0.9266 -1.7735
17330TIP3    H273406   2.385   5.447   0.369  1.2068 -2.2730 -0.0398
17331TIP3   OH273407   1.204   4.344   3.283 -0.1268 -0.0548  0.5717
17331TIP3    H173408   1.218   4.439   3.274  0.4492 -0.2793 -1.7385
17331TIP3    H273409   1.115   4.336   3.315  0.0360  1.2636  1.4591
17332TIP3   OH273410   4.801   4.625  15.390 -0.0062  0.8478  0.3623
17332TIP3    H173411   4.740   4.694  15.415 -0.8415 -0.3590  1.8139
17332TIP3    H273412   4.887   4.657  15.418 -0.3295  1.4422  0.6954
17333TIP3   OH273413   6.044   6.020   4.965 -0.0690 -0.4294 -0.1868
17333TIP3    H173414   6.091   6.052   4.889  0.2285 -0.3322  0.0331
17333TIP3    H273415   6.113   6.000   5.029 -0.2372 -1.5910 -0.3515
17334TIP3   OH273416   3.562   5.415   2.743  0.3647 -0.4592 -0.7567
17334TIP3    H173417   3.598   5.503   2.757  1.2214 -1.0239  0.8869
17334TIP3    H273418   3.616   5.378   2.673  0.7154 -0.0510 -0.7078
17335TIP3   OH273419   3.138   6.424  17.360 -0.3372 -0.1980  0.6393
17335TIP3    H173420   3.110   6.388  17.276 -0.8115 -1.4969  1.3372
17335TIP3    H273421   3.233   6.411  17.361  0.0028  1.7746 -0.5763
17336TIP3   OH273422   5.082   1.782   3.856 -0.1125  0.0860  0.3567
17336TIP3    H173423   5.106   1.720   3.924  2.3812  0.7367  0.1627
17336TIP3    H273424   5.159   1.788   3.800 -1.1207  1.5897 -0.9718
17337TIP3   OH273425   2.684   0.092   2.401  0.6501  0.0242  0.0442
17337TIP3    H173426   2.589   0.099   2.386  0.5755  0.6499  0.7895
17337TIP3    H273427   2.723   0.139   2.328  0.3258  1.7141  0.9219
17338TIP3   OH273428   6.466   1.671   5.011 -0.1571 -0.6260  0.3254
17338TIP3    H173429   6.555   1.651   4.983  1.0184  1.1247  2.4644
17338TIP3    H273430   6.461   1.639   5.101 -1.5642 -0.3131  0.3869
17339TIP3   OH273431   4.297   6.573   3.452 -0.3005  0.1421 -0.1266
17339TIP3    H173432   4.323   6.489   3.490  2.1339  1.3182  1.0051
17339TIP3    H273433   4.261   6.550   3.366 -1.6528 -2.1851  0.9691
17340TIP3   OH273434   6.057   5.687   2.780  0.8298 -0.0387 -0.2348
17340TIP3    H173435   6.016   5.692   2.693 -0.0255  0.6908  0.1885
17340TIP3    H273436   6.023   5.764   2.826  1.1937 -0.4762  0.7801
17341TIP3   OH273437   4.085   4.091  15.000  0.2579  0.1606 -0.5070
17341TIP3    H173438   4.041   4.038  14.933 -0.9583  0.8258 -0.2641
17341TIP3    H273439   4.118   4.167  14.952  0.7323 -0.1148 -0.6130
17342TIP3   OH273440   3.818   4.787  13.316  0.0500 -0.4277  0.2515
17342TIP3    H173441   3.904   4.770  13.277  0.4945 -2.1582  1.8959
17342TIP3    H273442   3.806   4.882  13.305  1.3695 -0.4075 -1.5358
17343TIP3   OH273443   2.761   4.597   2.771  0.4526  0.0374  0.3738
17343TIP3    H173444   2.744   4.504   2.757 -1.3728  0.2215  1.1115
17343TIP3    H273445   2.837   4.616   2.715 -0.5747 -1.3631 -1.6304
17344TIP3   OH273446   5.934   5.246   0.295 -0.9491 -0.4963  0.3771
17344TIP3    H173447   5.969   5.174   0.242  1.6676  2.1548 -1.8487
17344TIP3    H273448   5.869   5.288   0.237 -1.8798 -0.5606  1.3461
17345TIP3   OH273449   6.633   5.610  14.837  0.0061 -0.3108 -0.1029
17345TIP3    H173450   6.717   5.608  14.791  0.7034 -0.5463  1.1293
17345TIP3    H273451   6.607   5.702  14.835  0.9111 -0.0226  0.5388
17346TIP3   OH273452   4.622   5.028   4.654 -0.2016 -0.0538 -0.1499
17346TIP3    H173453   4.596   5.049   4.743  0.8413  1.6688 -0.1876
17346TIP3    H273454   4.704   5.076   4.641 -0.3477 -0.2056 -2.0315
17347TIP3   OH273455   4.025   0.064  16.643 -0.5404  0.0223 -0.0608
17347TIP3    H173456   3.936   0.082  16.614 -0.6001 -0.5953 -0.2795
17347TIP3    H273457   4.030   0.104  16.730 -1.3407 -0.7401  0.3600
17348TIP3   OH273458   1.573   1.975   1.795 -0.1801 -0.2410  0.7029
17348TIP3    H173459   1.658   1.960   1.753 -0.1290  2.0078 -0.1220
17348TIP3    H273460   1.595   2.017   1.878 -0.4832  0.2780  0.5215
17349TIP3   OH273461   6.032   4.321   6.091 -0.3174 -0.3066 -0.5099
17349TIP3    H173462   6.004   4.259   6.158  0.9485 -0.9456 -0.5339
17349TIP3    H273463   6.114   4.356   6.124 -0.6341  0.7874 -0.8628
17350TIP3   OH273464   6.690   3.627   4.808  0.9194  0.0592 -0.3329
17350TIP3    H173465   6.680   3.719   4.786  1.9992  0.0692 -0.8859
17350TIP3    H273466   6.606   3.587   4.786  0.6353  0.8113 -0.6226
17351TIP3   OH273467   4.628   5.782  13.330  0.5363 -0.0142  0.1983
17351TIP3    H173468   4.627   5.695  13.290 -1.6224 -0.0235  0.1656
17351TIP3    H273469   4.696   5.777  13.398  0.0931 -1.9024  0.5434
17352TIP3   OH273470   2.107   1.395   2.505  0.3991 -0.5376 -0.0965
17352TIP3    H173471   2.054   1.333   2.455  1.1638 -0.2671 -1.2705
17352TIP3    H273472   2.078   1.383   2.595 -2.1922  0.0866 -0.7332
17353TIP3   OH273473   6.136   4.507  13.163 -0.1255 -0.3724 -0.2890
17353TIP3    H173474   6.208   4.569  13.147  0.2203 -0.0270  2.2856
17353TIP3    H273475   6.061   4.562  13.184  0.0470 -0.7573  1.4873
17354TIP3   OH273476   0.026   3.212  12.452  0.2745 -0.0377  0.0539
17354TIP3    H173477   0.112   3.244  12.479  0.0460 -1.6533  3.0082
17354TIP3    H273478  -0.015   3.287  12.408  2.3305  1.4423  0.5531
17355TIP3   OH273479   4.360   6.469  14.784  0.0392 -0.2189 -0.3946
17355TIP3    H173480   4.415   6.394  14.758 -0.1538 -1.2142  1.8553
17355TIP3    H273481   4.271   6.440  14.768 -0.0460 -0.5771  0.6659
17356TIP3   OH273482   0.009   1.482  15.093  0.1373 -0.1602  0.3030
17356TIP3    H173483   0.001   1.569  15.054  0.7649 -0.2178  0.0488
17356TIP3    H273484   0.020   1.499  15.186 -1.8421 -0.0338  0.5611
17357TIP3   OH273485   3.052   0.328   0.867  0.0567  0.1892 -0.6764
17357TIP3    H173486   2.964   0.356   0.892  0.7047  0.7989  1.0906
17357TIP3    H273487   3.108   0.403   0.885  1.2816 -0.9477  0.5717
17358TIP3   OH273488   2.087   4.786   4.037 -0.0179  0.4577  0.4927
17358TIP3    H173489   2.036   4.856   3.996 -0.1527  0.6869  1.0352
17358TIP3    H273490   2.136   4.830   4.107  0.4420  0.1295  0.3844
17359TIP3   OH273491   3.740   2.412   3.718 -0.0006  0.1637  0.5743
17359TIP3    H173492   3.826   2.451   3.731  0.6807 -1.6090  1.8564
17359TIP3    H273493   3.691   2.477   3.668  1.5394  1.9317  1.2456
17360TIP3   OH273494   3.892   4.928   6.244  0.3285  0.0304 -0.5325
17360TIP3    H173495   3.815   4.974   6.209  1.0747 -0.2005 -2.5954
17360TIP3    H273496   3.860   4.840   6.264 -0.8683  1.0270  2.5096
17361TIP3   OH273497   5.945   5.916  16.040  0.1868 -0.1351 -0.5253
17361TIP3    H173498   6.029   5.925  16.085 -0.3893  0.7839  0.4003
17361TIP3    H273499   5.910   5.833  16.072  0.4135 -0.1724 -0.3685
17362TIP3   OH273500   5.973   6.026  14.864  0.1277 -0.3864  0.2894
17362TIP3    H173501   5.950   5.934  14.871  0.7593 -0.4523  2.5289
17362TIP3    H273502   5.889   6.073  14.866 -0.1810 -0.8891 -0.6187
17363TIP3   OH273503   5.290   4.437  12.570 -0.1579 -0.9012  0.3531
17363TIP3    H173504   5.332   4.370  12.517  0.1055 -0.4476 -0.0229
17363TIP3    H273505   5.210   4.396  12.602  0.7919 -1.9557  1.5031
17364TIP3   OH273506   1.815   1.540  14.469 -0.7400  0.3221  0.0394
17364TIP3    H173507   1.770   1.624  14.457  0.8745  0.8536 -3.4239
17364TIP3    H273508   1.878   1.556  14.539 -1.5472  1.4817  0.5327
17365TIP3   OH273509   1.763   6.426   6.611  0.3635 -0.2720 -0.0228
17365TIP3    H173510   1.715   6.359   6.563  2.3310 -1.5512 -0.3461
17365TIP3    H273511   1.820   6.466   6.545 -0.6917  1.6945  0.1939
17366TIP3   OH273512   2.357   0.457   3.817 -0.0608  0.0083  0.2467
17366TIP3    H173513   2.276   0.507   3.830 -0.7383 -0.7709 -0.8709
17366TIP3    H273514   2.369   0.454   3.722  2.0642  1.3109  0.3884
17367TIP3   OH273515   0.028   1.139  15.805  0.6756 -0.5447  0.3179
17367TIP3    H173516   0.007   1.111  15.894 -0.0867 -2.8454 -0.5241
17367TIP3    H273517  -0.017   1.223  15.795 -3.6007 -2.5643  0.5006
17368TIP3   OH273518   4.610   5.847   2.257  0.2235 -0.1688  0.2084
17368TIP3    H173519   4.684   5.800   2.295  0.8114  0.0609 -0.6274
17368TIP3    H273520   4.631   5.853   2.164 -0.6295  0.3114  0.0396
17369TIP3   OH273521   0.413   1.398  13.785 -0.3604  0.1509  0.4906
17369TIP3    H173522   0.386   1.416  13.875 -2.9590  1.7543 -0.4982
17369TIP3    H273523   0.445   1.307  13.787 -1.9215 -0.4356  2.7069
17370TIP3   OH273524   0.702   4.463   3.589 -0.9409 -0.5336 -0.1690
17370TIP3    H173525   0.656   4.442   3.670  0.3424 -0.2949  0.6545
17370TIP3    H273526   0.633   4.483   3.526 -2.0570  3.9659  2.0649
17371TIP3   OH273527   3.277   1.139  13.992 -0.4980 -0.1799 -0.4212
17371TIP3    H173528   3.244   1.078  14.057  0.3574  0.6570  0.8351
17371TIP3    H273529   3.201   1.190  13.966 -0.7464 -0.1739  0.3104
17372TIP3   OH273530   1.387   2.290  15.553  0.3678 -0.3752 -0.3712
17372TIP3    H173531   1.320   2.222  15.549 -0.3723  0.1330  1.9020
17372TIP3    H273532   1.428   2.278  15.639  1.2246  1.1364 -0.5302
17373TIP3   OH273533   3.738   5.849  11.494  0.6078 -0.2529  0.5727
17373TIP3    H173534   3.693   5.835  11.411 -0.6653  0.7365  1.0417
17373TIP3    H273535   3.757   5.943  11.496 -0.5899  0.0044  1.9308
17374TIP3   OH273536   2.625   1.148   1.278 -0.7628  0.2116  0.0699
17374TIP3    H173537   2.562   1.219   1.286 -1.4044 -0.4490  1.1801
17374TIP3    H273538   2.705   1.183   1.317 -1.1052  0.3070  0.6989
17375TIP3   OH273539   6.054   3.655   5.365  1.0250 -0.0937  0.2175
17375TIP3    H173540   6.065   3.684   5.274 -2.4949  2.6668  0.4399
17375TIP3    H273541   6.014   3.568   5.357  2.7365 -0.8383 -0.7519
17376TIP3   OH273542   0.841   3.307   0.674 -0.2253  0.3647  0.1565
17376TIP3    H173543   0.746   3.316   0.667 -0.2909  2.1908  2.3806
17376TIP3    H273544   0.854   3.231   0.731 -0.1788 -1.9031 -2.6816
17377TIP3   OH273545   3.049   0.625   0.172  0.4164 -0.0619 -0.7884
17377TIP3    H173546   3.031   0.689   0.103 -0.2050 -0.6928 -1.2263
17377TIP3    H273547   2.994   0.550   0.149 -0.6215  0.1110  0.9843
17378TIP3   OH273548   4.444   6.164   0.926 -0.2968 -0.4832  0.6075
17378TIP3    H173549   4.433   6.188   1.018  1.4919 -0.8566  0.9651
17378TIP3    H273550   4.413   6.074   0.920  1.0493 -1.0305  1.2540
17379TIP3   OH273551   0.967   1.716   0.996 -0.3283 -0.3975 -0.1988
17379TIP3    H173552   0.996   1.803   1.023 -3.4648  0.9712 -0.8319
17379TIP3    H273553   1.030   1.691   0.928  1.4091  0.7369  0.8876
17380TIP3   OH273554   3.355   2.798  14.620 -0.6120 -0.0568 -0.1724
17380TIP3    H173555   3.372   2.738  14.547 -0.2066 -0.3924  0.1982
17380TIP3    H273556   3.436   2.800  14.670 -0.3051  1.4968 -0.6634
17381TIP3   OH273557   3.087   1.966  13.131 -0.0366  0.2535 -0.0612
17381TIP3    H173558   3.090   2.011  13.046 -0.5582 -0.1482 -0.2967
17381TIP3    H273559   3.022   1.897  13.119 -1.1881  1.0851  1.0991
17382TIP3   OH273560   5.995   0.406   6.738 -0.2616 -0.1089 -0.1090
17382TIP3    H173561   5.904   0.408   6.706 -0.6313 -0.2476  0.8866
17382TIP3    H273562   5.995   0.467   6.811  0.7154  0.6544 -0.7295
17383TIP3   OH273563   1.222   3.193  10.859 -0.1786 -0.3110  0.0471
17383TIP3    H173564   1.167   3.203  10.781  0.4195 -0.1418 -0.3636
17383TIP3    H273565   1.258   3.105  10.852  1.3042  0.3246 -0.8409
17384TIP3   OH273566   4.153   3.205   3.118 -0.7431  0.3197  1.1988
17384TIP3    H173567   4.196   3.120   3.110 -2.3098 -0.4578  0.8204
17384TIP3    H273568   4.225   3.266   3.137  0.2878 -1.2249  2.5175
17385TIP3   OH273569   2.661   1.103  17.140 -1.1277 -0.3707 -0.0267
17385TIP3    H173570   2.714   1.067  17.211 -1.9391  1.2876  1.5066
17385TIP3    H273571   2.605   1.167  17.183 -1.3549  1.0189 -2.2597
17386TIP3   OH273572   2.307   1.983   3.574 -0.4502  0.3644  0.1954
17386TIP3    H173573   2.356   2.059   3.607 -1.7034  2.3314 -2.0979
17386TIP3    H273574   2.338   1.972   3.484  0.6556 -2.8057  0.8457
17387TIP3   OH273575   2.854   0.464   2.881  0.1417  0.0908 -0.8430
17387TIP3    H173576   2.768   0.437   2.914  0.0436  1.1092 -0.2437
17387TIP3    H273577   2.904   0.382   2.877 -0.4760 -0.3407 -0.0541
17388TIP3   OH273578   2.290   0.389   2.720  0.5288  0.4712 -0.1127
17388TIP3    H173579   2.196   0.398   2.735  0.2404  0.7794 -1.8573
17388TIP3    H273580   2.325   0.477   2.731  0.5389  0.4374  0.1185
17389TIP3   OH273581   5.843   4.518   5.851  0.1481 -0.7152 -0.3200
17389TIP3    H173582   5.819   4.596   5.900  1.6083 -0.3398 -0.1674
17389TIP3    H273583   5.882   4.460   5.917  2.1482 -0.1974 -0.9749
17390TIP3   OH273584   2.082   6.383   4.005 -0.1546  0.3964  0.3443
17390TIP3    H173585   1.991   6.402   4.028  0.1641  1.4215  0.8232
17390TIP3    H273586   2.128   6.386   4.089  0.3266 -0.1176  0.1016
17391TIP3   OH273587   5.529   0.043  14.356  0.0963  0.2369  0.1013
17391TIP3    H173588   5.624   0.039  14.354  0.0590 -1.2881 -0.8128
17391TIP3    H273589   5.508   0.133  14.378  1.7457  0.8589 -0.7364
17392TIP3   OH273590   5.722   1.761   1.056 -0.2558  0.3412 -0.7962
17392TIP3    H173591   5.773   1.798   0.984 -0.6794  1.5935 -0.4752
17392TIP3    H273592   5.766   1.793   1.135 -0.3233 -0.2900 -0.4982
17393TIP3   OH273593   1.800   5.416  13.698 -0.2569  0.7038  0.3741
17393TIP3    H173594   1.798   5.452  13.609  2.4062 -0.2628 -0.1637
17393TIP3    H273595   1.785   5.322  13.686  0.5530  0.5035  0.8987
17394TIP3   OH273596   3.600   1.490   2.811  0.7987  0.8211 -0.6308
17394TIP3    H173597   3.580   1.426   2.880  0.5464  0.4651 -1.0238
17394TIP3    H273598   3.684   1.462   2.776  0.7582  0.7875 -0.7026
17395TIP3   OH273599   1.158   3.842  14.000  0.1239 -0.1494 -0.4365
17395TIP3    H173600   1.182   3.886  13.918 -0.7292 -2.6054 -2.1173
17395TIP3    H273601   1.241   3.818  14.040  0.5611  0.0708 -1.1819
17396TIP3   OH273602   1.540   0.722   1.215  0.4198 -0.1444 -0.0640
17396TIP3    H173603   1.610   0.661   1.192 -0.2024 -0.7868 -0.2939
17396TIP3    H273604   1.468   0.666   1.244  0.0479  0.5108  0.3018
17397TIP3   OH273605   2.930   6.115  15.422  0.0155 -0.0487  0.0399
17397TIP3    H173606   2.972   6.029  15.421 -0.3516 -0.2242 -1.5451
17397TIP3    H273607   2.874   6.113  15.500  1.0644 -0.7130  0.8031
17398TIP3   OH273608   2.649   4.734   0.317  0.2259 -0.0548  0.0003
17398TIP3    H173609   2.683   4.661   0.265  0.1525 -0.1714  0.1157
17398TIP3    H273610   2.574   4.767   0.267 -0.4231 -0.7647  0.4900
17399TIP3   OH273611   5.883   1.073  11.528 -0.1738 -0.2300  0.5929
17399TIP3    H173612   5.829   1.003  11.492  0.5887 -1.2855  1.4389
17399TIP3    H273613   5.835   1.103  11.606 -0.5838  0.3266  0.1371
17400TIP3   OH273614   0.594   3.120  12.783 -0.2290 -0.4875 -0.5136
17400TIP3    H173615   0.661   3.053  12.794 -1.9645 -2.1579  0.6055
17400TIP3    H273616   0.638   3.202  12.805  0.9064 -1.7751  2.5655
17401TIP3   OH273617   2.004   0.737   3.832 -0.2235  0.0518 -0.0633
17401TIP3    H173618   2.066   0.726   3.904 -2.1869 -1.5070  1.5125
17401TIP3    H273619   1.962   0.821   3.850 -0.2662 -0.0349  0.2413
17402TIP3   OH273620   4.976   0.803   0.324  0.1913  0.0310  0.0658
17402TIP3    H173621   5.000   0.710   0.314  0.3900  0.0778  0.1027
17402TIP3    H273622   4.966   0.835   0.234  1.0924  0.2229  0.0256
17403TIP3   OH273623   4.782   5.063   0.206 -0.2510 -0.3371 -0.1393
17403TIP3    H173624   4.751   5.044   0.118  1.5641  1.0278 -1.1594
17403TIP3    H273625   4.875   5.082   0.195  0.3151 -1.3012  2.2735
17404TIP3   OH273626   0.232   2.475   2.676  0.3268 -0.0633 -0.7569
17404TIP3    H173627   0.299   2.406   2.676  0.2194 -0.1681 -0.8962
17404TIP3    H273628   0.174   2.452   2.603 -0.6751 -0.7678  0.2341
17405TIP3   OH273629   1.813   0.478  17.463 -0.6881  0.3047 -0.0545
17405TIP3    H173630   1.782   0.397  17.423 -0.6682  0.7485 -1.0030
17405TIP3    H273631   1.794   0.468  17.556 -1.2234 -0.5448 -0.2452
17406TIP3   OH273632   0.704   6.719  11.094  0.2119  0.0254  0.4139
17406TIP3    H173633   0.661   6.633  11.095 -1.5129  0.8411  0.2681
17406TIP3    H273634   0.741   6.726  11.006 -0.5005 -0.1767  0.0935
17407TIP3   OH273635   5.824   2.452  14.769 -0.7409 -0.8297  0.4255
17407TIP3    H173636   5.752   2.419  14.824 -2.6392  1.6462 -0.3841
17407TIP3    H273637   5.785   2.462  14.683  0.3024  1.3682  0.1383
17408TIP3   OH273638   0.083   5.849   6.095  0.1366 -0.5192  0.6691
17408TIP3    H173639   0.002   5.857   6.044 -0.3303 -0.6534  1.3700
17408TIP3    H273640   0.138   5.789   6.045  0.3656  0.6371 -0.5070
17409TIP3   OH273641   5.279   4.726  12.472 -0.0521 -0.8165  0.3397
17409TIP3    H173642   5.296   4.636  12.498 -1.3982 -1.1665  0.0973
17409TIP3    H273643   5.299   4.729  12.378 -0.2252 -0.9337  0.2976
17410TIP3   OH273644   5.093   6.562   4.955 -0.2044  0.1214 -0.3965
17410TIP3    H173645   5.139   6.573   4.872 -0.0703  0.0544 -0.3324
17410TIP3    H273646   5.162   6.571   5.022  0.1049 -1.9048 -0.3586
17411TIP3   OH273647   6.494   0.894  16.652  0.3155  0.6323  0.5741
17411TIP3    H173648   6.553   0.881  16.727 -0.6647 -2.0333  0.9978
17411TIP3    H273649   6.410   0.861  16.682 -0.3618  0.5053 -1.3529
17412TIP3   OH273650   3.926   6.574   3.735 -0.7324  0.4235 -0.1352
17412TIP3    H173651   4.009   6.608   3.768 -0.4782  0.5271 -0.8838
17412TIP3    H273652   3.860   6.632   3.775 -0.3839  0.9829 -0.3623
17413TIP3   OH273653   2.271   5.219  14.951  0.1923  0.0211 -0.3734
17413TIP3    H173654   2.322   5.253  14.877  0.7883 -0.7249 -0.3240
17413TIP3    H273655   2.285   5.124  14.948 -0.9310 -0.1667 -0.1464
17414TIP3   OH273656   3.799   1.366  15.138 -0.3191 -0.2433  0.2178
17414TIP3    H173657   3.809   1.386  15.231  0.4973  0.8089 -0.0801
17414TIP3    H273658   3.791   1.270  15.135 -1.3643 -0.2232  1.4416
17415TIP3   OH273659   0.825   0.008  12.192  0.0210  0.0756  0.1765
17415TIP3    H173660   0.786  -0.042  12.121  0.2052 -0.3502  0.3756
17415TIP3    H273661   0.838  -0.055  12.263  1.1839  0.1757  0.0742
17416TIP3   OH273662   2.208   5.469   5.163  0.4459 -0.2434 -0.2065
17416TIP3    H173663   2.246   5.514   5.088 -1.0318  0.2695 -0.6949
17416TIP3    H273664   2.230   5.377   5.151 -0.2527 -0.2492 -1.5914
17417TIP3   OH273665   1.690   4.369  12.391  0.0879  0.0894  0.6556
17417TIP3    H173666   1.769   4.336  12.347 -1.1630 -1.8949 -0.2505
17417TIP3    H273667   1.693   4.330  12.478 -0.4643 -0.9694  0.2134
17418TIP3   OH273668   1.363   3.105   3.528  0.1114  0.3296  0.1844
17418TIP3    H173669   1.370   3.064   3.442  1.0749  0.0570  0.3822
17418TIP3    H273670   1.432   3.064   3.580 -0.2038  0.7741  0.9727
17419TIP3   OH273671   0.970   0.585   4.307  1.1001  0.1806  0.6371
17419TIP3    H173672   0.928   0.659   4.351 -0.4132  1.3964 -2.4886
17419TIP3    H273673   0.928   0.508   4.343  1.0622  0.9694  2.3669
17420TIP3   OH273674   0.730   1.663   2.818  0.5190  0.0794 -0.3665
17420TIP3    H173675   0.727   1.599   2.747  2.4613  1.1452 -1.4756
17420TIP3    H273676   0.820   1.662   2.849  0.7351  2.6003 -0.7498
17421TIP3   OH273677   4.499   2.650   6.668  0.5931 -0.2628  0.7055
17421TIP3    H173678   4.440   2.682   6.736 -0.9827  1.2306 -1.2297
17421TIP3    H273679   4.475   2.558   6.655 -1.6747  0.4022 -0.2859
17422TIP3   OH273680   4.443   3.276  11.593  0.6450 -0.3270 -0.4072
17422TIP3    H173681   4.366   3.281  11.536  2.0768  0.7395 -2.3864
17422TIP3    H273682   4.498   3.349  11.565  1.5804  0.0845  2.2206
17423TIP3   OH273683   0.484   0.100   3.882 -0.1224  0.2288  0.2642
17423TIP3    H173684   0.398   0.134   3.856 -0.4645 -1.1599 -0.5283
17423TIP3    H273685   0.466   0.052   3.963 -0.1774 -0.3532 -0.0858
17424TIP3   OH273686   6.193   2.601   3.543 -0.5103  0.8542  0.3688
17424TIP3    H173687   6.101   2.598   3.518 -0.2220  0.1803 -0.6266
17424TIP3    H273688   6.240   2.611   3.461  0.3492  0.4914  0.8085
17425TIP3   OH273689   3.240   5.775   5.776 -0.1213  0.3032  0.1653
17425TIP3    H173690   3.293   5.709   5.821  0.8554  0.7227 -0.3324
17425TIP3    H273691   3.225   5.738   5.688  0.5642  0.8058 -0.1678
17426TIP3   OH273692   6.666   2.130   2.003  0.4452 -0.4852  0.5518
17426TIP3    H173693   6.615   2.209   1.984  0.1498 -0.6938  0.4655
17426TIP3    H273694   6.613   2.059   1.967  0.9539 -0.6770  0.1713
17427TIP3   OH273695   0.212   0.406   2.039 -0.1293 -1.4426  0.7257
17427TIP3    H173696   0.121   0.384   2.018 -0.7573  0.8476  0.8067
17427TIP3    H273697   0.248   0.441   1.957 -0.2174  0.2678  1.3758
17428TIP3   OH273698   4.004   6.043   4.146 -0.2326  0.2492 -0.2334
17428TIP3    H173699   3.968   6.089   4.070  0.2452  1.4774  0.2545
17428TIP3    H273700   3.971   6.093   4.222 -0.6917 -0.9403  0.3846
17429TIP3   OH273701   5.677   4.195  15.461 -0.5315 -1.0283 -0.3741
17429TIP3    H173702   5.685   4.246  15.542 -0.7997 -0.5320 -0.6591
17429TIP3    H273703   5.696   4.257  15.391 -0.5951 -1.3861 -0.7138
17430TIP3   OH273704   5.973   4.140   4.212 -0.0800 -0.8150  0.3396
17430TIP3    H173705   5.926   4.223   4.215  0.0682 -0.7503  2.2800
17430TIP3    H273706   5.910   4.075   4.242  1.0056 -0.6789  3.3119
17431TIP3   OH273707   0.956   5.236   6.407  0.2641 -0.4281 -0.1691
17431TIP3    H173708   0.976   5.266   6.496  1.2076 -0.6323 -0.3055
17431TIP3    H273709   1.026   5.174   6.385  0.0771 -0.3436 -1.0710
17432TIP3   OH273710   0.253   4.285   2.435 -0.2216  0.2348 -0.2738
17432TIP3    H173711   0.266   4.329   2.519 -0.4813 -0.2878  0.0459
17432TIP3    H273712   0.160   4.292   2.418 -0.0654  0.9635 -0.8758
17433TIP3   OH273713   2.102   3.093  17.222  0.2548  0.0147 -0.1370
17433TIP3    H173714   2.055   3.119  17.301  1.1027  0.6045  0.1933
17433TIP3    H273715   2.159   3.021  17.251  2.9423  2.2613  0.6471
17434TIP3   OH273716   1.630   4.485   0.152  0.0505  0.6016  0.3570
17434TIP3    H173717   1.566   4.414   0.151  0.0504  0.5976 -0.4314
17434TIP3    H273718   1.678   4.474   0.233  1.9519 -2.0202 -1.0032
17435TIP3   OH273719   1.841   1.359  12.376  1.1059  0.7806 -0.4729
17435TIP3    H173720   1.846   1.449  12.344  0.7501  0.9314 -0.1113
17435TIP3    H273721   1.919   1.317  12.340  1.4554  1.3215 -0.3689
17436TIP3   OH273722   3.564   4.018  15.201  0.5425 -0.2074  0.2804
17436TIP3    H173723   3.509   4.044  15.128  0.2017 -0.4975  0.4302
17436TIP3    H273724   3.616   4.096  15.221  1.1900 -0.3673 -0.7591
17437TIP3   OH273725   2.358   0.402  12.811 -0.0173  0.2374  0.2511
17437TIP3    H173726   2.416   0.355  12.871  0.0230 -2.2237 -1.5548
17437TIP3    H273727   2.276   0.352  12.814 -0.8787  1.5912  0.1144
17438TIP3   OH273728   2.352   0.236  15.986  0.1558  0.6366 -0.3017
17438TIP3    H173729   2.399   0.162  15.949 -0.6144  0.4802 -0.9996
17438TIP3    H273730   2.279   0.197  16.034 -0.3138  0.9393 -0.7579
17439TIP3   OH273731   1.139   6.253   4.453 -0.1144 -0.3379 -0.5789
17439TIP3    H173732   1.105   6.342   4.454  1.5601  0.3589  1.4065
17439TIP3    H273733   1.109   6.217   4.370 -2.7012  1.3054 -0.4775
17440TIP3   OH273734   0.898   4.604  11.890 -0.3740 -0.0747  0.0351
17440TIP3    H173735   0.892   4.685  11.839 -1.0353  0.9856  1.7125
17440TIP3    H273736   0.949   4.628  11.967  1.2415 -1.8320 -0.4094
17441TIP3   OH273737   4.685   6.594  15.722  0.2985 -0.1793  0.0319
17441TIP3    H173738   4.697   6.502  15.700 -1.2032 -0.2787 -0.4891
17441TIP3    H273739   4.606   6.596  15.777 -0.1829  0.8803 -0.6544
17442TIP3   OH273740   4.745   2.505   2.064 -0.1907 -0.7840  0.0077
17442TIP3    H173741   4.739   2.590   2.106  0.2477 -0.2845 -0.9100
17442TIP3    H273742   4.838   2.494   2.043 -0.1279 -1.7993  0.7335
17443TIP3   OH273743   2.090   5.296  17.119  0.3395 -0.1522  0.4570
17443TIP3    H173744   2.074   5.249  17.037 -1.6000  1.3153 -0.0789
17443TIP3    H273745   2.182   5.322  17.114  0.3057 -0.2411 -1.2019
17444TIP3   OH273746   4.469   3.912   0.718  0.2633 -0.7126 -0.5114
17444TIP3    H173747   4.437   3.845   0.657 -1.5758 -1.7390  1.4415
17444TIP3    H273748   4.401   3.980   0.716  0.4002 -0.5544  0.0685
17445TIP3   OH273749   4.244   5.080   4.376 -0.4576  0.1730 -0.0604
17445TIP3    H173750   4.187   5.078   4.300  0.1158  0.5086 -0.5118
17445TIP3    H273751   4.188   5.108   4.449 -0.7386  1.0716 -0.6094
17446TIP3   OH273752   5.855   2.117   5.495 -0.7699 -0.5050  0.0173
17446TIP3    H173753   5.827   2.138   5.584 -1.4511  2.9010 -0.8879
17446TIP3    H273754   5.948   2.095   5.504 -0.9487 -0.7065  1.6150
17447TIP3   OH273755   6.537   1.308   4.812 -0.0022 -0.1982  0.3005
17447TIP3    H173756   6.485   1.345   4.884 -0.9170 -1.9901  0.6300
17447TIP3    H273757   6.589   1.381   4.781 -0.3584  0.9046  2.0911
17448TIP3   OH273758   5.907   4.205   2.540 -0.0986 -0.1255 -0.4713
17448TIP3    H173759   5.981   4.171   2.490  0.7357  2.0788 -0.8404
17448TIP3    H273760   5.945   4.231   2.624 -0.4550  0.8600 -0.6003
17449TIP3   OH273761   0.043   4.128  12.911  0.0377  0.5417  0.1145
17449TIP3    H173762   0.125   4.156  12.954 -0.7376  2.0554  0.7088
17449TIP3    H273763  -0.018   4.114  12.984 -0.1959 -0.7259 -0.3160
17450TIP3   OH273764   0.666   0.608   2.999  0.4321 -0.1349 -0.2144
17450TIP3    H173765   0.739   0.669   3.010  0.7706 -0.5329 -0.2245
17450TIP3    H273766   0.587   0.663   3.004  0.7342  0.3111 -0.3081
17451TIP3   OH273767   1.948   6.281  12.465 -0.0417 -0.1330  0.2512
17451TIP3    H173768   1.883   6.305  12.531 -0.2077  0.3833 -0.0949
17451TIP3    H273769   1.907   6.305  12.382  0.0376 -1.0653 -0.0608
17452TIP3   OH273770   6.532   3.118  11.520 -0.7953 -0.1516  0.2030
17452TIP3    H173771   6.620   3.155  11.526 -0.2118 -1.2370 -1.1244
17452TIP3    H273772   6.522   3.066  11.600 -0.7222  0.9307  0.9399
17453TIP3   OH273773   3.211   1.891   2.730 -0.3147 -0.1102  0.0364
17453TIP3    H173774   3.226   1.981   2.758 -0.1075  0.2972 -1.3489
17453TIP3    H273775   3.234   1.838   2.807  1.3962  0.8984  0.2558
17454TIP3   OH273776   2.425   4.560   4.190  0.1719  0.4000 -0.0122
17454TIP3    H173777   2.487   4.576   4.118  0.0355  1.6234  0.1260
17454TIP3    H273778   2.340   4.555   4.146  0.3140 -0.9590 -0.1644
17455TIP3   OH273779   4.297   5.540   1.696 -0.1344  0.7543  0.8942
17455TIP3    H173780   4.344   5.465   1.733 -0.2683  0.0291 -0.3556
17455TIP3    H273781   4.236   5.566   1.765 -1.0803 -1.2032  0.8592
17456TIP3   OH273782   6.369   0.772  15.019 -0.1668  0.0760  0.3614
17456TIP3    H173783   6.380   0.817  14.935  0.1174 -0.7990 -0.0945
17456TIP3    H273784   6.438   0.807  15.075  0.7138 -0.5227 -0.3163
17457TIP3   OH273785   3.916   4.364  17.095  0.6346 -0.3845  0.6807
17457TIP3    H173786   3.921   4.351  17.000 -0.3565 -1.4587  0.7387
17457TIP3    H273787   3.999   4.405  17.118  1.0112 -0.3545 -0.6118
17458TIP3   OH273788   6.397   4.717   3.865  0.2967 -0.0354 -0.2316
17458TIP3    H173789   6.477   4.769   3.868  1.0027 -1.0256 -0.9156
17458TIP3    H273790   6.417   4.639   3.916 -0.4258 -0.0441  0.0466
17459TIP3   OH273791   2.839   1.907   2.021 -0.6671  0.8031  0.0414
17459TIP3    H173792   2.751   1.928   2.049 -1.3030 -1.8861  0.3681
17459TIP3    H273793   2.828   1.864   1.936  0.2965  0.3728  0.1147
17460TIP3   OH273794   2.587   2.434   0.067 -0.2235  0.1117 -0.4326
17460TIP3    H173795   2.609   2.511   0.119  1.4952 -0.7954  0.2613
17460TIP3    H273796   2.596   2.360   0.127  2.5517 -1.0519 -2.0643
17461TIP3   OH273797   5.423   3.662  15.034 -0.2890 -0.7520  0.3769
17461TIP3    H173798   5.334   3.630  15.013 -0.8564  0.4578  0.8636
17461TIP3    H273799   5.473   3.647  14.953 -1.7860  1.5407 -1.0819
17462TIP3   OH273800   3.062   4.552  17.287 -0.2776  0.0856 -0.4164
17462TIP3    H173801   3.106   4.633  17.311  0.0752 -0.2510  0.1028
17462TIP3    H273802   3.128   4.502  17.238 -0.0930 -0.3933  0.3104
17463TIP3   OH273803   1.341   2.922   0.843 -0.0151 -0.1751  0.7267
17463TIP3    H173804   1.364   2.859   0.911  0.4469 -0.6228  0.1763
17463TIP3    H273805   1.305   2.997   0.890  0.0600 -0.5750  1.4398
17464TIP3   OH273806   1.305   4.738  16.945  0.4097  0.1460 -0.6086
17464TIP3    H173807   1.368   4.696  17.004  0.4194  1.6791  0.5393
17464TIP3    H273808   1.359   4.783  16.881  0.4024 -2.1759 -2.3910
17465TIP3   OH273809   4.442   2.900   4.633  0.6863 -0.1375 -0.7842
17465TIP3    H173810   4.519   2.865   4.677 -1.3800 -3.6514  0.5322
17465TIP3    H273811   4.382   2.925   4.704 -0.4858 -0.3153 -1.6686
17466TIP3   OH273812   3.551   3.427  17.002 -0.1052  0.3642 -0.3448
17466TIP3    H173813   3.614   3.389  16.940 -1.6521  0.5150 -2.0682
17466TIP3    H273814   3.505   3.351  17.038  1.5703  0.1827  1.5906
17467TIP3   OH273815   4.695   3.413  13.946 -0.1463 -0.0856  0.2225
17467TIP3    H173816   4.709   3.408  14.041 -0.2109 -2.7918  0.1609
17467TIP3    H273817   4.756   3.349  13.909  0.9564  1.9520 -1.7570
17468TIP3   OH273818   1.607   3.647  11.411  0.3426  0.2139 -0.1947
17468TIP3    H173819   1.530   3.703  11.418 -1.2643 -1.9365  0.2560
17468TIP3    H273820   1.638   3.660  11.321 -0.6485  0.9567 -0.4461
17469TIP3   OH273821   3.603   3.731   5.946  0.1864 -0.1772 -0.0062
17469TIP3    H173822   3.606   3.748   6.040 -1.0456  0.3647 -0.0341
17469TIP3    H273823   3.693   3.710   5.921  1.0214  2.0147  0.8701
17470TIP3   OH273824   5.321   3.669   2.860 -0.3635  0.9669  0.2581
17470TIP3    H173825   5.358   3.738   2.916  1.1418  0.4089  0.0149
17470TIP3    H273826   5.380   3.666   2.784 -1.4100  0.5771 -0.5698
17471TIP3   OH273827   4.317   3.310  15.874 -0.0888 -0.0138 -0.3785
17471TIP3    H173828   4.403   3.331  15.840  0.5074 -0.9020  0.5068
17471TIP3    H273829   4.259   3.378  15.839  0.3316 -1.1435 -3.6190
17472TIP3   OH273830   5.272   2.896   5.276 -0.0973  0.4194 -0.1682
17472TIP3    H173831   5.247   2.972   5.223 -0.3293  0.6198  0.2251
17472TIP3    H273832   5.353   2.864   5.236  0.1113  0.9970 -0.2122
17473TIP3   OH273833   2.534   6.141  15.390  0.2799 -0.7839 -0.1962
17473TIP3    H173834   2.580   6.080  15.331 -1.3212  0.3654 -2.8064
17473TIP3    H273835   2.456   6.168  15.341 -1.1397  0.3569  2.4687
17474TIP3   OH273836   0.853   4.945   6.153 -0.2783 -0.3477 -0.0879
17474TIP3    H173837   0.846   5.040   6.149  1.7764 -0.1788 -1.1269
17474TIP3    H273838   0.834   4.924   6.245 -3.0725  0.7567 -0.3209
17475TIP3   OH273839   6.444   3.018   0.697 -0.3450  0.1004  0.1368
17475TIP3    H173840   6.509   3.001   0.765  0.8172 -0.4132 -1.0441
17475TIP3    H273841   6.373   3.063   0.742  1.3581  1.8263  1.2820
17476TIP3   OH273842   4.802   0.426  15.865 -0.3947  0.0952 -0.3055
17476TIP3    H173843   4.723   0.450  15.912 -0.0384  0.4322  0.1267
17476TIP3    H273844   4.811   0.493  15.797 -1.2099 -0.6961 -1.2363
17477TIP3   OH273845   2.318   4.836  17.216  0.1942  0.0402 -0.4719
17477TIP3    H173846   2.399   4.798  17.249  1.3268  0.7672 -2.2533
17477TIP3    H273847   2.310   4.919  17.264 -0.0977 -0.5071  0.4637
17478TIP3   OH273848   3.700   1.697   2.170 -0.1918 -0.7886  0.6102
17478TIP3    H173849   3.737   1.619   2.212 -0.3385 -1.4557 -0.4578
17478TIP3    H273850   3.607   1.677   2.160 -0.1073 -0.7665 -0.2800
17479TIP3   OH273851   4.092   6.117  11.042  0.5567  0.0764 -0.2819
17479TIP3    H173852   4.042   6.038  11.022 -0.4561  0.7481 -0.4777
17479TIP3    H273853   4.059   6.182  10.979 -1.2051  1.6651  2.1043
17480TIP3   OH273854   6.200   4.656  16.939 -0.2947  0.0354 -0.2911
17480TIP3    H173855   6.245   4.722  16.991  0.5189  0.7384 -1.8197
17480TIP3    H273856   6.110   4.686  16.933  0.0637  1.0259 -0.9528
17481TIP3   OH273857   3.489   0.095   1.497  0.0965 -0.1912 -0.0797
17481TIP3    H173858   3.412   0.042   1.475 -0.4286  0.1400  0.9138
17481TIP3    H273859   3.536   0.105   1.413 -0.0179 -1.8390 -0.3918
17482TIP3   OH273860   1.815   3.166  15.248  0.5405 -0.4214  0.1802
17482TIP3    H173861   1.805   3.226  15.322  3.7003  0.5451 -0.0466
17482TIP3    H273862   1.817   3.079  15.288  1.5545  0.0449  1.2148
17483TIP3   OH273863   1.333   2.995   2.049 -0.5465 -0.4179 -0.2232
17483TIP3    H173864   1.291   2.967   2.131  1.2176  1.5142  1.4741
17483TIP3    H273865   1.423   2.963   2.057  1.2440  4.1087  1.2794
17484TIP3   OH273866   0.475   5.010  13.102  0.7004  0.4588 -0.0625
17484TIP3    H173867   0.436   5.079  13.155  1.7932  0.7907  0.3307
17484TIP3    H273868   0.569   5.025  13.109  0.9741 -1.3516  0.3991
17485TIP3   OH273869   3.804   1.570   1.142 -0.5023  0.4082 -0.3219
17485TIP3    H173870   3.780   1.488   1.098 -0.5458  0.3665 -0.2193
17485TIP3    H273871   3.857   1.543   1.216 -1.7151  0.3740  0.5624
17486TIP3   OH273872   3.485   1.203   1.152 -0.7428  0.2122 -0.1282
17486TIP3    H173873   3.492   1.293   1.183 -3.1800  0.6132 -0.5502
17486TIP3    H273874   3.483   1.211   1.056  1.9292 -0.6123 -0.3549
17487TIP3   OH273875   2.467   2.503   2.551  0.1457  0.1780 -0.3130
17487TIP3    H173876   2.399   2.561   2.515  0.0331  0.3094  0.1120
17487TIP3    H273877   2.506   2.553   2.622 -0.3610 -0.5005  0.4512
17488TIP3   OH273878   5.492   4.497  13.133  0.3189  0.3269  0.5333
17488TIP3    H173879   5.532   4.529  13.214 -0.1640 -1.0422  1.3333
17488TIP3    H273880   5.407   4.464  13.159  0.0664  0.0593 -0.5815
17489TIP3   OH273881   1.446   5.405   5.800  0.0411 -0.8782 -0.1987
17489TIP3    H173882   1.382   5.475   5.788  1.6741  0.6617 -0.2070
17489TIP3    H273883   1.491   5.427   5.882  1.8539 -0.8382 -1.1512
17490TIP3   OH273884   1.267   0.895   5.966 -0.1680  0.1026  0.2992
17490TIP3    H173885   1.228   0.908   6.053 -1.5807  0.9412 -0.4337
17490TIP3    H273886   1.337   0.960   5.961  0.9920 -0.9971  1.3838
17491TIP3   OH273887   3.110   2.234  16.888 -0.1077  0.7656  0.1008
17491TIP3    H173888   3.035   2.249  16.831 -2.7210  0.2669  3.1204
17491TIP3    H273889   3.152   2.320  16.897  0.1679  0.9102 -2.1442
17492TIP3   OH273890   3.194   2.276  14.883  0.1011 -0.1865 -0.8482
17492TIP3    H173891   3.138   2.207  14.847 -1.0607 -0.3908  1.1979
17492TIP3    H273892   3.138   2.323  14.944  1.5770  0.9984 -0.3385
17493TIP3   OH273893   3.392   0.796   5.669  0.2573  0.3059 -0.1988
17493TIP3    H173894   3.400   0.777   5.763  2.7086 -0.1846 -0.4365
17493TIP3    H273895   3.301   0.824   5.658 -0.3013 -0.3216  2.1841
17494TIP3   OH273896   6.416   4.231  15.678 -0.1823  0.6809 -0.1588
17494TIP3    H173897   6.504   4.250  15.645 -1.0901  0.8373 -2.7100
17494TIP3    H273898   6.388   4.313  15.718  1.2177  0.2847  1.7932
17495TIP3   OH273899   2.173   2.711   1.697 -0.9776  0.3191  0.0952
17495TIP3    H173900   2.154   2.644   1.763 -0.7740 -0.5644 -0.7244
17495TIP3    H273901   2.094   2.715   1.644  0.0251 -1.4317 -1.6705
17496TIP3   OH273902   2.456   5.631  16.118 -0.0425  0.2169  0.1460
17496TIP3    H173903   2.478   5.700  16.056  0.8939  0.9387  1.2248
17496TIP3    H273904   2.361   5.623  16.115 -0.4882  3.4069  1.8426
17497TIP3   OH273905   3.117   0.751   3.801  0.0503  0.6604 -0.2166
17497TIP3    H173906   3.022   0.749   3.804 -0.1378  0.3166 -3.0825
17497TIP3    H273907   3.143   0.807   3.874 -2.3409  0.9801  0.4622
17498TIP3   OH273908   5.102   2.125  11.407 -0.2549 -0.2497  0.2348
17498TIP3    H173909   5.076   2.134  11.315 -2.6023 -0.3187  0.8154
17498TIP3    H273910   5.172   2.060  11.407  0.0394  0.0284 -1.5348
17499TIP3   OH273911   4.083   1.081   5.108  0.3950 -0.0729  0.1386
17499TIP3    H173912   4.104   1.134   5.030  1.4099  0.0091  0.4479
17499TIP3    H273913   3.989   1.065   5.101  0.3763  0.3497 -0.8487
17500TIP3   OH273914   6.542   5.867   3.240  0.1008 -0.1114  0.2155
17500TIP3    H173915   6.469   5.888   3.182  1.4331  1.7898 -0.8906
17500TIP3    H273916   6.620   5.886   3.188  1.3884 -0.7870  1.8097
17501TIP3   OH273917   3.239   0.174   4.853 -0.9755 -0.4557 -0.3357
17501TIP3    H173918   3.296   0.141   4.922 -0.8403  1.9035  0.7803
17501TIP3    H273919   3.151   0.170   4.890 -1.1048 -0.6455 -0.6548
17502TIP3   OH273920   1.194   1.708   1.275  0.5564 -0.3019  0.1660
17502TIP3    H173921   1.169   1.626   1.318 -0.6234  0.7260  1.5352
17502TIP3    H273922   1.114   1.760   1.274  1.3111  0.8891 -0.5866
17503TIP3   OH273923   5.577   0.298  12.498 -0.6017  0.5278  0.1319
17503TIP3    H173924   5.581   0.341  12.412  1.5852  0.4922  0.1499
17503TIP3    H273925   5.621   0.359  12.557 -3.3617  1.2188  1.5943
17504TIP3   OH273926   6.574   3.424  12.351 -0.7134 -0.3176 -0.4282
17504TIP3    H173927   6.501   3.362  12.347  0.4551 -1.7020 -1.2652
17504TIP3    H273928   6.579   3.450  12.443 -0.2062 -2.7740  0.2968
17505TIP3   OH273929   4.253   4.018   3.095 -0.3116  0.5122  0.2769
17505TIP3    H173930   4.277   4.037   3.005  1.6594 -0.2293  0.5859
17505TIP3    H273931   4.288   3.930   3.111 -1.1405  0.3871  1.5878
17506TIP3   OH273932   1.117   2.095   4.105 -0.2637 -1.1070 -0.0095
17506TIP3    H173933   1.106   2.183   4.067  0.7172  0.0220  2.1137
17506TIP3    H273934   1.028   2.065   4.122 -0.6509  0.9642  2.2445
17507TIP3   OH273935   5.956   4.362  11.027  0.4666  0.1954 -0.4441
17507TIP3    H173936   5.959   4.366  11.123 -0.4586 -0.0654 -0.3918
17507TIP3    H273937   5.910   4.281  11.008 -1.3918  1.3301 -1.0618
17508TIP3   OH273938   6.010   3.227   5.024  0.1435 -0.0219 -0.0895
17508TIP3    H173939   6.066   3.288   4.976  2.7073 -1.6621  0.6008
17508TIP3    H273940   5.930   3.222   4.972  2.0872 -0.4387 -3.3357
17509TIP3   OH273941   0.813   1.156  12.818 -0.0042 -0.2296 -0.3709
17509TIP3    H173942   0.816   1.217  12.744  2.2181 -1.1009 -1.1080
17509TIP3    H273943   0.790   1.072  12.779 -0.2708 -0.4123  0.1682
17510TIP3   OH273944   5.491   3.344  15.041 -0.2305 -0.3960  0.1039
17510TIP3    H173945   5.537   3.410  14.989 -0.4602  0.4154  0.9203
17510TIP3    H273946   5.532   3.348  15.127 -1.3422 -0.1722  0.6327
17511TIP3   OH273947   2.185   4.715  11.865  0.4617 -0.5236  0.3800
17511TIP3    H173948   2.143   4.780  11.923 -2.4068  1.7094 -3.6916
17511TIP3    H273949   2.270   4.754  11.844 -0.8706  1.7105 -1.3346
17512TIP3   OH273950   3.223   2.925   0.121  0.1214 -0.0213 -0.4590
17512TIP3    H173951   3.287   2.996   0.120 -0.0081  0.1121  0.2512
17512TIP3    H273952   3.272   2.848   0.149  0.0664 -0.0191 -0.3574
17513TIP3   OH273953   0.658   1.173   1.602 -0.3898 -0.0990  0.4728
17513TIP3    H173954   0.727   1.218   1.553 -0.1816 -2.0821 -1.1836
17513TIP3    H273955   0.650   1.223   1.683  1.7316  1.2407 -0.0612
17514TIP3   OH273956   5.089   1.479   5.531  0.4162  0.2932  0.3653
17514TIP3    H173957   5.135   1.552   5.572  0.3202  1.0239 -0.7877
17514TIP3    H273958   5.142   1.457   5.454  0.0338 -0.3435  0.2756
17515TIP3   OH273959   2.899   4.970   4.402  0.5285 -0.1763 -0.4633
17515TIP3    H173960   2.977   5.018   4.374  0.5925 -0.4221 -0.7212
17515TIP3    H273961   2.877   4.915   4.326  0.7610 -0.9287  0.0028
17516TIP3   OH273962   6.378   0.866  16.335  0.1664  0.3145 -0.3372
17516TIP3    H173963   6.367   0.801  16.405 -0.8984  1.0327  0.1821
17516TIP3    H273964   6.313   0.841  16.269  1.6031 -0.7552 -1.4241
17517TIP3   OH273965   4.238   5.424  11.808  0.5086  0.2059  0.1569
17517TIP3    H173966   4.254   5.443  11.716  0.8622  0.6781  0.3116
17517TIP3    H273967   4.143   5.419  11.816  0.4413  0.9561 -0.0824
17518TIP3   OH273968   6.203   1.878   0.099 -0.6228  0.2771 -0.8307
17518TIP3    H173969   6.136   1.915   0.041  0.5090  0.8397 -1.8138
17518TIP3    H273970   6.236   1.952   0.149 -1.2152 -0.1184  0.1843
17519TIP3   OH273971   1.557   0.278   2.159  0.2251 -0.3178 -0.1455
17519TIP3    H173972   1.493   0.348   2.171  1.9169  1.1674  0.6345
17519TIP3    H273973   1.512   0.199   2.188 -1.1208  0.7279  0.7342
17520TIP3   OH273974   5.639   4.387   2.119 -0.1493 -0.0491  0.3321
17520TIP3    H173975   5.565   4.392   2.180  0.6438  0.5648  1.2919
17520TIP3    H273976   5.650   4.477   2.087 -0.8043 -0.4382 -1.0535
17521TIP3   OH273977   5.610   0.689   5.105  0.5731 -0.1956 -0.5681
17521TIP3    H173978   5.569   0.775   5.098  1.4100  0.2350 -0.2258
17521TIP3    H273979   5.536   0.628   5.108 -0.0261  0.4329 -1.6503
17522TIP3   OH273980   5.738   2.880   3.757  0.2178  0.0995 -0.0893
17522TIP3    H173981   5.788   2.932   3.694 -1.5540  0.7490 -1.0252
17522TIP3    H273982   5.677   2.941   3.796 -1.7659 -1.1517 -1.0475
17523TIP3   OH273983   2.908   0.846  15.891  0.1740  0.0785  0.3676
17523TIP3    H173984   2.819   0.856  15.859  0.6084  0.0821 -0.8940
17523TIP3    H273985   2.910   0.896  15.973 -0.3640  2.1113 -0.7737
17524TIP3   OH273986   4.187   0.672  13.077 -0.1576  0.0802 -0.3708
17524TIP3    H173987   4.275   0.711  13.074 -0.9659  2.4950  2.5371
17524TIP3    H273988   4.135   0.725  13.018 -0.0482 -0.3484 -0.8661
17525TIP3   OH273989   2.306   1.142   4.029 -0.0282 -0.2619 -0.1111
17525TIP3    H173990   2.225   1.103   4.063 -0.0713  0.4304  0.5905
17525TIP3    H273991   2.342   1.190   4.103 -0.1206  1.2846 -1.0397
17526TIP3   OH273992   4.084   6.078   4.695 -0.0387  0.3758 -0.1607
17526TIP3    H173993   4.022   6.150   4.707  0.3569  0.4938  1.3193
17526TIP3    H273994   4.115   6.058   4.783  1.8594  0.1666 -0.8435
17527TIP3   OH273995   3.403   5.844   0.944 -0.1073 -0.5095  0.0056
17527TIP3    H173996   3.409   5.750   0.924  1.8100 -0.3613 -0.2679
17527TIP3    H273997   3.377   5.884   0.861 -1.2106 -0.7876  0.1898
17528TIP3   OH273998   0.715   0.899  12.775  0.3152 -1.1180 -0.2153
17528TIP3    H173999   0.794   0.850  12.798 -0.2323 -1.6466  0.6176
17528TIP3    H274000   0.655   0.883  12.848 -0.1821  0.1320 -0.3191
17529TIP3   OH274001   2.485   4.835  13.336 -0.5214  0.2900  0.6497
17529TIP3    H174002   2.532   4.764  13.292  0.4268  0.7521  0.8942
17529TIP3    H274003   2.464   4.897  13.266  0.5134  0.7670  0.7416
17530TIP3   OH274004   1.811   1.124  17.071  0.2569 -0.0309  0.3610
17530TIP3    H174005   1.807   1.215  17.100  0.8173 -0.4649  1.9334
17530TIP3    H274006   1.779   1.125  16.981  0.9291  1.8150  0.1146
17531TIP3   OH274007   5.958   0.661   4.741  0.0194 -0.4434  0.0043
17531TIP3    H174008   5.950   0.573   4.777 -3.7572  0.8405  3.0587
17531TIP3    H274009   5.945   0.719   4.816 -0.2383  2.6870 -2.2581
17532TIP3   OH274010   2.705   4.219  17.182 -0.2234  0.6888  0.5178
17532TIP3    H174011   2.759   4.279  17.132 -1.5035  1.2094 -0.2893
17532TIP3    H274012   2.702   4.256  17.270  1.1060  0.3822  0.7103
17533TIP3   OH274013   4.031   4.342  10.759  0.3306  0.0669 -0.3605
17533TIP3    H174014   3.953   4.359  10.812 -0.2028 -2.3422 -0.2371
17533TIP3    H274015   4.092   4.300  10.820  0.8536 -0.0832 -0.9785
17534TIP3   OH274016   0.964   5.079  11.037 -0.1521 -0.2391 -0.2139
17534TIP3    H174017   0.951   5.159  10.986 -1.0968  0.0014  0.3817
17534TIP3    H274018   1.007   5.019  10.977  1.9938  1.1989 -0.2463
17535TIP3   OH274019   0.035   0.274  15.560 -0.0462  0.2264  0.9367
17535TIP3    H174020   0.014   0.349  15.614 -0.8446  0.8484 -0.1883
17535TIP3    H274021  -0.047   0.225  15.553 -0.1963  0.6038 -0.3451
17536TIP3   OH274022   6.577   0.150  13.871 -0.1131 -0.4491  0.5884
17536TIP3    H174023   6.640   0.222  13.882 -1.3703  0.9550 -0.8548
17536TIP3    H274024   6.625   0.072  13.898  1.8636  0.7087  0.6421
17537TIP3   OH274025   3.272   2.781  11.952 -0.0409  0.1840 -0.2850
17537TIP3    H174026   3.209   2.740  11.893  0.3359 -0.0388 -0.5413
17537TIP3    H274027   3.356   2.775  11.905 -0.2492  2.9234 -1.2051
17538TIP3   OH274028   6.061   0.299   6.483  0.2240 -0.4805  0.2214
17538TIP3    H174029   6.041   0.336   6.569 -0.6623 -1.2984  0.3913
17538TIP3    H274030   6.142   0.251   6.495  0.7058  0.3345  0.3092
17539TIP3   OH274031   3.674   3.493  16.482 -0.1385 -0.6060  0.0865
17539TIP3    H174032   3.715   3.502  16.568 -1.3294  0.4068  0.5618
17539TIP3    H274033   3.652   3.400  16.476 -0.5734 -0.5774  1.1145
17540TIP3   OH274034   1.195   5.983   5.548 -0.5553 -0.2136 -0.4503
17540TIP3    H174035   1.212   5.921   5.618 -2.2908  0.9060  1.0822
17540TIP3    H274036   1.272   6.039   5.545 -0.3027 -0.5084  0.3371
17541TIP3   OH274037   6.145   1.474   3.430  0.1148 -0.0398  0.6550
17541TIP3    H174038   6.199   1.418   3.375 -0.8068 -1.7359  1.3981
17541TIP3    H274039   6.108   1.539   3.369  0.6172 -0.6942 -0.3775
17542TIP3   OH274040   3.590   4.576   6.607  0.0392 -0.1793  0.0253
17542TIP3    H174041   3.502   4.547   6.583 -0.5255 -0.9058  2.6314
17542TIP3    H274042   3.581   4.605   6.698  2.0577  1.8749 -0.3389
17543TIP3   OH274043   5.356   1.574  16.914 -0.2108  0.0852  0.2355
17543TIP3    H174044   5.444   1.591  16.882 -0.2316  0.7221  0.5097
17543TIP3    H274045   5.368   1.545  17.004 -0.1832 -1.2904 -0.1843
17544TIP3   OH274046   3.498   3.676  12.726  0.5774  0.9893 -0.1094
17544TIP3    H174047   3.551   3.756  12.730  1.8510  0.1593  0.0581
17544TIP3    H274048   3.556   3.611  12.686  0.4063 -0.4837  1.8660
17545TIP3   OH274049   6.048   3.447   3.490 -0.0291  0.0940 -0.3450
17545TIP3    H174050   6.005   3.531   3.478 -0.1161  0.4677  2.1608
17545TIP3    H274051   6.037   3.426   3.583  1.4004 -1.9068 -0.5402
17546TIP3   OH274052   6.464   4.000   0.696  0.4304  0.1766  0.3395
17546TIP3    H174053   6.485   4.010   0.789  0.0574 -0.4406  0.4977
17546TIP3    H274054   6.408   4.075   0.675  1.5845  1.0463  0.2703
17547TIP3   OH274055   0.123   3.083   0.726 -0.2360 -0.3392 -0.7434
17547TIP3    H174056   0.114   3.020   0.655  0.8691 -0.0136 -1.1846
17547TIP3    H274057   0.036   3.086   0.767 -1.0736 -0.0773 -2.4516
17548TIP3   OH274058   4.268   0.472  15.332  0.4500 -0.4275  0.2866
17548TIP3    H174059   4.249   0.380  15.353 -1.7975 -0.3289 -0.9656
17548TIP3    H274060   4.185   0.517  15.348  0.4305  0.7144 -2.4594
17549TIP3   OH274061   4.622   2.343  11.715 -0.5485 -0.1718  0.0150
17549TIP3    H174062   4.634   2.414  11.778 -1.6558 -0.0004  0.0607
17549TIP3    H274063   4.698   2.347  11.658 -0.0432  0.3268  0.7177
17550TIP3   OH274064   3.902   0.394  10.808 -0.2160 -0.5659 -0.8282
17550TIP3    H174065   3.836   0.346  10.758  0.8823 -1.7344 -1.2017
17550TIP3    H274066   3.857   0.473  10.837 -2.6694 -2.5349  1.2752
17551TIP3   OH274067   0.095   2.982  13.798 -0.3547 -0.3274  0.2913
17551TIP3    H174068   0.014   2.999  13.847 -1.6907  0.1794 -1.9634
17551TIP3    H274069   0.108   2.887  13.806 -2.8387 -0.9220 -1.6445
17552TIP3   OH274070   3.033   6.385  14.551  0.1243  0.3592  0.2994
17552TIP3    H174071   3.019   6.462  14.606 -1.1945 -0.4077  1.1023
17552TIP3    H274072   2.956   6.330  14.567  2.0630 -2.2061  1.5651
17553TIP3   OH274073   0.002   5.077  11.617 -0.0451  0.1426 -0.1016
17553TIP3    H174074  -0.036   5.006  11.566 -0.1336 -0.7062  1.0910
17553TIP3    H274075  -0.031   5.062  11.706 -0.8657  2.2527 -0.0078
17554TIP3   OH274076   5.479   1.104   0.413  0.1772 -0.3926 -0.3966
17554TIP3    H174077   5.448   1.100   0.504 -1.1195  0.7318 -0.7489
17554TIP3    H274078   5.563   1.058   0.414 -0.0888 -0.9059  1.2487
17555TIP3   OH274079   2.117   2.814   5.216 -0.2515 -0.3493 -0.5072
17555TIP3    H174080   2.175   2.884   5.188 -1.1327  0.9985  0.9016
17555TIP3    H274081   2.069   2.851   5.290 -1.4575 -2.1096 -0.3635
17556TIP3   OH274082   3.801   4.382  13.756 -0.0363  0.5130  0.6054
17556TIP3    H174083   3.727   4.322  13.760 -0.4336  1.0324  1.5231
17556TIP3    H274084   3.764   4.464  13.722 -0.1114  1.0706  1.9762
17557TIP3   OH274085   3.162   0.388  11.351  0.8453  0.4413  0.2227
17557TIP3    H174086   3.123   0.351  11.430 -0.6000  1.9194  0.2348
17557TIP3    H274087   3.243   0.429  11.382 -0.3255  2.1080  1.2104
17558TIP3   OH274088   1.215   0.689   3.778  0.2008  0.0572 -0.1704
17558TIP3    H174089   1.122   0.692   3.799  0.4747 -1.4167  1.5354
17558TIP3    H274090   1.219   0.665   3.686 -1.0930  1.2856 -0.5761
17559TIP3   OH274091   2.849   3.884   6.812 -0.0878 -0.3910  0.2306
17559TIP3    H174092   2.866   3.953   6.876 -0.0752 -0.2347  0.0609
17559TIP3    H274093   2.821   3.809   6.864  1.4505 -0.7750  0.5750
17560TIP3   OH274094   6.297   1.821  15.108  0.0009  0.0434 -0.0930
17560TIP3    H174095   6.233   1.750  15.106 -0.4152  0.3829  0.6821
17560TIP3    H274096   6.318   1.831  15.201  2.6394 -1.3483 -0.4353
17561TIP3   OH274097   2.817   6.283  13.586  0.1936 -0.1400  0.2897
17561TIP3    H174098   2.835   6.208  13.642 -0.3859 -2.0546 -1.9011
17561TIP3    H274099   2.903   6.309  13.553  0.2705 -0.8643 -0.1101
17562TIP3   OH274100   0.779   4.037   5.465  0.0252  1.0877  0.4999
17562TIP3    H174101   0.689   4.018   5.438 -0.2139  1.1867  1.1943
17562TIP3    H274102   0.827   3.956   5.449  0.1129  1.4359 -1.0848
17563TIP3   OH274103   0.237   0.230   4.515 -0.6951  0.0052  0.1575
17563TIP3    H174104   0.218   0.315   4.473  1.3098  0.1916 -0.4831
17563TIP3    H274105   0.216   0.165   4.448 -0.3842  0.1237 -0.0582
17564TIP3   OH274106   5.146   1.624  13.431 -0.4986  0.4883 -0.3451
17564TIP3    H174107   5.175   1.715  13.440 -1.4458  0.7862 -0.2183
17564TIP3    H274108   5.224   1.572  13.452 -0.0517  1.2648 -0.0417
17565TIP3   OH274109   4.122   0.463  14.864  0.6150 -0.3077 -0.1796
17565TIP3    H174110   4.099   0.502  14.948  1.3381  0.3011 -0.2540
17565TIP3    H274111   4.114   0.535  14.801  2.3562 -0.1524 -0.2554
17566TIP3   OH274112   0.149   4.059  14.094  0.0158 -0.3080 -0.1551
17566TIP3    H174113   0.150   3.986  14.032 -0.1674 -0.1191 -0.3792
17566TIP3    H274114   0.061   4.095  14.088  1.1431  2.4229 -2.9359
17567TIP3   OH274115   4.129   5.288  13.510 -0.2136 -0.1297  0.1127
17567TIP3    H174116   4.035   5.305  13.519 -0.6606 -0.4580 -2.9315
17567TIP3    H274117   4.163   5.365  13.465  0.1333 -1.6120 -2.3638
17568TIP3   OH274118   3.268   6.082   4.120 -0.2107  0.4939 -0.2064
17568TIP3    H174119   3.264   6.168   4.078  1.0666  1.1358  0.9515
17568TIP3    H274120   3.177   6.062   4.142 -0.2538  2.9704  2.2833
17569TIP3   OH274121   1.530   5.596  14.324 -0.1427  0.2684  0.2246
17569TIP3    H174122   1.617   5.628  14.345  0.3468 -0.9710  0.1902
17569TIP3    H274123   1.522   5.605  14.229  0.1600 -0.0887  0.1613
17570TIP3   OH274124   0.690   0.190  15.335  0.0606 -0.2186  0.0833
17570TIP3    H174125   0.701   0.174  15.429  0.9465  1.5911  0.3334
17570TIP3    H274126   0.760   0.251  15.313 -1.4406  1.0889 -1.3102
17571TIP3   OH274127   5.954   1.533  12.207  0.0805  0.8769  0.0191
17571TIP3    H174128   5.903   1.504  12.284  0.0633 -1.8458 -0.9126
17571TIP3    H274129   5.905   1.608  12.174 -1.6197  0.2604  0.9646
17572TIP3   OH274130   5.436   0.391  14.179 -0.1092 -0.9731  0.0172
17572TIP3    H174131   5.444   0.355  14.268 -1.1782 -0.7196  0.2301
17572TIP3    H274132   5.358   0.446  14.182  0.0735 -0.6356 -0.9804
17573TIP3   OH274133   4.191   1.541   0.852 -0.4533  0.4526 -0.3894
17573TIP3    H174134   4.250   1.472   0.883 -0.4416  1.0913  1.0505
17573TIP3    H274135   4.181   1.600   0.926 -1.4098  1.3810 -1.2239
17574TIP3   OH274136   2.354   6.421   2.641 -0.3404  0.1315 -0.2132
17574TIP3    H174137   2.430   6.390   2.591 -0.2153 -0.7794  0.5010
17574TIP3    H274138   2.284   6.361   2.617 -0.2494 -0.3864  0.7666
17575TIP3   OH274139   1.323   5.259   1.484 -0.0228 -0.1966  0.8730
17575TIP3    H174140   1.255   5.193   1.496  1.4821 -1.7172  1.3446
17575TIP3    H274141   1.390   5.237   1.549  0.6323  1.6904  0.9111
17576TIP3   OH274142   6.537   3.418   3.154 -0.0778  0.4117  0.1756
17576TIP3    H174143   6.584   3.460   3.083  2.3716  0.9784  1.9933
17576TIP3    H274144   6.444   3.425   3.130  0.6425  0.3752 -2.9777
17577TIP3   OH274145   2.480   6.530   3.313 -0.4225 -0.1319 -0.5148
17577TIP3    H174146   2.520   6.447   3.338 -0.6939 -0.3492 -0.7907
17577TIP3    H274147   2.393   6.528   3.354  0.2514  0.8338  1.0473
17578TIP3   OH274148   2.548   4.593  12.362 -0.2853  0.7347 -0.4177
17578TIP3    H174149   2.571   4.682  12.334 -2.5449  1.4615 -0.1830
17578TIP3    H274150   2.471   4.571  12.310 -0.8146 -0.3752  0.7838
17579TIP3   OH274151   3.184   4.327  15.144 -0.2904  0.3582  0.2955
17579TIP3    H174152   3.209   4.302  15.233 -0.7581 -0.5969  0.1666
17579TIP3    H274153   3.163   4.245  15.101 -0.7885  0.8810 -0.4804
17580TIP3   OH274154   4.376   0.956   4.891 -0.5811  0.1421 -0.5401
17580TIP3    H174155   4.449   0.978   4.950 -1.4557  1.6424  0.0427
17580TIP3    H274156   4.318   0.901   4.944 -0.8681  0.6500 -0.3205
17581TIP3   OH274157   1.320   4.617  11.795  0.4894 -0.0556  0.1208
17581TIP3    H174158   1.354   4.539  11.753  0.9762 -0.2365  0.8322
17581TIP3    H274159   1.390   4.682  11.784 -0.8223  1.0601 -2.5469
17582TIP3   OH274160   3.611   4.377   3.934 -0.4487 -0.2350 -0.5013
17582TIP3    H174161   3.591   4.414   4.020  0.0887 -1.1893  0.0441
17582TIP3    H274162   3.693   4.419   3.908 -0.1431 -0.5967 -0.1392
17583TIP3   OH274163   4.352   6.364   1.512  0.0269  0.1687  0.7973
17583TIP3    H174164   4.266   6.325   1.497 -0.1763  1.1613 -0.9214
17583TIP3    H274165   4.343   6.455   1.481  1.7748  0.1858  0.2270
17584TIP3   OH274166   0.652   2.320  13.891  0.0357 -0.5101 -0.4640
17584TIP3    H174167   0.627   2.397  13.839  0.1419 -0.7887 -0.9266
17584TIP3    H274168   0.736   2.293  13.855 -0.3181 -1.2461 -0.7457
17585TIP3   OH274169   1.075   6.104   3.155  0.0804 -0.2719 -0.2878
17585TIP3    H174170   1.081   6.189   3.198 -1.1723 -0.5774  0.5576
17585TIP3    H274171   1.126   6.045   3.210  0.6091 -0.1560 -0.6487
17586TIP3   OH274172   2.943   0.136   0.479  0.1583 -0.4152  0.6005
17586TIP3    H174173   2.923   0.227   0.458  2.1058 -0.1141 -0.1827
17586TIP3    H274174   3.002   0.141   0.554 -1.0984 -1.1559  1.6854
17587TIP3   OH274175   0.843   3.900  14.888  0.3472 -0.1394 -0.3322
17587TIP3    H174176   0.797   3.928  14.967  0.6738 -1.6201  0.4248
17587TIP3    H274177   0.776   3.898  14.820 -0.4075 -0.8663  0.4161
17588TIP3   OH274178   3.734   5.049  15.152  0.1950 -0.4165 -0.4896
17588TIP3    H174179   3.727   5.075  15.244  0.9700 -1.4104 -0.1241
17588TIP3    H274180   3.685   5.115  15.104  1.8082  1.5176  0.3983
17589TIP3   OH274181   2.987   4.312  14.747  0.3061 -0.0019 -0.8948
17589TIP3    H174182   3.016   4.222  14.758  1.3332  0.4660  0.4146
17589TIP3    H274183   3.067   4.362  14.732  0.1321  1.1201  1.4377
17590TIP3   OH274184   0.221   4.731   5.618  0.1745 -0.1961 -0.3168
17590TIP3    H174185   0.242   4.642   5.588 -0.0473  0.1000 -1.4123
17590TIP3    H274186   0.306   4.770   5.640  0.4468 -0.1580 -1.3816
17591TIP3   OH274187   2.775   2.437  15.524 -0.9348  0.5357  0.2600
17591TIP3    H174188   2.845   2.492  15.559 -1.2166  0.8031  0.4021
17591TIP3    H274189   2.730   2.493  15.461 -0.7082  0.2006 -0.2102
17592TIP3   OH274190   5.137   0.673   3.536 -0.1889  0.0028 -0.2955
17592TIP3    H174191   5.173   0.757   3.508  0.8422 -0.3745 -0.1486
17592TIP3    H274192   5.213   0.617   3.550 -0.6073  0.0309  2.8135
17593TIP3   OH274193   4.575   4.868   3.790  0.1449  0.4305 -0.0836
17593TIP3    H174194   4.612   4.831   3.709 -0.9492  0.3878 -0.5821
17593TIP3    H274195   4.482   4.881   3.770 -0.0780  0.7137  1.0698
17594TIP3   OH274196   1.404   0.234   4.933 -0.4865 -0.2923  0.2742
17594TIP3    H174197   1.421   0.259   5.024  0.5543 -0.6277  0.1855
17594TIP3    H274198   1.384   0.317   4.889 -1.6904 -0.2094  0.9359
17595TIP3   OH274199   4.831   1.697  15.880 -0.1463  0.4692  0.8631
17595TIP3    H174200   4.799   1.778  15.920 -1.2234 -0.2137  1.4559
17595TIP3    H274201   4.865   1.724  15.795  0.3114  1.6623  1.4092
17596TIP3   OH274202   1.775   2.742  11.813 -0.4985  0.7056  0.6106
17596TIP3    H174203   1.722   2.776  11.741  0.3205  1.8422  0.5048
17596TIP3    H274204   1.750   2.650  11.821 -1.8106  0.9869 -0.0180
17597TIP3   OH274205   0.422   4.067  14.017  0.7113  0.3913 -0.2043
17597TIP3    H174206   0.432   4.040  14.108 -1.8140 -0.5814 -0.1588
17597TIP3    H274207   0.380   3.993  13.974  0.3830  1.4612 -1.8120
17598TIP3   OH274208   3.850   5.476   3.501 -0.1883  0.1862 -0.0669
17598TIP3    H174209   3.843   5.571   3.506 -2.0147  0.1332 -0.8992
17598TIP3    H274210   3.817   5.444   3.584 -2.2286  0.2298 -0.8140
17599TIP3   OH274211   5.277   3.272   3.556  0.0726 -0.2744  0.5480
17599TIP3    H174212   5.184   3.256   3.569  0.1813 -0.5590  1.0468
17599TIP3    H274213   5.313   3.275   3.645  0.4379  0.4652  0.3805
17600TIP3   OH274214   4.907   5.737   2.273  0.6056  0.1909  0.2399
17600TIP3    H174215   4.898   5.724   2.179 -2.2893  0.8664  0.3203
17600TIP3    H274216   4.948   5.824   2.281  0.2397  0.4348 -0.4205
17601TIP3   OH274217   2.072   3.897   4.010  0.4914  0.1474  0.6533
17601TIP3    H174218   2.103   3.912   4.099 -0.7068 -0.4460  1.1878
17601TIP3    H274219   2.067   3.984   3.971 -0.4612  0.5607  1.6763
17602TIP3   OH274220   3.084   6.154   1.247  0.1769  0.1160 -0.7469
17602TIP3    H174221   3.085   6.167   1.153 -1.3420  0.5677 -0.7378
17602TIP3    H274222   3.101   6.241   1.283  1.5180 -0.2027 -0.5914
17603TIP3   OH274223   2.554   1.808   0.042  0.0719 -0.0625 -0.3031
17603TIP3    H174224   2.564   1.892  -0.004  0.4367  0.0803  0.0375
17603TIP3    H274225   2.531   1.746  -0.027 -1.6213  0.5868 -0.3693
17604TIP3   OH274226   3.332   0.735   0.875 -0.2329 -1.1242  0.1285
17604TIP3    H174227   3.424   0.710   0.884 -0.3868 -2.2900 -1.1802
17604TIP3    H274228   3.294   0.718   0.961  0.8649 -0.1159  0.8429
17605TIP3   OH274229   1.695   6.598  14.802  0.1343 -0.1755 -0.0992
17605TIP3    H174230   1.786   6.611  14.826 -0.6636  1.3798  2.4160
17605TIP3    H274231   1.646   6.608  14.883 -2.4842  1.4248 -1.7186
17606TIP3   OH274232   1.671   2.140   3.369 -0.3715  0.1137 -0.0626
17606TIP3    H174233   1.712   2.152   3.283 -1.9070 -1.0674 -1.0108
17606TIP3    H274234   1.650   2.047   3.373  2.7808 -0.6510  3.1219
17607TIP3   OH274235   3.548   2.770  13.545  0.1431 -0.7064 -0.2036
17607TIP3    H174236   3.540   2.732  13.632  1.8293 -1.0532 -0.1699
17607TIP3    H274237   3.631   2.817  13.547 -0.3418  0.2514 -1.2792
17608TIP3   OH274238   1.396   0.961  13.324  0.1737  0.4413  0.0905
17608TIP3    H174239   1.375   0.868  13.308 -1.8610  0.8702 -0.0854
17608TIP3    H274240   1.467   0.980  13.263  0.6543 -1.0038  0.1517
17609TIP3   OH274241   2.913   3.709  11.679 -0.1007  0.4598 -0.4433
17609TIP3    H174242   2.935   3.786  11.625  0.2339 -0.4067 -1.5825
17609TIP3    H274243   2.850   3.742  11.743 -1.1230  1.3779 -1.8638
17610TIP3   OH274244   0.900   2.179  14.676  0.0211  0.0937  0.0740
17610TIP3    H174245   0.958   2.135  14.613 -0.0821 -0.5453  0.4172
17610TIP3    H274246   0.817   2.187  14.629  0.4471  1.2461 -0.5119
17611TIP3   OH274247   3.105   2.095  17.114 -0.1069 -0.1735  0.0731
17611TIP3    H174248   3.179   2.141  17.155 -1.0629  2.2679 -0.7307
17611TIP3    H274249   3.090   2.143  17.032 -0.8848 -2.3164 -1.1089
17612TIP3   OH274250   6.140   1.290  14.318 -0.6102  0.0213  0.0652
17612TIP3    H174251   6.109   1.254  14.401 -3.2076  1.7902 -0.0402
17612TIP3    H274252   6.081   1.254  14.252  2.1957 -2.4018 -1.3519
17613TIP3   OH274253   4.241   6.096  13.118  0.1890  0.2975 -0.1536
17613TIP3    H174254   4.276   6.179  13.084 -1.5922  0.3297 -2.1709
17613TIP3    H274255   4.314   6.057  13.165  1.3886  2.5496  0.0160
17614TIP3   OH274256   1.970   2.277   2.437  0.7381 -0.0069  0.2975
17614TIP3    H174257   1.925   2.334   2.375  0.8156  0.3939  0.6080
17614TIP3    H274258   2.002   2.204   2.384 -1.2917 -0.9151  0.2336
17615TIP3   OH274259   3.830   1.644   1.691 -0.6516 -0.0728 -0.0123
17615TIP3    H174260   3.761   1.593   1.649  0.3453 -0.0941 -1.6892
17615TIP3    H274261   3.898   1.654   1.624  0.9978 -0.0571  1.5640
17616TIP3   OH274262   5.749   5.818  17.325 -0.3719 -0.0639 -0.3536
17616TIP3    H174263   5.756   5.732  17.283  0.9344 -0.1316 -0.0476
17616TIP3    H274264   5.818   5.871  17.283  1.7292 -0.4428  2.3319
17617TIP3   OH274265   2.329   6.313  11.215 -0.1748  0.5156  0.2030
17617TIP3    H174266   2.397   6.300  11.150  0.2609  0.2561  0.7036
17617TIP3    H274267   2.374   6.351  11.291 -0.3008 -1.0007  1.0764
17618TIP3   OH274268   5.006   5.425   3.687  0.0225 -0.5742  1.0146
17618TIP3    H174269   5.021   5.477   3.608 -2.0142  0.1404  1.0254
17618TIP3    H274270   5.089   5.380   3.703  1.1646  0.9653 -0.2671
17619TIP3   OH274271   2.190   6.642  17.425  0.1411  0.6714 -0.2241
17619TIP3    H174272   2.250   6.570  17.411 -1.5650 -0.6658 -1.0837
17619TIP3    H274273   2.232   6.717  17.384  1.7327  0.0768  0.2694
17620TIP3   OH274274   4.254   5.349   2.913  0.3713 -0.3698  0.5227
17620TIP3    H174275   4.178   5.403   2.936 -0.2020 -0.6566 -0.6146
17620TIP3    H274276   4.220   5.260   2.910  0.7881 -0.5240  0.1895
17621TIP3   OH274277   1.519   0.680  16.684 -0.1230  0.5523  0.2963
17621TIP3    H174278   1.604   0.704  16.719 -0.1390  0.9961  0.0344
17621TIP3    H274279   1.517   0.718  16.596 -0.7430  0.8720  0.4434
17622TIP3   OH274280   4.637   2.867  13.651  0.2591  0.3290 -0.5240
17622TIP3    H174281   4.650   2.801  13.583  1.0021  0.7644 -0.8118
17622TIP3    H274282   4.720   2.915  13.655  0.6370 -0.3945  1.4659
17623TIP3   OH274283   6.279   2.856   4.061 -0.3687 -0.3651 -0.1287
17623TIP3    H174284   6.297   2.926   4.123 -0.0738  0.1684 -0.7937
17623TIP3    H274285   6.184   2.846   4.061 -0.4005 -0.0427  0.0585
17624TIP3   OH274286   3.786   1.184   3.841  0.0042  0.1394 -0.3640
17624TIP3    H174287   3.762   1.094   3.818 -0.1925  0.7277 -2.6989
17624TIP3    H274288   3.703   1.228   3.858  0.0420  0.1192 -0.1140
17625TIP3   OH274289   4.830   1.761  15.604  0.0282 -0.2526 -0.2471
17625TIP3    H174290   4.838   1.714  15.520  3.0273  1.5837 -1.1627
17625TIP3    H274291   4.800   1.848  15.580 -1.7686 -0.4918  0.9775
17626TIP3   OH274292   3.599   6.515  16.429  0.3661 -0.1864  0.0335
17626TIP3    H174293   3.597   6.502  16.334  0.5694  1.3070 -0.1956
17626TIP3    H274294   3.516   6.558  16.449 -1.0361 -3.0277  1.0059
17627TIP3   OH274295   0.030   1.433   5.533 -0.2252  0.0854  0.1374
17627TIP3    H174296   0.064   1.515   5.568 -0.8659  0.0906  0.7730
17627TIP3    H274297   0.090   1.366   5.567 -0.7771  0.1020  1.1942
17628TIP3   OH274298   1.196   3.736  17.199 -0.0599  0.3649  0.0098
17628TIP3    H174299   1.257   3.806  17.218 -0.6576  1.0068 -0.4025
17628TIP3    H274300   1.184   3.692  17.283 -0.1872  1.1652  0.4204
17629TIP3   OH274301   2.732   5.770  11.022  0.3418  0.6203  0.1689
17629TIP3    H174302   2.655   5.725  10.988  0.7668  1.0619 -1.4606
17629TIP3    H274303   2.784   5.701  11.062  0.6987 -0.2894 -1.7527
17630TIP3   OH274304   1.633   4.409   1.844 -0.1593 -0.0041  0.0885
17630TIP3    H174305   1.570   4.376   1.780  0.3635 -0.0867 -0.3860
17630TIP3    H274306   1.616   4.358   1.923  0.6597 -1.4630 -0.6339
17631TIP3   OH274307   3.742   0.892   2.853 -0.5541  0.1075 -0.3168
17631TIP3    H174308   3.740   0.957   2.784  1.2805  0.3625 -0.1642
17631TIP3    H274309   3.747   0.808   2.807  0.6612  0.2764 -0.5081
17632TIP3   OH274310   6.642   5.648  11.994  0.6206 -0.0537  0.1622
17632TIP3    H174311   6.553   5.673  12.020  0.9728  0.9079  0.4878
17632TIP3    H274312   6.652   5.559  12.027 -0.9837 -1.0547 -1.8124
17633TIP3   OH274313   0.652   3.621  17.354  0.1893  0.0342  0.1364
17633TIP3    H174314   0.661   3.598  17.262  1.3806 -0.6351  0.4095
17633TIP3    H274315   0.731   3.588  17.396 -0.5034 -0.0128  1.4762
17634TIP3   OH274316   0.523   3.490   2.154  0.1046 -0.4750  0.1118
17634TIP3    H174317   0.463   3.521   2.222  0.6581  1.7280 -0.3477
17634TIP3    H274318   0.532   3.396   2.172 -0.1807 -0.0833  2.7522
17635TIP3   OH274319   1.263   6.073  14.410 -0.2506  0.2910 -0.7221
17635TIP3    H174320   1.214   5.991  14.399  0.0210  0.2144 -1.3772
17635TIP3    H274321   1.264   6.087  14.505  1.8914 -1.8342 -0.3453
17636TIP3   OH274322   5.150   1.893   4.150 -0.1871 -1.0447  0.2695
17636TIP3    H174323   5.068   1.849   4.129 -1.3715  0.8571  0.6753
17636TIP3    H274324   5.196   1.832   4.208 -1.3221 -2.1283  0.0627
17637TIP3   OH274325   3.241   4.711  14.613 -0.0764  0.4305  0.2992
17637TIP3    H174326   3.248   4.774  14.684 -3.0074  1.4454 -0.1891
17637TIP3    H274327   3.190   4.638  14.651  1.4853 -0.7419  0.2466
17638TIP3   OH274328   0.217   6.644   5.222 -0.0335 -0.1939 -0.1265
17638TIP3    H174329   0.193   6.636   5.315  1.0194 -0.5775  0.1210
17638TIP3    H274330   0.272   6.567   5.205 -2.3067 -1.5995 -1.7528
17639TIP3   OH274331   4.376   0.657   2.054  0.1043  0.2177  0.2468
17639TIP3    H174332   4.342   0.573   2.084  1.9740 -0.8145 -0.3633
17639TIP3    H274333   4.355   0.659   1.960 -0.2567  0.6132  0.3317
17640TIP3   OH274334   2.464   3.315  13.271  0.2298 -0.4681  0.1355
17640TIP3    H174335   2.541   3.362  13.303 -1.3208  0.8543  2.1302
17640TIP3    H274336   2.432   3.267  13.347 -1.1161 -0.7287 -0.5750
17641TIP3   OH274337   3.924   4.252   3.477 -0.1974 -0.2787 -0.6960
17641TIP3    H174338   3.955   4.233   3.565  2.6826  0.5200 -1.4386
17641TIP3    H274339   3.920   4.347   3.472 -1.9191 -0.3300 -0.9803
17642TIP3   OH274340   1.605   4.172   5.104 -1.0651 -0.0035 -0.0732
17642TIP3    H174341   1.535   4.212   5.156  0.2689 -0.9633  2.6683
17642TIP3    H274342   1.664   4.134   5.169  0.5958 -1.6043 -2.3592
17643TIP3   OH274343   5.807   5.182   3.241 -0.8475  0.6371 -0.0210
17643TIP3    H174344   5.861   5.146   3.171 -0.9523  0.1568  0.1420
17643TIP3    H274345   5.866   5.240   3.290  0.6216 -2.5233  2.3239
17644TIP3   OH274346   2.040   5.389  12.626  0.2578  0.4264 -0.6700
17644TIP3    H174347   2.127   5.406  12.589 -0.6337  1.7967 -2.2951
17644TIP3    H274348   1.981   5.395  12.551 -1.0772 -2.4728  0.0292
17645TIP3   OH274349   3.249   0.393  10.577 -0.2896 -0.4287 -0.2833
17645TIP3    H174350   3.207   0.477  10.562  0.6020  0.4937  1.9735
17645TIP3    H274351   3.181   0.329  10.555 -1.4029  0.8919 -0.8519
17646TIP3   OH274352   2.056   0.910  12.412  0.3461 -1.0583  0.1934
17646TIP3    H174353   2.079   0.844  12.477 -2.4615 -0.3453  2.0769
17646TIP3    H274354   2.100   0.990  12.443 -0.6124 -0.8287  1.0074
17647TIP3   OH274355   3.864   1.643  12.364 -0.6177  0.4362  0.3257
17647TIP3    H174356   3.874   1.690  12.281  1.1029  0.8202  0.7105
17647TIP3    H274357   3.920   1.566  12.354  0.0888  0.8000  1.3383
17648TIP3   OH274358   3.488   4.170  17.256  0.0987  0.3958  1.1342
17648TIP3    H174359   3.580   4.186  17.279  0.6799 -1.1842  0.0721
17648TIP3    H274360   3.485   4.078  17.233 -1.3538  0.8445 -0.7287
17649TIP3   OH274361   4.375   5.241  12.660 -0.0812  0.9533 -0.5233
17649TIP3    H174362   4.359   5.147  12.651 -0.6510  0.7904  1.6309
17649TIP3    H274363   4.393   5.253  12.753 -1.4633  3.1687 -0.4794
17650TIP3   OH274364   2.554   4.891  15.799  0.1272  0.4178 -0.0514
17650TIP3    H174365   2.556   4.985  15.782  2.6077  0.1960 -1.3949
17650TIP3    H274366   2.587   4.882  15.888  1.5212  0.7496 -0.5168
17651TIP3   OH274367   2.692   0.322  12.007 -0.0490 -0.0399  0.0699
17651TIP3    H174368   2.610   0.343  12.052 -0.6747  1.5617 -1.6951
17651TIP3    H274369   2.669   0.251  11.948  0.3067 -0.8408  0.8785
17652TIP3   OH274370   0.209   0.294  17.123 -0.3044 -0.4562  0.5393
17652TIP3    H174371   0.256   0.373  17.096 -0.5372 -0.5106 -0.0291
17652TIP3    H274372   0.277   0.227  17.130  0.0445  0.0282  1.9990
17653TIP3   OH274373   1.165   1.010  17.078  0.1542 -0.4564  0.1514
17653TIP3    H174374   1.235   0.990  17.140  1.2441  0.3862 -0.7635
17653TIP3    H274375   1.177   1.102  17.057  0.0710 -0.8064 -1.5994
17654TIP3   OH274376   1.606   1.875   4.667 -0.0177  0.3276  0.3082
17654TIP3    H174377   1.624   1.950   4.724 -1.7675  0.7418  0.3763
17654TIP3    H274378   1.512   1.860   4.677  0.4052 -2.4228  0.9460
17655TIP3   OH274379   1.289   0.913   5.170  0.3767  0.5947 -0.0981
17655TIP3    H174380   1.323   0.998   5.144  1.7843  0.0583 -0.1013
17655TIP3    H274381   1.273   0.867   5.087  0.2464  0.6192 -0.0869
17656TIP3   OH274382   4.831   6.593  14.194  0.3583 -0.1456  0.4462
17656TIP3    H174383   4.745   6.631  14.177  0.7994  1.3467  1.3568
17656TIP3    H274384   4.831   6.575  14.288  0.5906 -1.4022  0.2360
17657TIP3   OH274385   1.100   6.710   5.203  0.5467 -0.0722  0.2072
17657TIP3    H174386   1.085   6.799   5.172 -1.0957 -0.6774 -0.8262
17657TIP3    H274387   1.179   6.682   5.156  0.0239  0.2009 -0.8548
17658TIP3   OH274388   0.886   0.570   0.012 -0.0364 -0.4411 -0.3619
17658TIP3    H174389   0.935   0.558   0.093 -1.9125  2.3254  1.3573
17658TIP3    H274390   0.799   0.532   0.030 -0.3653 -0.1406 -1.2325
17659TIP3   OH274391   5.807   3.268   5.894 -0.1303 -0.0765  0.1399
17659TIP3    H174392   5.830   3.360   5.882  1.3282 -0.3322  0.7548
17659TIP3    H274393   5.744   3.268   5.967 -0.2112  0.4376  0.0721
17660TIP3   OH274394   6.609   2.383  15.983  0.2574  0.3267 -0.3717
17660TIP3    H174395   6.601   2.295  15.948 -2.3230  0.9873 -1.7299
17660TIP3    H274396   6.593   2.374  16.076  1.7742 -0.8000 -0.1838
17661TIP3   OH274397   5.817   2.969   1.039  0.2058  0.0225 -0.3185
17661TIP3    H174398   5.805   3.051   1.088 -1.7551 -0.5464  0.2450
17661TIP3    H274399   5.728   2.936   1.025  0.8710 -1.2269 -1.9255
17662TIP3   OH274400   5.828   3.300  14.923  0.3785  0.3167  0.0240
17662TIP3    H174401   5.886   3.351  14.980 -1.4780  0.7720  1.6019
17662TIP3    H274402   5.826   3.213  14.962  1.2045 -0.1599 -0.9526
17663TIP3   OH274403   4.388   4.762   2.836  0.0018 -0.3422 -0.1890
17663TIP3    H174404   4.422   4.841   2.795  1.6137 -0.1891  1.3457
17663TIP3    H274405   4.464   4.705   2.846 -0.2771 -0.3800  2.4794
17664TIP3   OH274406   2.671   4.591   4.873 -0.0452  0.1645  0.3278
17664TIP3    H174407   2.733   4.664   4.873 -1.2467  1.2409 -0.9973
17664TIP3    H274408   2.656   4.571   4.781  1.1392 -2.6087  0.6537
17665TIP3   OH274409   6.391   0.077   1.989  0.2468 -0.1868 -0.5480
17665TIP3    H174410   6.323   0.012   2.009 -0.2343  0.3302 -0.4592
17665TIP3    H274411   6.457   0.064   2.057  1.3186 -2.1365 -1.8655
17666TIP3   OH274412   1.348   2.936   1.776 -0.6367 -0.4900 -0.4788
17666TIP3    H174413   1.355   3.010   1.716  0.7948 -0.9252 -0.8930
17666TIP3    H274414   1.354   2.976   1.863 -0.1434 -0.0832 -0.6939
17667TIP3   OH274415   1.690   0.859  16.997 -0.1627  0.0443 -0.4953
17667TIP3    H174416   1.700   0.924  16.928  0.0261  0.8942  0.3148
17667TIP3    H274417   1.616   0.891  17.049  0.4219  0.0227  0.3597
17668TIP3   OH274418   0.679   0.191   0.465  0.4655  0.0375 -0.4432
17668TIP3    H174419   0.617   0.242   0.415  1.1589 -0.2208 -1.6062
17668TIP3    H274420   0.736   0.151   0.399 -0.1944 -2.4386  0.3753
17669TIP3   OH274421   4.640   1.934  15.428 -0.2792 -0.2512 -0.1552
17669TIP3    H174422   4.686   1.916  15.346 -1.3371  0.3494 -0.8984
17669TIP3    H274423   4.596   2.018  15.413 -0.9753 -0.4276  0.8137
17670TIP3   OH274424   1.263   2.364   2.309  0.2132  0.1797 -0.5226
17670TIP3    H174425   1.265   2.441   2.365 -1.4763  0.7269 -1.1676
17670TIP3    H274426   1.204   2.387   2.237 -0.9244 -1.9613 -0.3569
17671TIP3   OH274427   5.101   4.304  16.703  0.6983  0.5478  0.3217
17671TIP3    H174428   5.159   4.230  16.718 -1.0290 -0.5963  1.7814
17671TIP3    H274429   5.138   4.348  16.626  2.4464 -1.1087  0.1219
17672TIP3   OH274430   6.533   6.577  16.006  0.1502  0.1072 -0.7646
17672TIP3    H174431   6.527   6.661  15.959  0.6129  0.7534  0.2924
17672TIP3    H274432   6.442   6.548  16.015 -0.4201  2.2537  1.8626
17673TIP3   OH274433   0.587   6.093  16.379 -0.0988 -0.1739 -0.1898
17673TIP3    H174434   0.607   6.186  16.392  2.4358 -0.7167  0.4462
17673TIP3    H274435   0.507   6.079  16.428  0.3538  1.3523  1.0890
17674TIP3   OH274436   2.592   2.366   3.892  0.2003 -0.1283 -0.2294
17674TIP3    H174437   2.681   2.351   3.924  0.2483  0.2349 -0.1887
17674TIP3    H274438   2.546   2.406   3.966  0.1573  0.2002 -0.4333
17675TIP3   OH274439   2.236   4.374  16.842  0.1055  0.1910  0.0029
17675TIP3    H174440   2.217   4.439  16.775  0.1250  0.6144  0.4013
17675TIP3    H274441   2.293   4.420  16.904 -0.0994 -0.1252  0.4291
17676TIP3   OH274442   5.903   1.325   6.277 -1.1871  0.2603  0.3851
17676TIP3    H174443   5.954   1.344   6.356  0.3560 -3.6149  0.5769
17676TIP3    H274444   5.812   1.324   6.307 -0.6080 -1.7747  2.4414
17677TIP3   OH274445   4.041   6.234  12.807  0.7976 -0.0191  0.1345
17677TIP3    H174446   4.035   6.220  12.901  0.8142 -0.4636  0.0723
17677TIP3    H274447   4.008   6.153  12.768  0.7884  0.1602 -0.2432
17678TIP3   OH274448   1.537   6.377  16.032  0.1915  0.0378  0.2998
17678TIP3    H174449   1.536   6.443  16.101  1.0764 -0.2986  0.6440
17678TIP3    H274450   1.595   6.412  15.965  0.7175 -0.4144  0.5146
17679TIP3   OH274451   0.133   0.841  13.579 -0.6445 -0.2050 -0.8219
17679TIP3    H174452   0.224   0.851  13.607 -1.1662 -0.9103  1.3356
17679TIP3    H274453   0.101   0.931  13.569 -0.3110  0.0956  0.6046
17680TIP3   OH274454   3.733   5.195   5.889 -0.8415  0.2481 -0.0894
17680TIP3    H174455   3.807   5.138   5.869  0.1459  0.4997  2.4323
17680TIP3    H274456   3.701   5.224   5.804  0.9365 -1.1455 -1.3115
17681TIP3   OH274457   0.967   3.311  11.725  0.4125 -0.0966  0.8084
17681TIP3    H174458   0.894   3.293  11.783  0.1558  2.0183  1.2269
17681TIP3    H274459   1.018   3.378  11.770  0.8659  0.7310 -0.8379
17682TIP3   OH274460   6.309   2.490   4.943  0.4621 -0.2359  0.8489
17682TIP3    H174461   6.326   2.517   5.033 -0.6807  0.3092  0.9185
17682TIP3    H274462   6.394   2.461   4.910  0.8851 -0.4916  2.1146
17683TIP3   OH274463   3.559   2.659   5.256  0.3158 -0.0585 -0.1216
17683TIP3    H174464   3.574   2.634   5.165  0.4894 -1.0102  0.1657
17683TIP3    H274465   3.570   2.754   5.256 -0.4811  0.0649 -1.2520
17684TIP3   OH274466   4.674   3.394  12.332 -0.5419 -0.3120  0.1801
17684TIP3    H174467   4.639   3.482  12.346 -1.5652 -0.8864  1.3428
17684TIP3    H274468   4.597   3.340  12.316  0.0742 -1.0355 -0.4252
17685TIP3   OH274469   2.741   3.167   1.806 -0.4648 -0.5128 -0.2426
17685TIP3    H174470   2.831   3.189   1.780 -1.5478  0.6766 -3.4628
17685TIP3    H274471   2.694   3.249   1.803 -2.2704 -1.5337 -1.5340
17686TIP3   OH274472   3.661   0.024  11.892  0.4023 -0.3418 -0.2132
17686TIP3    H174473   3.651   0.075  11.972 -0.0374 -1.7251  0.6495
17686TIP3    H274474   3.671   0.089  11.823  0.4396  0.8876  0.9125
17687TIP3   OH274475   0.040   3.477  13.699  0.4198  0.5813 -0.2123
17687TIP3    H174476   0.038   3.481  13.795 -0.0153 -1.9571 -0.0565
17687TIP3    H274477   0.062   3.386  13.679 -0.1058  0.9109 -2.5356
17688TIP3   OH274478   2.589   4.867   5.178  0.6758 -0.5275 -0.0478
17688TIP3    H174479   2.595   4.783   5.223 -0.7843 -0.2251  0.7692
17688TIP3    H274480   2.496   4.886   5.176  1.0599  2.0684  1.7315
17689TIP3   OH274481   3.523   2.457  12.407  0.0526  0.1941 -0.4211
17689TIP3    H174482   3.607   2.429  12.443 -0.2634 -1.1701 -0.6698
17689TIP3    H274483   3.529   2.434  12.314 -1.2611 -1.6540 -0.0897
17690TIP3   OH274484   0.754   4.900  16.469  0.5121 -0.2738  0.4231
17690TIP3    H174485   0.824   4.834  16.464  0.5471 -0.2176  0.1722
17690TIP3    H274486   0.749   4.936  16.381  1.8087  1.4045  0.9833
17691TIP3   OH274487   0.269   6.417  15.426  0.0460  0.4944 -0.0221
17691TIP3    H174488   0.337   6.403  15.491 -0.1992  1.2748  0.4178
17691TIP3    H274489   0.230   6.331  15.413  1.2779 -0.0034 -0.4689
17692TIP3   OH274490   1.599   5.303   0.270  0.4170  0.1248  0.1181
17692TIP3    H174491   1.539   5.238   0.233 -0.5338  0.8092  0.4360
17692TIP3    H274492   1.670   5.251   0.308 -0.1982 -0.7135  0.1478
17693TIP3   OH274493   6.280   1.719   0.958 -0.5328 -0.0822  0.1368
17693TIP3    H174494   6.184   1.716   0.964 -0.6864  0.6372 -1.3958
17693TIP3    H274495   6.307   1.773   1.032 -1.1882 -1.3644  1.3495
17694TIP3   OH274496   0.726   2.396  14.851 -0.4148  0.1275 -0.4901
17694TIP3    H174497   0.684   2.354  14.926 -0.4497  1.4829  0.2766
17694TIP3    H274498   0.819   2.380  14.864 -0.5216 -1.2506 -1.1877
17695TIP3   OH274499   2.317   5.504  12.801 -0.9225 -0.5474 -0.0338
17695TIP3    H174500   2.276   5.590  12.814 -0.2337 -0.3626  1.0028
17695TIP3    H274501   2.309   5.488  12.707  1.2521  1.8871 -0.7720
17696TIP3   OH274502   5.620   4.178  11.579 -0.1685 -0.5644 -0.1337
17696TIP3    H174503   5.697   4.229  11.554  0.4432 -1.4220 -0.0100
17696TIP3    H274504   5.631   4.094  11.536 -1.3122 -0.5172 -0.5546
17697TIP3   OH274505   5.869   3.682   5.029 -0.4547 -0.1466 -0.3578
17697TIP3    H174506   5.879   3.768   5.071 -1.5931  0.1092 -0.5895
17697TIP3    H274507   5.944   3.631   5.061  0.8066  1.2424 -0.9922
17698TIP3   OH274508   2.991   1.611  16.783 -1.2294  0.0303 -0.1935
17698TIP3    H174509   3.001   1.632  16.690 -1.7972  2.7060  0.2733
17698TIP3    H274510   2.903   1.575  16.790 -1.7037  1.1081 -0.5063
17699TIP3   OH274511   4.853   5.810  13.467  0.7755 -0.4467  0.2955
17699TIP3    H174512   4.827   5.720  13.486  0.2371 -0.5447 -0.8561
17699TIP3    H274513   4.948   5.807  13.460  0.7044 -1.0920 -0.5215
17700TIP3   OH274514   2.113   3.037  13.385 -0.0057 -0.2352 -0.1707
17700TIP3    H174515   2.085   2.946  13.400 -0.5292 -0.1334 -0.5204
17700TIP3    H274516   2.084   3.084  13.464 -2.5132  0.2419 -1.2821
17701TIP3   OH274517   5.014   6.373   0.387 -0.4550 -0.1171 -0.2546
17701TIP3    H174518   5.009   6.459   0.430 -2.2308 -0.4131  0.2088
17701TIP3    H274519   4.977   6.387   0.300 -0.3667 -0.3311 -0.3281
17702TIP3   OH274520   2.980   6.423  12.619 -0.9896  0.1599 -0.1038
17702TIP3    H174521   3.038   6.348  12.614 -0.7805  0.1863  1.5067
17702TIP3    H274522   2.978   6.446  12.712 -2.2527  1.1969 -0.3598
17703TIP3   OH274523   1.192   1.645   0.098  0.4060 -0.3923  0.0966
17703TIP3    H174524   1.125   1.693   0.147  0.8837  0.4193 -0.0189
17703TIP3    H274525   1.144   1.578   0.050 -0.5856  1.2801 -1.3790
17704TIP3   OH274526   4.895   0.275  12.334  0.2284  0.0140  0.0372
17704TIP3    H174527   4.840   0.222  12.276  0.8102 -0.0385 -0.4724
17704TIP3    H274528   4.984   0.257  12.306  0.5364 -0.1309  1.0531
17705TIP3   OH274529   3.821   3.840   1.615  0.4399 -0.7125 -0.1858
17705TIP3    H174530   3.902   3.790   1.622  0.5053 -0.5550  0.1907
17705TIP3    H274531   3.846   3.929   1.639  0.8471  0.0555 -3.0328
17706TIP3   OH274532   2.511   5.479   3.690 -0.2412  0.4945 -0.1594
17706TIP3    H174533   2.572   5.529   3.637 -0.4260  0.7337 -0.1445
17706TIP3    H274534   2.430   5.478   3.640 -0.3460  0.5205  0.0098
17707TIP3   OH274535   2.840   5.516   0.684  0.4568  0.1261  0.1180
17707TIP3    H174536   2.901   5.475   0.745 -0.1034 -0.2688  0.4123
17707TIP3    H274537   2.892   5.531   0.605  1.6625  2.1283  1.1972
17708TIP3   OH274538   6.726   1.717  16.593 -0.4075  0.6031 -0.0851
17708TIP3    H174539   6.765   1.665  16.522  0.0469 -0.1227  0.6768
17708TIP3    H274540   6.680   1.653  16.647 -1.5873  1.2890 -0.2538
17709TIP3   OH274541   3.970   1.633   3.618 -0.3695  0.1830 -0.0521
17709TIP3    H174542   4.040   1.666   3.674 -0.7461 -2.0859  1.8989
17709TIP3    H274543   3.890   1.674   3.651 -0.5511 -0.9227  0.9382
17710TIP3   OH274544   5.022   4.772   0.386 -0.7603  0.6717  0.2055
17710TIP3    H174545   5.053   4.844   0.441  0.7939  0.2292 -0.0298
17710TIP3    H274546   5.044   4.800   0.297 -0.7992  0.2190  0.0524
17711TIP3   OH274547   3.719   1.371   2.484  0.2521 -0.2976 -0.2271
17711TIP3    H174548   3.743   1.362   2.576 -0.7191 -0.4292  0.0275
17711TIP3    H274549   3.719   1.466   2.469  1.1196 -0.3022 -0.2975
17712TIP3   OH274550   4.629   1.742  16.279  0.4851 -0.2485  0.0482
17712TIP3    H174551   4.657   1.661  16.236  0.0081 -1.4501  1.9019
17712TIP3    H274552   4.703   1.767  16.333 -0.3355 -1.0130  1.5938
17713TIP3   OH274553   0.333   5.541   5.678 -0.0290 -0.7679 -0.1322
17713TIP3    H174554   0.352   5.468   5.737  1.0264 -1.3631 -1.1637
17713TIP3    H274555   0.416   5.559   5.634 -0.3159  0.9339 -0.0580
17714TIP3   OH274556   3.220   4.517  16.869  0.4108  0.0304 -0.3311
17714TIP3    H174557   3.278   4.455  16.824  0.6922  0.4713 -0.5789
17714TIP3    H274558   3.133   4.498  16.834  0.1978 -1.3771  0.8269
17715TIP3   OH274559   4.086   0.819  15.513  0.3007 -0.1771 -0.2065
17715TIP3    H174560   4.069   0.842  15.422 -0.8890  2.4095  0.5919
17715TIP3    H274561   4.175   0.852  15.531 -0.4711  1.7817  0.2477
17716TIP3   OH274562   3.503   4.818   0.609 -0.6452  0.7387  0.1167
17716TIP3    H174563   3.520   4.889   0.671 -1.2016  0.3462  0.7403
17716TIP3    H274564   3.431   4.769   0.648 -0.7385  0.2415 -0.6514
17717TIP3   OH274565   2.817   6.473  13.069 -0.0097 -0.1753  0.2300
17717TIP3    H174566   2.851   6.388  13.099  0.1315  0.5152  2.1574
17717TIP3    H274567   2.760   6.503  13.140  2.1119  2.5915  0.9558
17718TIP3   OH274568   0.053   1.298  13.851  0.1573  0.0849 -0.6359
17718TIP3    H174569   0.133   1.249  13.836  0.5240  0.2707  0.6161
17718TIP3    H274570   0.082   1.381  13.888 -0.6193 -0.0063  0.2303
17719TIP3   OH274571   0.521   0.361   0.282  0.5821  0.5844  0.5200
17719TIP3    H174572   0.524   0.384   0.190  2.9850 -4.1124 -0.8776
17719TIP3    H274573   0.434   0.323   0.295  0.5502  0.4532 -0.0736
17720TIP3   OH274574   6.543   1.235  12.033 -0.5373 -0.3630 -0.1420
17720TIP3    H174575   6.526   1.313  12.086  1.4637 -0.6169  0.9619
17720TIP3    H274576   6.514   1.162  12.088  0.2716 -0.5446  0.0604
17721TIP3   OH274577   3.937   3.392  15.040  0.2282  0.0232  0.9935
17721TIP3    H174578   3.931   3.320  14.977  1.7917 -0.9943  1.9491
17721TIP3    H274579   3.848   3.401  15.074 -0.5119  0.1681 -0.8589
17722TIP3   OH274580   1.399   2.061   4.121  0.1237 -0.3166  0.4893
17722TIP3    H174581   1.313   2.028   4.095 -0.3766 -0.1352  1.8375
17722TIP3    H274582   1.390   2.080   4.214  0.8727  2.0800  0.1371
17723TIP3   OH274583   4.621   3.336   5.410 -0.2931  0.0680 -0.2552
17723TIP3    H174584   4.583   3.271   5.350  0.2284  0.0876 -0.6253
17723TIP3    H274585   4.696   3.371   5.361  0.0396  0.2076  0.3484
17724TIP3   OH274586   2.083   2.370  16.608  0.4197  0.6498 -0.0297
17724TIP3    H174587   2.080   2.461  16.638  0.4464  0.8116 -0.4944
17724TIP3    H274588   2.060   2.376  16.515  2.1008  0.3822 -0.4856
17725TIP3   OH274589   1.815   2.168   5.825  0.3826 -0.1114 -0.3144
17725TIP3    H174590   1.835   2.086   5.780  2.6588  0.6528 -0.8344
17725TIP3    H274591   1.785   2.142   5.912 -0.3630 -1.5007 -0.9563
17726TIP3   OH274592   2.602   4.825   1.918 -0.6692  0.1103 -0.5772
17726TIP3    H174593   2.684   4.806   1.963 -1.5396  1.4924  1.7299
17726TIP3    H274594   2.568   4.738   1.894  0.8613 -0.5458 -0.5213
17727TIP3   OH274595   2.792   4.035   0.255  0.9557  0.5280  0.6979
17727TIP3    H174596   2.739   4.109   0.226  0.1612 -0.5462 -0.7308
17727TIP3    H274597   2.740   3.994   0.324  1.3521  1.2140  1.4225
17728TIP3   OH274598   4.982   1.296   6.252 -0.0439  0.0418 -0.8167
17728TIP3    H174599   5.061   1.264   6.207  1.1919  1.3511  0.3187
17728TIP3    H274600   4.913   1.289   6.187  1.1876 -0.3477 -2.1316
17729TIP3   OH274601   5.586   4.090   4.547  0.5628 -0.2754 -0.2337
17729TIP3    H174602   5.497   4.079   4.578 -0.0159  0.4369 -1.5573
17729TIP3    H274603   5.632   4.010   4.573 -0.5397 -0.7924  0.1452
17730TIP3   OH274604   0.280   6.578   1.956  0.3602 -0.8286 -0.8145
17730TIP3    H174605   0.286   6.669   1.927  0.1111 -0.8514 -0.9466
17730TIP3    H274606   0.187   6.566   1.977  0.6906 -0.4878  1.0678
17731TIP3   OH274607   5.641   4.147   1.196 -0.2595 -0.3758  0.0639
17731TIP3    H174608   5.550   4.131   1.172 -0.4289  1.7163 -0.9133
17731TIP3    H274609   5.682   4.060   1.197 -1.9410 -1.2096 -0.8081
17732TIP3   OH274610   0.946   1.075  15.626 -0.1506  0.8790 -0.0593
17732TIP3    H174611   0.896   1.027  15.561  0.6474  2.1464 -1.6786
17732TIP3    H274612   1.024   1.021  15.642 -2.1017 -1.3849  2.8921
17733TIP3   OH274613   4.323   4.646   3.855  0.0222 -0.2076 -0.3089
17733TIP3    H174614   4.324   4.683   3.944 -0.8958  0.2781 -0.4976
17733TIP3    H274615   4.341   4.553   3.869 -0.3808 -0.1868  0.4129
17734TIP3   OH274616   1.846   3.498  15.144 -0.0197 -0.0710 -0.4330
17734TIP3    H174617   1.935   3.462  15.146  0.9813  2.2113  1.1034
17734TIP3    H274618   1.847   3.560  15.071 -0.2689  0.1233 -0.2741
17735TIP3   OH274619   0.490   0.672  16.286  0.1028  0.3655 -0.2023
17735TIP3    H174620   0.429   0.741  16.263  0.7228  0.5038 -1.5465
17735TIP3    H274621   0.521   0.695  16.374 -1.0028  0.8276  0.0760
17736TIP3   OH274622   2.766   0.646   4.954  0.2464 -0.1111  0.4326
17736TIP3    H174623   2.832   0.711   4.931 -1.8612  1.8170 -0.5791
17736TIP3    H274624   2.732   0.674   5.038 -0.3577 -0.1446  0.2072
17737TIP3   OH274625   4.600   3.728   0.229 -0.3658 -0.3643  0.4492
17737TIP3    H174626   4.629   3.763   0.313 -1.3886  0.1075  0.6188
17737TIP3    H274627   4.673   3.673   0.199  1.0274  1.3967  0.4677
17738TIP3   OH274628   2.356   1.897   3.931 -0.2239 -0.2428 -0.0058
17738TIP3    H174629   2.295   1.861   3.867 -0.5498 -2.0473  1.2599
17738TIP3    H274630   2.379   1.823   3.987 -0.8909  1.4724  2.7250
17739TIP3   OH274631   3.774   3.180  13.471 -0.1351  0.2354  0.1054
17739TIP3    H174632   3.746   3.190  13.562 -1.2877  0.8785 -0.2958
17739TIP3    H274633   3.857   3.229  13.466 -0.8461  1.5341  0.4618
17740TIP3   OH274634   5.539   4.861  11.820 -0.6525 -0.1078  0.0583
17740TIP3    H174635   5.484   4.938  11.807  2.2111  2.4821  1.7757
17740TIP3    H274636   5.488   4.805  11.878 -2.2998  1.1425 -0.1101
17741TIP3   OH274637   1.584   5.851  16.321 -0.1194 -0.3346 -0.5597
17741TIP3    H174638   1.494   5.884  16.324 -0.1759 -0.4653 -0.7961
17741TIP3    H274639   1.631   5.904  16.385 -0.1643  0.3663 -1.0850
17742TIP3   OH274640   0.841   4.220  15.004  0.5612  0.6537  1.1495
17742TIP3    H174641   0.761   4.272  14.999 -0.4743 -0.7036  2.4481
17742TIP3    H274642   0.835   4.160  14.930  0.4066  0.5889  1.2143
17743TIP3   OH274643   3.213   1.027   4.672  0.3036  0.4541  0.7858
17743TIP3    H174644   3.186   0.994   4.586 -1.5699 -0.8004  1.7721
17743TIP3    H274645   3.154   1.099   4.690  0.5347  0.5641  1.1173
17744TIP3   OH274646   5.964   3.057  14.921  0.0003 -0.2401 -0.7128
17744TIP3    H174647   6.036   3.120  14.920 -0.4250  0.3727  1.7026
17744TIP3    H274648   5.983   2.999  14.994 -2.8991  1.2182  1.4123
17745TIP3   OH274649   5.255   6.120   5.970  0.2296 -0.1911  0.2095
17745TIP3    H174650   5.231   6.036   6.009  1.1655 -3.2364 -4.8472
17745TIP3    H274651   5.350   6.118   5.966  0.3447  1.7911  1.1541
17746TIP3   OH274652   6.636   5.793   1.204  0.3636 -0.2353 -0.3870
17746TIP3    H174653   6.601   5.734   1.138  2.1781  0.6531 -2.2430
17746TIP3    H274654   6.711   5.747   1.241  0.3868 -0.0452 -0.1959
17747TIP3   OH274655   6.268   0.108   5.487 -0.1437  0.4700  0.2084
17747TIP3    H174656   6.215   0.029   5.495 -0.4823  0.5890 -0.7225
17747TIP3    H274657   6.340   0.083   5.430 -1.2079  1.2732 -1.5710
17748TIP3   OH274658   4.946   5.252  14.798  0.1734  0.2399 -0.0491
17748TIP3    H174659   4.984   5.315  14.737  2.1744 -0.3618  0.4799
17748TIP3    H274660   5.007   5.177  14.796 -1.9310 -1.5716 -0.4282
17749TIP3   OH274661   0.392   0.097   4.696  0.0862  1.0880  0.6051
17749TIP3    H174662   0.331   0.125   4.628 -0.6670 -0.4300  0.6045
17749TIP3    H274663   0.338   0.048   4.758  1.2503  0.0085  0.8028
17750TIP3   OH274664   3.964   5.906  15.293  0.6009  0.5535  0.2678
17750TIP3    H174665   3.888   5.863  15.333  1.2956 -0.7329  0.2345
17750TIP3    H274666   3.928   5.952  15.217 -0.1935  0.1882  0.4096
17751TIP3   OH274667   5.446   4.941  14.559 -0.2084 -0.5053  1.2769
17751TIP3    H174668   5.485   4.855  14.572 -0.6217 -0.6776  1.4062
17751TIP3    H274669   5.444   4.980  14.647  3.2435  1.1072  0.8018
17752TIP3   OH274670   1.682   3.811   0.728  0.0983  0.5306  0.3760
17752TIP3    H174671   1.716   3.877   0.667 -1.4394  0.3600 -0.7077
17752TIP3    H274672   1.758   3.756   0.748  0.5920  0.4003 -1.6550
17753TIP3   OH274673   4.749   4.634  17.003  0.7498 -0.0848  0.1614
17753TIP3    H174674   4.675   4.574  17.006 -0.4665  1.0552 -2.8072
17753TIP3    H274675   4.826   4.578  16.999  0.0121 -1.3134  2.0678
17754TIP3   OH274676   0.880   6.249   4.205  0.0795  0.2112 -0.0905
17754TIP3    H174677   0.894   6.201   4.123  1.8140 -1.1784  0.9391
17754TIP3    H274678   0.929   6.199   4.270 -2.8287  0.1603  2.2144
17755TIP3   OH274679   2.820   3.776  12.031  0.2288  0.0511  0.4242
17755TIP3    H174680   2.895   3.812  11.983 -1.2802  2.1117 -0.5073
17755TIP3    H274681   2.854   3.694  12.069  2.3832 -0.0886 -1.5564
17756TIP3   OH274682   0.169   6.245  12.002 -0.1769 -0.6021  0.0231
17756TIP3    H174683   0.231   6.293  11.948  1.6750 -1.3657  1.3571
17756TIP3    H274684   0.181   6.153  11.977  0.8815 -0.9990  1.7838
17757TIP3   OH274685   5.154   1.821  16.998  0.4323 -0.0675 -0.4327
17757TIP3    H174686   5.207   1.743  17.011  0.0985 -0.4517 -1.2570
17757TIP3    H274687   5.067   1.787  16.976 -0.6843  0.5223  2.6250
17758TIP3   OH274688   4.490   1.252   2.436  0.5546 -0.1616 -0.6846
17758TIP3    H174689   4.423   1.297   2.488  0.0713 -0.6456 -0.8873
17758TIP3    H274690   4.448   1.235   2.352  1.3332  0.6050 -1.2371
17759TIP3   OH274691   1.347   0.258  13.444 -0.0788 -0.0378 -0.4616
17759TIP3    H174692   1.401   0.211  13.380  2.6568 -0.9681  2.3279
17759TIP3    H274693   1.410   0.306  13.498 -2.2435  0.6664  1.5817
17760TIP3   OH274694   5.278   5.819   0.558 -0.0974 -0.0768  0.5743
17760TIP3    H174695   5.270   5.898   0.506 -1.0692 -0.7458 -0.3303
17760TIP3    H274696   5.316   5.848   0.641  0.7903  1.1182 -0.2294
17761TIP3   OH274697   4.397   1.254  12.475  0.2016 -0.2978  0.2437
17761TIP3    H174698   4.392   1.348  12.496  0.6676 -0.2212  0.0193
17761TIP3    H274699   4.450   1.250  12.395  1.7242 -0.8674  1.2255
17762TIP3   OH274700   5.004   3.589  14.450 -0.4164 -0.7150  0.2265
17762TIP3    H174701   4.910   3.598  14.460 -0.6529 -0.7970 -1.6197
17762TIP3    H274702   5.023   3.621  14.362  1.7465  2.3506  1.6184
17763TIP3   OH274703   1.065   4.243   2.589  0.1444 -0.1245 -0.1271
17763TIP3    H174704   1.042   4.324   2.544 -0.6133 -1.6125 -2.6035
17763TIP3    H274705   0.985   4.216   2.634 -0.0078 -0.1818 -0.4296
17764TIP3   OH274706   5.497   6.156  13.088 -0.0126  0.1432 -0.3752
17764TIP3    H174707   5.549   6.236  13.089  0.4443 -0.1536 -0.1803
17764TIP3    H274708   5.534   6.104  13.017  1.1192 -0.8161  0.8716
17765TIP3   OH274709   2.482   6.412  11.433 -0.7579 -0.0799  1.0262
17765TIP3    H174710   2.475   6.407  11.528 -0.8163 -1.4575  0.9759
17765TIP3    H274711   2.561   6.362  11.412 -0.5309  0.5319  0.3726
17766TIP3   OH274712   3.729   4.702   6.234 -0.7998 -0.2159  0.9399
17766TIP3    H174713   3.648   4.726   6.280 -1.5271 -0.1519 -0.3103
17766TIP3    H274714   3.758   4.621   6.278  0.8147  1.8928  4.1421
17767TIP3   OH274715   1.370   3.946  17.241  0.3220  0.1422  0.0608
17767TIP3    H174716   1.406   3.948  17.152  0.7494  0.1112  0.2303
17767TIP3    H274717   1.314   4.023  17.245 -1.4840 -1.0485 -0.9602
17768TIP3   OH274718   5.885   3.403   1.392 -0.0743 -0.4135 -0.2005
17768TIP3    H174719   5.799   3.439   1.414 -0.2733 -1.2162  0.3704
17768TIP3    H274720   5.945   3.477   1.399 -0.5438 -0.0965  0.4982
17769TIP3   OH274721   2.931   2.869   1.021 -0.0695  0.6205 -0.9336
17769TIP3    H174722   2.975   2.786   1.001 -1.0026  0.2914 -1.6985
17769TIP3    H274723   2.984   2.935   0.976  0.4477  0.3995 -0.6578
17770TIP3   OH274724   4.498   5.300   6.669  0.0773  0.4936 -0.2389
17770TIP3    H174725   4.413   5.340   6.653 -1.6423 -2.9121 -0.4884
17770TIP3    H274726   4.496   5.274   6.762  0.7792  0.2082 -0.2926
17771TIP3   OH274727   5.839   0.485   2.040  0.0042 -0.1066  0.4565
17771TIP3    H174728   5.807   0.415   2.097  0.1629  0.6966  1.5517
17771TIP3    H274729   5.932   0.492   2.060  0.1739 -0.1563 -0.2796
17772TIP3   OH274730   5.216   3.725  13.201  0.1030  0.0386 -0.4818
17772TIP3    H174731   5.252   3.812  13.184  0.6005 -0.5140 -2.4934
17772TIP3    H274732   5.205   3.686  13.114 -2.6196 -0.9331  0.1972
17773TIP3   OH274733   1.261   2.889   5.445 -0.6367  0.1788  0.3047
17773TIP3    H174734   1.326   2.822   5.421 -0.0985  1.7757 -3.4198
17773TIP3    H274735   1.178   2.855   5.410 -0.1426  1.8061 -2.7945
17774TIP3   OH274736   6.043   5.835   5.673 -0.8096  0.0285 -0.6515
17774TIP3    H174737   5.955   5.869   5.655 -0.2573  1.5136 -0.7434
17774TIP3    H274738   6.101   5.907   5.646  0.2812  0.8351  3.3151
17775TIP3   OH274739   2.192   4.753  13.691 -0.3142 -0.2102  0.2667
17775TIP3    H174740   2.115   4.809  13.705 -0.2612  0.1425 -0.8044
17775TIP3    H274741   2.205   4.709  13.776  0.8132  2.8486  1.8447
17776TIP3   OH274742   4.830   3.270  14.770 -0.1445 -0.0988 -0.0909
17776TIP3    H174743   4.782   3.188  14.754  0.1736 -0.1338 -0.9068
17776TIP3    H274744   4.762   3.332  14.797 -0.4482 -0.5128  0.1200
17777TIP3   OH274745   6.483   1.900   2.469 -0.2206 -0.1814 -0.4230
17777TIP3    H174746   6.571   1.862   2.469 -0.6399 -1.3116  1.8704
17777TIP3    H274747   6.487   1.971   2.534 -1.2646 -0.9816  0.5458
17778TIP3   OH274748   4.009   1.025  16.577 -0.7412  0.3419  0.0623
17778TIP3    H174749   4.074   1.047  16.644 -0.3989 -1.8660  0.5181
17778TIP3    H274750   4.060   1.011  16.497 -0.8687  0.4228 -0.0335
17779TIP3   OH274751   1.666   2.156  16.704 -0.0849  0.1465 -0.5785
17779TIP3    H174752   1.658   2.251  16.708  0.8692  0.2013  0.5627
17779TIP3    H274753   1.576   2.124  16.709 -0.4540  0.9797 -1.4573
17780TIP3   OH274754   5.597   5.186   1.499 -0.6827 -0.0796  0.4028
17780TIP3    H174755   5.568   5.228   1.580 -0.5370  1.1200 -0.1463
17780TIP3    H274756   5.684   5.151   1.521  0.5829  2.5640  0.0898
17781TIP3   OH274757   2.069   1.192   5.675 -0.3693 -0.2279 -0.2369
17781TIP3    H174758   1.986   1.216   5.715 -0.3650 -0.6932  0.0599
17781TIP3    H274759   2.110   1.275   5.652 -1.0744 -0.0033 -0.7091
17782TIP3   OH274760   2.128   2.085  11.562 -0.4583 -0.6008 -0.0164
17782TIP3    H174761   2.148   2.179  11.558 -0.7233 -0.5501 -0.2363
17782TIP3    H274762   2.213   2.042  11.562 -0.3278 -0.3452  0.5147
17783TIP3   OH274763   3.103   2.316   5.370 -0.2779  0.1269 -0.4819
17783TIP3    H174764   3.154   2.383   5.324  0.6355 -0.8172 -0.8713
17783TIP3    H274765   3.075   2.257   5.300  2.0612 -1.9599  0.2207
17784TIP3   OH274766   5.080   6.335  16.447  0.0275 -0.4974  0.1396
17784TIP3    H174767   5.120   6.255  16.480 -1.9150 -1.5272  0.1720
17784TIP3    H274768   5.138   6.364  16.377  0.4938 -2.2600 -0.2562
17785TIP3   OH274769   4.837   1.613  12.471  0.2061  0.4497 -0.0240
17785TIP3    H174770   4.811   1.604  12.563 -1.7791 -2.5823 -0.7577
17785TIP3    H274771   4.911   1.553  12.461 -0.2388 -0.0186 -0.5904
17786TIP3   OH274772   3.661   6.077   5.766  0.3651 -0.1005  0.2761
17786TIP3    H174773   3.587   6.023   5.739 -0.4932  1.7985 -1.3575
17786TIP3    H274774   3.644   6.099   5.857 -0.6045 -0.4365  0.1805
17787TIP3   OH274775   3.895   4.041  14.161 -0.3340 -0.0227 -0.3762
17787TIP3    H174776   3.834   4.033  14.087  0.6590  1.9272 -1.4970
17787TIP3    H274777   3.900   4.136  14.176  0.7859 -0.2914  1.1086
17788TIP3   OH274778   3.525   3.970  16.306  0.1900 -0.1998  0.1205
17788TIP3    H174779   3.443   3.921  16.306  0.9411 -1.4932 -0.6291
17788TIP3    H274780   3.518   4.028  16.229  0.2629 -0.8194 -0.3611
17789TIP3   OH274781   2.248   3.396  15.840 -0.5473  0.2123 -0.3789
17789TIP3    H174782   2.298   3.471  15.809  2.2275 -0.8877  1.0870
17789TIP3    H274783   2.276   3.323  15.784  1.3363 -0.8910  1.8218
17790TIP3   OH274784   3.744   1.617  13.041  0.4105  0.0083 -0.1000
17790TIP3    H174785   3.836   1.635  13.022  0.2212  1.3756  0.1981
17790TIP3    H274786   3.724   1.670  13.119 -0.7699  0.1568 -0.4745
17791TIP3   OH274787   3.776   5.598  16.601  0.1129  0.0465 -0.2599
17791TIP3    H174788   3.685   5.601  16.573  0.0611 -1.6809 -0.3846
17791TIP3    H274789   3.785   5.672  16.662 -1.9176 -0.9193  1.3406
17792TIP3   OH274790   5.796   6.421   2.115 -0.3333 -0.4538  0.2463
17792TIP3    H174791   5.715   6.403   2.068 -0.5350  1.3941 -0.1703
17792TIP3    H274792   5.772   6.483   2.183  0.8137  0.6246 -0.2797
17793TIP3   OH274793   3.900   3.856   2.044 -0.8894 -0.4885 -0.3170
17793TIP3    H174794   3.904   3.876   2.138  0.4876  0.2024 -0.4916
17793TIP3    H274795   3.957   3.780   2.035  1.4211  1.2082 -0.9691
17794TIP3   OH274796   0.219   0.150  15.380 -0.1666  0.7725  0.3630
17794TIP3    H174797   0.229   0.117  15.469  0.0845  1.7312  0.6965
17794TIP3    H274798   0.135   0.195  15.380  0.3297  1.7264  0.4322
17795TIP3   OH274799   3.238   0.226   4.313 -0.3576 -0.4044  0.3560
17795TIP3    H174800   3.211   0.184   4.394  0.0167 -0.9007  0.2294
17795TIP3    H274801   3.159   0.268   4.279 -1.1739 -2.4474 -0.3904
17796TIP3   OH274802   0.862   1.539  14.845  0.4646  0.0277 -0.1837
17796TIP3    H174803   0.889   1.599  14.915  0.2770 -0.5255  0.3720
17796TIP3    H274804   0.942   1.494  14.819  0.8656  1.4119 -1.5048
17797TIP3   OH274805   4.801   4.612   1.788  0.5717 -0.0873 -0.0200
17797TIP3    H174806   4.708   4.615   1.811  0.4115 -0.7625 -0.5241
17797TIP3    H274807   4.838   4.546   1.847  0.4566 -0.7642 -0.6906
17798TIP3   OH274808   4.563   2.799   5.391 -0.3142  0.0033 -0.0688
17798TIP3    H174809   4.533   2.808   5.301 -0.0354 -0.8227 -0.2557
17798TIP3    H274810   4.528   2.715   5.420  1.0900 -0.6029 -0.0214
17799TIP3   OH274811   0.174   3.284  12.878  0.4899 -0.3070  0.2062
17799TIP3    H174812   0.088   3.244  12.868  0.6220 -0.2486 -1.2982
17799TIP3    H274813   0.229   3.213  12.912  0.1806 -0.7522 -0.2140
17800TIP3   OH274814   4.601   6.149   5.230  0.0112 -0.2294  0.4104
17800TIP3    H174815   4.522   6.103   5.260  0.3896 -2.9301 -2.2167
17800TIP3    H274816   4.661   6.145   5.304 -1.1213 -1.2474  1.3062
17801TIP3   OH274817   3.162   1.336  12.689 -0.9744 -0.0149  0.0580
17801TIP3    H174818   3.190   1.270  12.626  1.1261  1.8286 -1.0512
17801TIP3    H274819   3.112   1.400  12.638  0.7898  1.5222  0.1863
17802TIP3   OH274820   5.618   0.981  17.135  0.6137 -0.4293 -0.3851
17802TIP3    H174821   5.564   1.019  17.066 -0.0660 -1.7186 -0.6010
17802TIP3    H274822   5.697   1.035  17.137 -0.7676  1.6822  0.1316
17803TIP3   OH274823   4.005   6.407  11.078 -0.0879 -0.0809  0.6179
17803TIP3    H174824   3.980   6.399  10.986 -1.6661 -0.9428  1.0963
17803TIP3    H274825   3.985   6.497  11.101 -0.4153 -0.0740  0.3151
17804TIP3   OH274826   4.027   6.046  12.538  0.3046  0.2779 -0.0214
17804TIP3    H174827   3.970   6.092  12.476 -0.4333  1.5510  1.5370
17804TIP3    H274828   4.111   6.093  12.532  0.5734 -0.2893 -0.8205
17805TIP3   OH274829   4.820   0.476   4.878 -0.2233  0.5765 -0.3521
17805TIP3    H174830   4.868   0.394   4.866  2.1460  1.9202 -0.5554
17805TIP3    H274831   4.804   0.507   4.789 -1.0242  0.4135 -0.2713
17806TIP3   OH274832   2.800   4.925  13.738 -0.2704 -0.9666 -0.4534
17806TIP3    H174833   2.730   4.946  13.677 -0.1310  1.3467  0.0802
17806TIP3    H274834   2.854   4.860  13.693 -0.5773  0.1430 -2.4969
17807TIP3   OH274835   2.565   5.648  15.344  0.7138  0.0715  0.1872
17807TIP3    H174836   2.503   5.585  15.308  3.1398 -1.2671 -2.0707
17807TIP3    H274837   2.628   5.594  15.393  1.5937  1.0024  0.1171
17808TIP3   OH274838   0.305   2.066  16.748  0.4552 -0.3916  0.9651
17808TIP3    H174839   0.293   2.127  16.821  0.2318  1.0382 -0.2408
17808TIP3    H274840   0.334   2.120  16.675 -0.2522 -1.6415 -0.2970
17809TIP3   OH274841   0.915   6.708   5.894 -0.8403 -0.2906  0.5308
17809TIP3    H174842   0.849   6.753   5.946 -1.3646 -0.1348 -0.2597
17809TIP3    H274843   0.880   6.620   5.881 -1.1977 -0.0235 -0.4080
17810TIP3   OH274844   5.844   6.074  11.628  0.2333 -0.3676  0.1952
17810TIP3    H174845   5.810   6.060  11.539  0.3047 -2.5088  0.4429
17810TIP3    H274846   5.798   6.152  11.659  1.1682  1.2354 -2.1642
17811TIP3   OH274847   3.098   0.654  15.840 -0.0439 -0.6676 -0.2210
17811TIP3    H174848   3.143   0.686  15.762  0.4240 -1.1988 -0.1768
17811TIP3    H274849   3.051   0.730  15.873  1.6335  0.1897  0.3244
17812TIP3   OH274850   6.672   3.558   0.351  0.7998  0.0138  0.1090
17812TIP3    H174851   6.646   3.612   0.276  0.3544 -0.0365  0.2260
17812TIP3    H274852   6.608   3.579   0.419  1.4439  0.3792  0.6248
17813TIP3   OH274853   4.893   2.931   5.515  0.2239  0.4221  0.6438
17813TIP3    H174854   4.801   2.951   5.527  0.0760  0.6750 -0.7479
17813TIP3    H274855   4.895   2.871   5.441  1.3625  3.1240 -1.7294
17814TIP3   OH274856   0.487   3.159   4.251 -0.1497 -0.1726  0.2823
17814TIP3    H174857   0.554   3.103   4.291  0.1671 -1.1080 -1.4791
17814TIP3    H274858   0.412   3.101   4.240 -0.3664  0.1807 -0.0859
17815TIP3   OH274859   2.858   1.835   4.348  0.3706 -0.1835  0.2659
17815TIP3    H174860   2.890   1.798   4.265  1.4232  1.1827  0.0338
17815TIP3    H274861   2.937   1.860   4.395 -0.2825  1.2030  0.6737
17816TIP3   OH274862   4.525   6.079  13.224  0.3288 -0.1054 -0.2079
17816TIP3    H174863   4.609   6.036  13.238  0.8335  0.7973 -0.4171
17816TIP3    H274864   4.542   6.172  13.239 -0.9866 -0.0659  1.3743
17817TIP3   OH274865   0.638   5.152   6.690  0.1868 -0.1955 -0.5444
17817TIP3    H174866   0.545   5.134   6.704 -0.0737 -0.5490 -2.4562
17817TIP3    H274867   0.679   5.065   6.690  0.4431 -0.0765 -0.2481
17818TIP3   OH274868   0.988   5.105  14.178 -0.1474 -0.1651 -0.1627
17818TIP3    H174869   0.965   5.040  14.112  0.2442  0.9879 -1.4578
17818TIP3    H274870   1.058   5.064  14.229 -0.8398 -1.2799 -0.0677
17819TIP3   OH274871   6.024   4.071  12.618 -0.0945 -0.0437 -0.1625
17819TIP3    H174872   6.100   4.123  12.644 -0.4655  0.4929 -0.1304
17819TIP3    H274873   6.023   4.074  12.523  0.7473 -1.2629 -0.2395
17820TIP3   OH274874   1.421   3.976   2.097  0.5478 -0.1204 -0.1666
17820TIP3    H174875   1.360   4.040   2.136  1.6177  0.9817 -0.2518
17820TIP3    H274876   1.365   3.924   2.039 -0.3942  0.6316  0.0190
17821TIP3   OH274877   3.619   6.117  10.658  0.6295 -0.3219  0.0245
17821TIP3    H174878   3.544   6.073  10.618  1.1511 -2.6448  1.3913
17821TIP3    H274879   3.649   6.179  10.592 -2.7530  1.0675 -0.3720
17822TIP3   OH274880   1.242   5.037  11.191  0.3349  0.2150 -0.3485
17822TIP3    H174881   1.166   5.091  11.167  2.8016  3.3756 -1.7748
17822TIP3    H274882   1.236   4.961  11.134 -1.6402  0.4616 -0.5659
17823TIP3   OH274883   4.000   6.502  13.938  0.0324 -0.2135 -0.3202
17823TIP3    H174884   4.072   6.553  13.976 -0.6492  2.0475 -1.8891
17823TIP3    H274885   3.952   6.564  13.884 -3.1382 -1.6569  0.6422
17824TIP3   OH274886   1.700   0.577   5.182  0.0539  0.5004 -0.2362
17824TIP3    H174887   1.731   0.580   5.091 -0.9896  0.5571 -0.6048
17824TIP3    H274888   1.701   0.668   5.210 -2.0009  0.8353 -1.0548
17825TIP3   OH274889   0.887   2.831  11.727  0.4680  0.4175  0.3810
17825TIP3    H174890   0.797   2.829  11.693 -0.5250  0.7620  2.7786
17825TIP3    H274891   0.878   2.809  11.819  2.9579 -0.1434  0.5575
17826TIP3   OH274892   0.782   2.363  14.131  0.3442  0.0733 -0.4008
17826TIP3    H174893   0.840   2.435  14.106 -0.5617  1.7394  1.8962
17826TIP3    H274894   0.736   2.340  14.050  1.4515  1.3398 -1.4348
17827TIP3   OH274895   0.503   3.791   4.457  0.5611  0.0855  0.1832
17827TIP3    H174896   0.580   3.842   4.485  1.2684  0.1287 -1.6539
17827TIP3    H274897   0.540   3.711   4.420  0.0178  1.1044 -2.9235
17828TIP3   OH274898   0.407   5.262  13.318 -0.3144 -0.2468 -0.2562
17828TIP3    H174899   0.455   5.204  13.378  0.6184  0.2105 -0.5416
17828TIP3    H274900   0.382   5.337  13.373 -0.0397 -0.1414 -0.2686
17829TIP3   OH274901   0.666   2.604   3.611  0.2307  0.3990 -0.0345
17829TIP3    H174902   0.721   2.680   3.595  1.2176 -0.7124 -2.4082
17829TIP3    H274903   0.587   2.620   3.558 -0.1460  0.3458  0.5007
17830TIP3   OH274904   5.833   6.464  17.253  0.1097  0.3240  0.4485
17830TIP3    H174905   5.916   6.464  17.301  0.1954 -0.8687  0.3320
17830TIP3    H274906   5.815   6.557  17.235  1.0287  0.6443  1.1301
17831TIP3   OH274907   5.562   1.845   6.147  0.3248  0.1280 -0.4533
17831TIP3    H174908   5.570   1.870   6.239 -1.1760  1.5811 -0.6697
17831TIP3    H274909   5.555   1.750   6.149 -1.2275  0.2173  1.1116
17832TIP3   OH274910   2.118   0.243  12.901  0.5204  0.1877 -0.5807
17832TIP3    H174911   2.118   0.227  12.996  1.4648 -2.3649 -0.9172
17832TIP3    H274912   2.031   0.216  12.873  0.0918  1.3479 -0.4238
17833TIP3   OH274913   1.285   4.421  15.763  0.2041  0.5210 -0.2861
17833TIP3    H174914   1.311   4.330  15.750  2.5685  1.3307 -1.9590
17833TIP3    H274915   1.207   4.432  15.708  0.5193 -0.2420 -0.9008
17834TIP3   OH274916   3.952   4.633  12.966  0.0637 -0.0492  0.2160
17834TIP3    H174917   4.009   4.586  13.027  1.4772  0.9684 -0.2767
17834TIP3    H274918   3.890   4.567  12.936  1.7807 -1.5349 -0.2148
17835TIP3   OH274919   3.794   3.202   1.329  0.3001  0.3014 -0.6767
17835TIP3    H174920   3.790   3.257   1.407 -0.6614  0.8403 -1.0874
17835TIP3    H274921   3.804   3.113   1.363  0.8751  0.6232  0.0228
17836TIP3   OH274922   4.582   2.843  16.793  0.2879 -0.2798 -0.0227
17836TIP3    H174923   4.630   2.918  16.757  0.2606 -0.3462 -0.1991
17836TIP3    H274924   4.643   2.770  16.785 -0.6190 -0.8685 -2.3639
17837TIP3   OH274925   4.912   3.864  15.699  0.1129 -0.4725  0.0028
17837TIP3    H174926   4.985   3.921  15.673  1.0680 -1.5450  0.2190
17837TIP3    H274927   4.879   3.829  15.617 -1.1216  1.1022 -0.2142
17838TIP3   OH274928   3.392   5.182  11.697  0.2209  0.2411  0.3439
17838TIP3    H174929   3.472   5.137  11.723  0.8668  0.0399 -1.7395
17838TIP3    H274930   3.422   5.264  11.657 -0.6227  0.2732 -0.2572
17839TIP3   OH274931   1.479   1.758   5.908  0.8433  0.5680  0.6915
17839TIP3    H174932   1.514   1.823   5.968  0.3591  1.1130  0.3874
17839TIP3    H274933   1.540   1.684   5.915 -0.4523 -0.3863  3.6647
17840TIP3   OH274934   3.374   5.103   4.077  0.2224  0.3561 -0.0280
17840TIP3    H174935   3.406   5.179   4.126 -2.7690  0.8204  1.4396
17840TIP3    H274936   3.313   5.140   4.013  0.0337 -0.6778 -0.4566
17841TIP3   OH274937   2.640   2.926  17.417 -0.4072  0.5798  0.0777
17841TIP3    H174938   2.708   2.879  17.464  0.1790  0.2299 -1.0915
17841TIP3    H274939   2.584   2.962  17.486  0.5743  0.3176  1.0411
17842TIP3   OH274940   2.072   1.784   3.311  0.3880  0.2385 -0.1590
17842TIP3    H174941   2.094   1.704   3.358  1.2140  0.3338 -0.3708
17842TIP3    H274942   1.976   1.790   3.317  0.4196 -0.1231  0.8944
17843TIP3   OH274943   2.906   5.080  11.943  0.5163  0.4724  0.6729
17843TIP3    H174944   2.999   5.102  11.945  0.9932 -1.1878 -0.7597
17843TIP3    H274945   2.896   5.012  12.010  0.3656  0.4704  0.6491
17844TIP3   OH274946   2.158   0.753  14.253 -0.2003  0.2113 -0.2195
17844TIP3    H174947   2.184   0.757  14.345  2.3969  0.9816 -0.9035
17844TIP3    H274948   2.072   0.794  14.250  0.3537  1.6172  1.6545
17845TIP3   OH274949   0.310   4.062   4.990 -0.3729  0.1680  0.6425
17845TIP3    H174950   0.263   4.124   4.934 -2.4967 -0.5853  1.4695
17845TIP3    H274951   0.345   3.997   4.929 -1.2583  0.2450  0.0219
17846TIP3   OH274952   0.319   1.955   0.734 -0.1248 -0.2494 -0.0412
17846TIP3    H174953   0.291   2.045   0.750 -2.1563 -0.6647 -0.8326
17846TIP3    H274954   0.324   1.949   0.638  1.0123 -0.7074  0.0389
17847TIP3   OH274955   3.261   1.121  15.912 -0.7653  0.6979 -0.1241
17847TIP3    H174956   3.308   1.066  15.975 -0.2300 -3.8828 -3.9988
17847TIP3    H274957   3.168   1.107  15.933 -0.6565  2.4631  1.9010
17848TIP3   OH274958   5.376   0.126   2.741 -0.2686  0.3773 -0.1182
17848TIP3    H174959   5.427   0.059   2.695 -0.0370  0.3125  0.2320
17848TIP3    H274960   5.296   0.082   2.768 -0.5412  0.4902 -0.7087
17849TIP3   OH274961   4.945   3.292  12.371 -0.0388 -0.2648  0.0567
17849TIP3    H174962   4.858   3.325  12.390 -0.3593 -0.9194 -0.2325
17849TIP3    H274963   4.930   3.217  12.312  0.7889  0.3601 -0.9776
17850TIP3   OH274964   6.719   4.441  11.968 -0.1235 -0.0495 -0.1512
17850TIP3    H174965   6.746   4.428  12.059 -0.2510 -0.0327 -0.1109
17850TIP3    H274966   6.766   4.519  11.940 -0.0445 -0.0836 -0.1163
17851TIP3   OH274967   4.841   3.309  11.509  0.3435 -0.3753 -0.0201
17851TIP3    H174968   4.907   3.277  11.570 -1.0525 -0.3301  1.5788
17851TIP3    H274969   4.758   3.300  11.556 -0.6719  0.6651 -1.5219
17852TIP3   OH274970   4.980   3.058  15.473  0.3321 -0.0333 -0.1319
17852TIP3    H174971   4.887   3.077  15.473  0.2927 -0.2260 -0.1524
17852TIP3    H274972   4.994   3.001  15.398  0.7394  1.2909 -1.0867
17853TIP3   OH274973   5.273   0.720  16.453  0.3141  0.3289 -0.6717
17853TIP3    H174974   5.180   0.732  16.432  0.5675  0.2209 -1.9571
17853TIP3    H274975   5.308   0.808  16.462 -0.2190  0.3662  1.3780
17854TIP3   OH274976   0.053   2.355   6.422 -0.3843  0.2409 -0.3242
17854TIP3    H174977   0.090   2.437   6.454 -1.1375  0.3299  0.3487
17854TIP3    H274978  -0.042   2.371   6.418 -0.5633 -0.6648  0.0219
17855TIP3   OH274979   0.639   3.716   5.657 -0.0363 -0.4517  0.8051
17855TIP3    H174980   0.573   3.784   5.648  0.9525  0.4601  0.2801
17855TIP3    H274981   0.612   3.648   5.594 -1.0684 -0.6104  1.3929
17856TIP3   OH274982   5.921   1.234  12.809  0.0741  0.3196  0.4600
17856TIP3    H174983   5.857   1.245  12.879 -2.3062  0.4985 -1.6182
17856TIP3    H274984   5.938   1.323  12.778  0.3566  0.1670  0.1738
17857TIP3   OH274985   5.230   2.418  14.019  0.5360 -0.0065 -0.3540
17857TIP3    H174986   5.270   2.491  14.068  0.7475 -0.8367  0.7541
17857TIP3    H274987   5.205   2.355  14.087  2.7942 -2.2108 -1.3951
17858TIP3   OH274988   6.584   0.173   4.205 -0.0242  0.2015 -0.8114
17858TIP3    H174989   6.493   0.200   4.216 -0.3538  0.9393 -4.1902
17858TIP3    H274990   6.632   0.254   4.187  1.3611 -0.1653  0.9908
17859TIP3   OH274991   2.197   0.998   5.273 -0.2767  0.3366 -0.5781
17859TIP3    H174992   2.241   0.957   5.348  0.6697  2.6492  0.2332
17859TIP3    H274993   2.104   0.994   5.294 -0.1130 -0.3267  0.0380
17860TIP3   OH274994   1.879   1.225   5.170 -0.2411  0.1606 -0.4238
17860TIP3    H174995   1.846   1.315   5.163  1.2666  0.6654 -1.5915
17860TIP3    H274996   1.927   1.223   5.253 -0.0912  0.5022 -0.5025
17861TIP3   OH274997   4.440   1.573   4.270  0.6168  0.1185 -1.0209
17861TIP3    H174998   4.524   1.618   4.261  1.5008 -0.6451  2.1781
17861TIP3    H274999   4.383   1.637   4.311  0.0404  0.1364 -1.8174
17862TIP3   OH275000   4.193   2.648   3.837 -0.4590  0.1708 -0.1152
17862TIP3    H175001   4.203   2.721   3.775 -0.6870  0.4840  0.2124
17862TIP3    H275002   4.169   2.573   3.782 -0.5312  0.4147 -0.4182
17863TIP3   OH275003   4.687   2.106   6.043 -0.6827  0.1283 -0.0873
17863TIP3    H175004   4.629   2.102   6.119  1.8589  2.0993  2.1256
17863TIP3    H275005   4.759   2.047   6.065 -0.1658  0.3135 -1.2436
17864TIP3   OH275006   4.448   6.399   1.924 -0.3741 -0.1019  0.0425
17864TIP3    H175007   4.388   6.452   1.872 -0.4109 -0.1009  0.0867
17864TIP3    H275008   4.510   6.364   1.859  1.1331  1.9225  0.2483
17865TIP3   OH275009   1.265   1.297  17.055  0.4494  0.0247  0.3524
17865TIP3    H175010   1.315   1.344  17.121  0.2555  0.0241  0.5015
17865TIP3    H275011   1.239   1.365  16.992  2.1907 -0.2551 -0.7242
17866TIP3   OH275012   6.469   1.300   0.901  0.0299  0.2836  0.1608
17866TIP3    H175013   6.521   1.326   0.825  0.4459  0.7162  0.5842
17866TIP3    H275014   6.534   1.271   0.965 -0.3341 -0.2964  0.2744
17867TIP3   OH275015   2.652   0.108  13.038  0.4439  0.7048 -0.2998
17867TIP3    H175016   2.559   0.128  13.051  0.5130  0.7442  0.1561
17867TIP3    H275017   2.678   0.161  12.963 -0.1593 -0.1036 -1.0894
17868TIP3   OH275018   3.834   5.545  16.329  0.2179  0.1327  0.0667
17868TIP3    H175019   3.806   5.631  16.299 -0.3547 -0.1530 -0.2417
17868TIP3    H275020   3.802   5.539  16.419  0.9607  0.5534  0.3633
17869TIP3   OH275021   3.706   3.645   0.965  0.0268  0.2359  0.5085
17869TIP3    H175022   3.730   3.668   0.876 -0.7550  0.4513  0.3437
17869TIP3    H275023   3.678   3.553   0.960  1.7654 -0.3519  0.8960
17870TIP3   OH275024   3.118   4.646   2.639 -0.5063  0.0529  0.2333
17870TIP3    H175025   3.157   4.712   2.581 -0.7277  0.7840  0.8937
17870TIP3    H275026   3.040   4.616   2.592  0.2177 -0.6120 -0.5969
17871TIP3   OH275027   2.430   2.903   2.693  0.3528  0.0094  0.0217
17871TIP3    H175028   2.435   2.871   2.783  0.9050 -0.3252 -0.1256
17871TIP3    H275029   2.410   2.996   2.702 -0.3885 -0.1845  0.4694
17872TIP3   OH275030   3.506   3.843  14.092  0.2295  0.3458 -0.3407
17872TIP3    H175031   3.456   3.835  14.011 -1.5191 -0.8495  0.7733
17872TIP3    H275032   3.460   3.910  14.143  0.1446 -0.2537  0.4066
17873TIP3   OH275033   4.141   3.100   1.464 -0.8620 -0.1063 -0.2133
17873TIP3    H175034   4.131   3.102   1.559 -0.8092 -1.6816 -0.1372
17873TIP3    H275035   4.193   3.021   1.447 -2.1854 -0.7332 -1.6306
17874TIP3   OH275036   6.318   1.920  15.366 -0.4675  0.1065  0.1171
17874TIP3    H175037   6.339   1.893  15.456  2.6740 -1.3189 -0.9192
17874TIP3    H275038   6.351   2.009  15.360  1.7539 -0.6807 -0.2719
17875TIP3   OH275039   5.460   0.842  14.966  0.8842 -0.4838 -0.2001
17875TIP3    H175040   5.448   0.908  14.899  1.9598  0.5464  0.5830
17875TIP3    H275041   5.425   0.761  14.927  2.1703 -0.1072 -2.2886
17876TIP3   OH275042   3.457   0.030   4.736  0.2998 -0.1525  0.2897
17876TIP3    H175043   3.523   0.028   4.668  0.9326  0.8003  0.8492
17876TIP3    H275044   3.399   0.102   4.711  0.3337 -0.0273  0.5607
17877TIP3   OH275045   4.351   0.092   2.476 -0.1365 -0.2414 -0.0906
17877TIP3    H175046   4.312   0.010   2.446  1.5342 -0.4204 -1.9991
17877TIP3    H275047   4.329   0.097   2.569 -2.9942 -1.2192 -0.6146
17878TIP3   OH275048   4.211   1.688  15.937  0.0235  0.1942  0.2611
17878TIP3    H175049   4.286   1.660  15.989 -0.1813 -1.2665 -0.1827
17878TIP3    H275050   4.208   1.783  15.948 -0.4102 -0.1068  3.4133
17879TIP3   OH275051   1.875   4.289  16.833 -1.0485  0.3185  0.3300
17879TIP3    H175052   1.833   4.373  16.851 -1.6110 -0.1643  1.3274
17879TIP3    H275053   1.849   4.233  16.905  0.9610 -0.1276  0.7731
17880TIP3   OH275054   1.470   0.170   4.542  0.1202 -0.1662  0.3673
17880TIP3    H175055   1.508   0.238   4.598 -0.8060 -1.3414  2.5422
17880TIP3    H275056   1.496   0.195   4.453  2.7040  1.1449  1.3849
17881TIP3   OH275057   0.746   6.401  12.467 -0.0945  0.4924 -0.1404
17881TIP3    H175058   0.816   6.342  12.438 -1.7107 -1.6777  0.1547
17881TIP3    H275059   0.716   6.364  12.550 -1.5595  1.4165 -0.2284
17882TIP3   OH275060   3.102   1.700   1.204 -0.1052  0.5140 -0.5376
17882TIP3    H175061   3.131   1.612   1.230 -2.7707 -0.7723 -1.4434
17882TIP3    H275062   3.088   1.746   1.287  0.2482 -0.3280  0.0058
17883TIP3   OH275063   2.342   2.176  14.543  0.6637 -0.3711  0.1809
17883TIP3    H175064   2.289   2.100  14.518 -0.6320  0.0085  1.6220
17883TIP3    H275065   2.420   2.169  14.488 -0.3167 -1.6293 -1.1445
17884TIP3   OH275066   3.575   4.246  11.602 -0.4407  0.3101  0.2290
17884TIP3    H175067   3.563   4.274  11.511 -2.3152  0.4578  0.4769
17884TIP3    H275068   3.489   4.261  11.643  0.0596 -0.7486  1.7517
17885TIP3   OH275069   1.060   5.643  13.188  0.3352  0.3576 -0.0319
17885TIP3    H175070   1.121   5.628  13.261  1.6244 -0.0479 -1.1659
17885TIP3    H275071   1.114   5.681  13.119 -0.6913 -0.0797 -1.0943
17886TIP3   OH275072   4.635   3.912  14.523  0.5048 -0.3026 -0.0924
17886TIP3    H175073   4.686   3.992  14.537  0.5156 -0.1621 -0.8857
17886TIP3    H275074   4.697   3.849  14.488  0.7144 -0.9861  1.4251
17887TIP3   OH275075   1.401   6.458   2.724  0.3495 -0.1748 -0.2006
17887TIP3    H175076   1.428   6.470   2.633  1.1259 -0.7872 -0.0643
17887TIP3    H275077   1.445   6.378   2.752  0.6076  0.3216  0.8956
17888TIP3   OH275078   5.441   6.338  11.114 -0.2361  0.0631  0.1308
17888TIP3    H175079   5.431   6.433  11.122  0.2766  0.0613  0.9691
17888TIP3    H275080   5.525   6.319  11.157 -0.8578 -0.8823  0.9865
17889TIP3   OH275081   1.897   4.456   1.953  1.1724 -0.5824  0.4782
17889TIP3    H175082   1.945   4.404   1.889  1.4486 -0.8704  0.9168
17889TIP3    H275083   1.805   4.448   1.927  1.1485 -1.7998  0.9099
17890TIP3   OH275084   4.238   0.074  11.158 -0.1434  0.0649 -0.5360
17890TIP3    H175085   4.317   0.095  11.208  0.1305 -2.4846  0.2201
17890TIP3    H275086   4.249   0.122  11.076  0.6281  2.2813  0.7682
17891TIP3   OH275087   2.054   6.551   6.083 -0.3567  0.3069  0.2947
17891TIP3    H175088   2.124   6.606   6.047  1.3394 -0.1864  2.5808
17891TIP3    H275089   2.011   6.607   6.149 -1.7874  0.4111 -0.6891
17892TIP3   OH275090   3.085   1.547  15.702  0.3218 -0.2195  0.2874
17892TIP3    H175091   3.154   1.499  15.747 -1.2538 -2.2697  0.6916
17892TIP3    H275092   3.073   1.627  15.753  0.3085 -1.3069  2.0495
17893TIP3   OH275093   0.929   2.268  15.624  0.0839  0.5584  0.1824
17893TIP3    H175094   0.915   2.174  15.614 -2.0936  0.8309  0.1715
17893TIP3    H275095   1.014   2.275  15.667 -0.1118 -1.4510  1.0250
17894TIP3   OH275096   6.466   5.629   6.055  0.6262  0.3063 -0.0197
17894TIP3    H175097   6.502   5.587   6.134 -2.1592 -2.0344  0.1531
17894TIP3    H275098   6.398   5.687   6.087  1.3823  1.5655 -0.6008
17895TIP3   OH275099   1.529   5.281   3.499  0.2502  0.2154  0.0471
17895TIP3    H175100   1.579   5.205   3.528 -1.0560 -0.8295 -0.3787
17895TIP3    H275101   1.542   5.345   3.569  2.0953 -0.0257 -0.0084
17896TIP3   OH275102   0.491   4.756   0.636  0.2025  0.0343 -0.3718
17896TIP3    H175103   0.485   4.682   0.576  1.0974  0.3020 -0.8023
17896TIP3    H275104   0.443   4.728   0.714  0.2070 -0.8504 -0.6830
17897TIP3   OH275105   4.401   0.986   1.196 -0.5208  0.3404  0.2906
17897TIP3    H175106   4.388   0.893   1.217  0.9850 -0.3461 -1.5580
17897TIP3    H275107   4.496   0.997   1.195 -0.5993  1.3113 -1.8136
17898TIP3   OH275108   4.422   5.747   3.547 -1.1187 -0.1702  0.4643
17898TIP3    H175109   4.333   5.715   3.533 -0.5290 -1.6014 -0.3205
17898TIP3    H275110   4.425   5.772   3.639 -2.1044 -0.9280  0.7177
17899TIP3   OH275111   0.515   6.291   3.033 -0.0251  0.5998 -0.1462
17899TIP3    H175112   0.569   6.287   2.954 -0.4862  3.1576 -0.6762
17899TIP3    H275113   0.487   6.382   3.038 -1.7727  0.0246  1.8190
17900TIP3   OH275114   4.025   4.178   0.889  0.3318  0.0910 -0.4095
17900TIP3    H175115   3.997   4.216   0.972 -1.3962  1.2710 -1.4587
17900TIP3    H275116   3.997   4.086   0.895 -0.8193  0.4389 -0.0938
17901TIP3   OH275117   1.225   2.300  16.590 -0.2253 -0.1001  0.3763
17901TIP3    H175118   1.300   2.246  16.614 -0.1437  0.9553  2.7859
17901TIP3    H275119   1.167   2.295  16.666 -1.9295  0.2663 -0.8567
17902TIP3   OH275120   0.013   6.114  14.075 -0.0829  0.4244 -0.1647
17902TIP3    H175121  -0.027   6.080  14.155 -0.0302 -0.3755 -0.4775
17902TIP3    H275122   0.105   6.128  14.098  0.1470 -0.7079 -0.3508
17903TIP3   OH275123   1.291   4.917   1.362 -0.3966 -0.2248  0.2939
17903TIP3    H175124   1.372   4.910   1.312 -0.4977 -1.5660  0.2643
17903TIP3    H275125   1.233   4.970   1.308 -0.0835 -0.6166 -0.4433
17904TIP3   OH275126   2.230   5.201   5.144 -0.2744 -0.1380  0.9379
17904TIP3    H175127   2.294   5.185   5.213 -0.1535 -2.1494  0.4171
17904TIP3    H275128   2.232   5.122   5.090 -1.8840  0.5044 -0.1481
17905TIP3   OH275129   4.902   1.062   6.090  0.0908 -0.2714  0.2220
17905TIP3    H175130   4.989   1.029   6.068  0.7649  1.2619  0.4682
17905TIP3    H275131   4.877   1.013   6.168 -0.1143 -2.0779 -0.9261
17906TIP3   OH275132   6.732   4.155  17.389 -0.0999 -0.1601 -0.0376
17906TIP3    H175133   6.827   4.147  17.396 -0.1462 -0.2340  0.5275
17906TIP3    H275134   6.715   4.160  17.295  0.7785  3.6636 -0.1462
17907TIP3   OH275135   0.527   3.272  14.218 -0.0599 -0.4832 -0.6154
17907TIP3    H175136   0.521   3.359  14.259  1.9540 -0.3919 -0.4430
17907TIP3    H275137   0.579   3.285  14.140 -0.5353 -1.3982 -1.1051
17908TIP3   OH275138   3.563   1.475   3.304  0.0805 -0.1538 -0.1329
17908TIP3    H175139   3.551   1.557   3.352 -0.1332 -0.0245 -0.4085
17908TIP3    H275140   3.475   1.449   3.277 -0.2050 -1.7504  2.0307
17909TIP3   OH275141   2.935   3.004   5.148  0.3740  0.0177 -1.0179
17909TIP3    H175142   2.970   3.036   5.231  1.0505 -1.6410 -0.6392
17909TIP3    H275143   2.840   2.998   5.163  0.1571  2.0932 -1.2222
17910TIP3   OH275144   6.674   0.657  16.095  0.2776 -0.6325 -0.2508
17910TIP3    H175145   6.583   0.644  16.070  0.0449  0.5360 -0.0643
17910TIP3    H275146   6.687   0.601  16.171 -0.1430 -1.1532 -0.5571
17911TIP3   OH275147   1.826   3.907  12.022  0.4587 -0.3690  0.3337
17911TIP3    H175148   1.857   3.845  11.956  1.6800 -0.5085  1.0153
17911TIP3    H275149   1.768   3.966  11.974  1.3160 -0.4720 -0.8619
17912TIP3   OH275150   3.519   4.603  11.214  0.1648 -0.5778  0.3409
17912TIP3    H175151   3.608   4.593  11.181 -0.6825  0.8607 -2.6408
17912TIP3    H275152   3.464   4.559  11.150 -1.4143 -0.2846  1.4299
17913TIP3   OH275153   5.017   4.009   1.052 -0.4119  0.5616  0.1132
17913TIP3    H175154   4.929   3.981   1.027  0.0460 -2.8105  1.6772
17913TIP3    H275155   5.004   4.052   1.137 -0.6357  0.7722 -0.0265
17914TIP3   OH275156   5.019   0.479   4.026 -0.5048  0.2399  0.1257
17914TIP3    H175157   5.084   0.411   4.043 -0.9565  0.1287  1.5972
17914TIP3    H275158   4.950   0.434   3.977  0.0076  0.0802 -0.4568
17915TIP3   OH275159   3.017   3.686   5.112 -0.0113  0.3102  0.1680
17915TIP3    H175160   3.096   3.643   5.147  1.0633  0.9557 -1.3371
17915TIP3    H275161   3.000   3.640   5.030 -3.0946 -1.8753  1.8020
17916TIP3   OH275162   5.402   4.411   1.517  0.0837 -0.4038 -0.3660
17916TIP3    H175163   5.420   4.400   1.424  3.1956  0.4875  0.0047
17916TIP3    H275164   5.335   4.480   1.521  0.6302  0.2414 -1.9235
17917TIP3   OH275165   4.475   2.309  14.190 -0.5313 -0.3078 -0.7705
17917TIP3    H175166   4.437   2.386  14.149 -1.3146 -0.9821 -1.3409
17917TIP3    H275167   4.400   2.262  14.227  0.0405 -0.2570  0.5332
17918TIP3   OH275168   3.289   0.250  14.201 -0.4338  0.1549  0.0943
17918TIP3    H175169   3.194   0.235  14.201 -0.7648  2.0122  0.3330
17918TIP3    H275170   3.327   0.162  14.204 -2.1013 -0.7357 -2.0085
17919TIP3   OH275171   2.364   1.765  12.690 -0.3261  0.0138 -0.2416
17919TIP3    H175172   2.359   1.698  12.758  2.4247  0.5167  0.5731
17919TIP3    H275173   2.456   1.767  12.664 -0.5975  2.4409 -1.3155
17920TIP3   OH275174   5.521   3.410  16.972  0.4138 -0.0789  0.2488
17920TIP3    H175175   5.586   3.480  16.971 -1.5068  1.8574 -2.6230
17920TIP3    H275176   5.460   3.433  16.902 -1.3967 -3.6710  0.4442
17921TIP3   OH275177   0.246   5.902  12.741 -0.0178 -0.7162 -0.7636
17921TIP3    H175178   0.198   5.922  12.661  0.2019  0.6295 -0.5862
17921TIP3    H275179   0.294   5.822  12.721  0.3785 -0.1672 -2.1381
17922TIP3   OH275180   1.976   0.290   0.693 -0.1671  0.2066 -0.8943
17922TIP3    H175181   1.963   0.384   0.710 -1.9070 -0.5776  3.3506
17922TIP3    H275182   2.062   0.271   0.731 -0.6095 -0.2076 -0.0829
17923TIP3   OH275183   5.068   0.808  13.691  0.0177  0.3135  0.8642
17923TIP3    H175184   4.991   0.759  13.719 -0.1562 -1.4409 -2.2143
17923TIP3    H275185   5.035   0.897  13.677 -0.2725  0.8199  3.9805
17924TIP3   OH275186   5.703   3.090  16.132 -0.4125 -0.5491 -0.7982
17924TIP3    H175187   5.691   3.177  16.170  2.5106 -0.4881  0.2214
17924TIP3    H275188   5.750   3.105  16.051  1.1574 -1.2108 -0.0453
17925TIP3   OH275189   6.706   0.530   6.457 -0.6722 -0.0350 -0.0750
17925TIP3    H175190   6.737   0.447   6.421  1.2493  0.4562  0.3095
17925TIP3    H275191   6.640   0.561   6.395  0.4184 -0.6290 -1.5759
17926TIP3   OH275192   4.967   6.620  12.255  0.3460  0.0820 -0.2724
17926TIP3    H175193   4.912   6.680  12.205  0.7006 -0.0304 -0.8075
17926TIP3    H275194   5.028   6.584  12.190  0.3104 -0.6521  0.0924
17927TIP3   OH275195   5.970   6.199   2.061  0.4925 -0.5827 -0.1193
17927TIP3    H175196   5.920   6.123   2.031 -0.8026 -0.0246  0.5285
17927TIP3    H275197   5.904   6.267   2.074  1.6593  0.7618 -0.9750
17928TIP3   OH275198   0.908   0.791   4.540  0.2558  0.0383 -1.7375
17928TIP3    H175199   0.980   0.843   4.503 -0.1313  0.4568 -1.9225
17928TIP3    H275200   0.951   0.724   4.592  0.7563  1.4810 -0.2107
17929TIP3   OH275201   2.290   1.687   0.137 -0.2538  0.1175 -0.3973
17929TIP3    H175202   2.372   1.737   0.136 -0.3031  0.2136 -0.0221
17929TIP3    H275203   2.308   1.614   0.197 -0.2206 -0.2469 -0.8470
17930TIP3   OH275204   1.047   5.919  13.218 -0.7424  0.1588  0.2710
17930TIP3    H175205   1.093   5.836  13.232 -0.7892  0.2478  1.0183
17930TIP3    H275206   1.099   5.983  13.267 -0.9177  0.5049  0.0091
17931TIP3   OH275207   5.191   3.927   0.514 -0.1405 -0.2292 -0.2309
17931TIP3    H175208   5.109   3.897   0.475 -0.0306  0.2516 -0.8491
17931TIP3    H275209   5.171   4.014   0.547  0.4313  0.4043 -1.4868
17932TIP3   OH275210   1.815   2.955  15.436 -0.0761  0.4904  0.2155
17932TIP3    H175211   1.820   2.986  15.526 -3.1098 -0.0305  0.6662
17932TIP3    H275212   1.825   2.860  15.443  0.4431  0.5184 -0.1033
17933TIP3   OH275213   5.237   3.816   0.767  0.6805 -1.0479 -0.4675
17933TIP3    H175214   5.230   3.860   0.682 -0.4983 -2.1446 -0.9760
17933TIP3    H275215   5.152   3.773   0.778  0.3977 -0.0211  1.8113
17934TIP3   OH275216   0.257   3.785   0.399  0.1959 -0.3005 -0.2226
17934TIP3    H175217   0.173   3.825   0.422 -0.0968 -1.2041  0.3427
17934TIP3    H275218   0.314   3.805   0.473 -0.8740 -3.5928  1.7122
17935TIP3   OH275219   5.765   1.869  12.896  0.1315 -0.2184 -0.2303
17935TIP3    H175220   5.798   1.920  12.821  0.0587  0.6557  0.3197
17935TIP3    H275221   5.810   1.905  12.972  1.8062 -2.5118 -0.0370
17936TIP3   OH275222   1.781   5.622   5.202 -0.7127  0.4152 -0.3781
17936TIP3    H175223   1.716   5.685   5.232 -0.4985 -0.0535  1.2036
17936TIP3    H275224   1.732   5.540   5.194 -0.9816  0.7339 -2.3744
17937TIP3   OH275225   0.791   2.980   0.575 -0.0806  0.6906  0.4711
17937TIP3    H175226   0.883   3.003   0.559 -0.1459  0.6217 -0.0141
17937TIP3    H275227   0.770   3.025   0.657  0.0196  1.7477 -0.0669
17938TIP3   OH275228   0.785   5.947  13.164  0.3500 -0.3253 -0.0792
17938TIP3    H175229   0.876   5.919  13.153 -0.3866 -3.2344  0.6451
17938TIP3    H275230   0.768   5.941  13.258  0.0152  2.5540  0.1560
17939TIP3   OH275231   1.287   0.309   5.474 -0.5410 -0.3549  0.0035
17939TIP3    H175232   1.204   0.348   5.448 -0.6071 -0.9441 -0.7169
17939TIP3    H275233   1.263   0.236   5.530 -0.5082 -0.4671 -0.1273
17940TIP3   OH275234   0.326   0.989  13.262  0.4663 -0.1212  0.6288
17940TIP3    H175235   0.390   0.969  13.194 -0.5011  1.4478 -0.8253
17940TIP3    H275236   0.348   1.077  13.291 -1.3334  0.7109 -0.3483
17941TIP3   OH275237   2.125   3.366  12.986  0.1292  0.1091 -0.0048
17941TIP3    H175238   2.093   3.309  13.055  2.6010  1.0759  2.0988
17941TIP3    H275239   2.128   3.310  12.908 -0.2117 -1.7923  1.2821
17942TIP3   OH275240   2.179   4.873   1.912  0.7743 -0.1402 -0.0883
17942TIP3    H175241   2.112   4.842   1.851  1.4991 -2.7023  0.3116
17942TIP3    H275242   2.259   4.880   1.860  0.6372  1.1801 -0.1663
17943TIP3   OH275243   6.509   6.310   4.430 -0.5332 -0.2694  0.3564
17943TIP3    H175244   6.577   6.290   4.366 -0.5974 -2.7971  0.9683
17943TIP3    H275245   6.533   6.395   4.466  1.8708 -0.7343 -0.0100
17944TIP3   OH275246   0.845   6.557   3.881  0.3525  0.1869  0.0608
17944TIP3    H175247   0.767   6.589   3.835  1.1678  0.6513 -1.0420
17944TIP3    H275248   0.902   6.633   3.887  1.8406 -0.7236 -1.5573
17945TIP3   OH275249   4.746   6.570   5.787  0.7231 -0.2936  0.4111
17945TIP3    H175250   4.660   6.574   5.746 -0.6639 -0.9548  3.0211
17945TIP3    H275251   4.794   6.645   5.750 -0.9887  0.1613 -1.0143
17946TIP3   OH275252   2.653   5.889  12.620 -0.4256  0.1115  0.5859
17946TIP3    H175253   2.559   5.882  12.637 -0.4878 -0.2314  0.1088
17946TIP3    H275254   2.677   5.806  12.579  0.1446  0.0831  0.9619
17947TIP3   OH275255   5.779   5.908  14.171  0.0035 -0.2600 -0.1922
17947TIP3    H175256   5.858   5.868  14.207  0.8640  0.7520 -0.8766
17947TIP3    H275257   5.751   5.971  14.238  1.0772  0.9597 -0.8239
17948TIP3   OH275258   4.410   2.722  13.692  0.6990 -0.5039 -0.3986
17948TIP3    H175259   4.474   2.789  13.668 -1.1276  1.0031 -1.3561
17948TIP3    H275260   4.397   2.672  13.611 -1.9390  1.5521 -1.4031
17949TIP3   OH275261   4.891   0.979  11.301 -0.2154  0.0228 -0.1335
17949TIP3    H175262   4.848   1.050  11.254 -1.3789 -0.7162 -0.2249
17949TIP3    H275263   4.896   1.009  11.392 -1.4651 -0.0901 -0.0081
17950TIP3   OH275264   1.639   3.575  15.571  0.3273 -0.5988 -0.1406
17950TIP3    H175265   1.572   3.582  15.503 -0.8260 -0.4233  0.9806
17950TIP3    H275266   1.701   3.645  15.552 -0.7110  0.3044 -0.2463
17951TIP3   OH275267   4.931   1.449  11.821 -0.6644 -0.3131  0.2266
17951TIP3    H175268   4.923   1.543  11.807  0.3107 -0.2138  0.2926
17951TIP3    H275269   4.951   1.440  11.914 -3.1341 -0.7484  0.8105
17952TIP3   OH275270   6.606   5.225   2.286 -0.2299  0.7543  0.1630
17952TIP3    H175271   6.661   5.152   2.258  0.0645  1.2403 -0.5608
17952TIP3    H275272   6.547   5.240   2.212  1.1216  2.6055 -0.6125
17953TIP3   OH275273   3.192   1.771   5.377  0.2392  0.1700 -0.3287
17953TIP3    H175274   3.279   1.772   5.337  0.2479 -1.6305 -0.4294
17953TIP3    H275275   3.132   1.762   5.303 -0.0651  1.6255 -0.2762
17954TIP3   OH275276   0.870   2.924   2.246 -0.3019  0.1168  0.2952
17954TIP3    H175277   0.794   2.890   2.198  1.6585 -1.4587 -1.9157
17954TIP3    H275278   0.883   3.012   2.211  0.9013 -0.8931 -1.9785
17955TIP3   OH275279   3.156   0.331   5.473 -0.1320 -0.5271  0.0661
17955TIP3    H175280   3.226   0.266   5.462  0.0793 -0.6574  1.9655
17955TIP3    H275281   3.123   0.317   5.561 -1.1021  0.9834 -0.0201
17956TIP3   OH275282   2.456   6.125   3.963  0.4049 -0.0749  0.3997
17956TIP3    H175283   2.523   6.056   3.964  0.2044 -0.2836 -0.2388
17956TIP3    H275284   2.426   6.130   4.054 -0.4895 -1.7245  0.2254
17957TIP3   OH275285   3.161   6.613  13.512  0.8355 -0.9114  0.9319
17957TIP3    H175286   3.195   6.688  13.464 -0.1255 -1.1713 -0.1868
17957TIP3    H275287   3.100   6.650  13.576  0.2039 -0.7444  0.2422
17958TIP3   OH275288   5.664   6.385   0.453  0.6738 -0.1159 -0.1426
17958TIP3    H175289   5.651   6.346   0.367 -0.6843  0.6783 -0.3242
17958TIP3    H275290   5.645   6.478   0.441 -0.8780 -0.2041  1.2777
17959TIP3   OH275291   2.957   5.590  11.207  0.1460 -0.0352 -0.2495
17959TIP3    H175292   3.034   5.540  11.233 -0.8761 -2.7938 -2.0603
17959TIP3    H275293   2.992   5.667  11.163  1.8569 -0.4454  0.3304
17960TIP3   OH275294   3.197   2.157   3.583 -0.3065 -0.1162  0.6449
17960TIP3    H175295   3.133   2.126   3.647 -0.5016  1.0497  1.0260
17960TIP3    H275296   3.152   2.151   3.499 -0.6361 -0.0606  0.8179
17961TIP3   OH275297   5.619   0.752  15.372 -0.1762 -0.1522  0.5594
17961TIP3    H175298   5.570   0.673  15.393 -0.5862  0.1859  0.8965
17961TIP3    H275299   5.682   0.760  15.443 -0.7231  0.2996  1.0069
17962TIP3   OH275300   0.893   6.426   1.895  0.2018 -0.0773 -0.4733
17962TIP3    H175301   0.909   6.465   1.981  0.7109  0.5874 -0.8586
17962TIP3    H275302   0.952   6.473   1.836  1.0915 -1.6523 -0.9072
17963TIP3   OH275303   5.840   0.385   4.901  0.1935  0.3391 -0.6873
17963TIP3    H175304   5.793   0.355   4.979 -0.4215  0.8175 -0.8660
17963TIP3    H275305   5.891   0.309   4.873  0.3078  0.1248  0.0970
17964TIP3   OH275306   4.829   5.514  12.124 -0.4068  0.1493 -0.0053
17964TIP3    H175307   4.790   5.434  12.159 -1.0013  1.2662  2.0483
17964TIP3    H275308   4.870   5.487  12.042  0.3826 -2.4868  1.1613
17965TIP3   OH275309   1.756   4.264  16.164  0.2838  0.1503 -0.1996
17965TIP3    H175310   1.690   4.277  16.232 -0.6201  2.1943 -1.3757
17965TIP3    H275311   1.712   4.211  16.097  0.0696  0.7971 -0.5906
17966TIP3   OH275312   3.277   0.175   6.226 -0.5141  0.0985  0.3774
17966TIP3    H175313   3.223   0.159   6.303  0.4468  0.9106  1.2424
17966TIP3    H275314   3.315   0.262   6.240 -0.6365  0.4515 -1.2103
17967TIP3   OH275315   2.293   3.412  16.124  0.3891 -0.1226  0.8630
17967TIP3    H175316   2.271   3.401  16.032 -0.8086 -1.1180  1.2425
17967TIP3    H275317   2.375   3.365  16.135  0.6673  0.2091  0.2698
17968TIP3   OH275318   0.805   6.096  16.023  0.1120  0.0049  0.3021
17968TIP3    H175319   0.813   6.179  16.070 -0.0392  0.1535  0.0713
17968TIP3    H275320   0.891   6.055  16.031  0.5993  0.7839 -0.6941
17969TIP3   OH275321   0.153   2.156   4.408 -0.1108 -0.0640 -0.1937
17969TIP3    H175322   0.217   2.175   4.476  0.2139 -0.2946 -0.4279
17969TIP3    H275323   0.076   2.124   4.455 -0.1686  0.5161  0.1088
17970TIP3   OH275324   1.327   6.327  11.935 -0.8969  0.4328  0.2151
17970TIP3    H175325   1.392   6.344  11.867 -1.2974 -0.6087 -0.4455
17970TIP3    H275326   1.281   6.249  11.906 -3.2021  1.7321  0.0732
17971TIP3   OH275327   6.623   1.290   2.607 -0.1257 -0.4374  0.0620
17971TIP3    H175328   6.626   1.195   2.593  0.2961 -0.7762  2.0348
17971TIP3    H275329   6.612   1.299   2.702  0.2003  1.5047 -0.0472
17972TIP3   OH275330   1.523   4.651  12.582 -1.0101  0.7031 -0.0021
17972TIP3    H175331   1.451   4.682  12.636 -0.8610  0.5760  0.2715
17972TIP3    H275332   1.524   4.710  12.507  1.5183  3.7084  2.1298
17973TIP3   OH275333   5.447   1.762  12.688  0.2191 -0.3440 -0.2490
17973TIP3    H175334   5.443   1.764  12.784 -4.6006  1.2441 -0.2316
17973TIP3    H275335   5.409   1.677  12.664 -3.3882  1.2005 -0.5593
17974TIP3   OH275336   0.734   3.442  15.358 -0.2400  0.4082  0.5944
17974TIP3    H175337   0.654   3.400  15.325  1.2155 -2.1117  0.0096
17974TIP3    H275338   0.751   3.512  15.295 -0.1482 -1.2741 -1.3858
17975TIP3   OH275339   0.041   6.292  12.264  0.2859 -0.2027 -0.0436
17975TIP3    H175340   0.075   6.268  12.177 -1.8085  2.7623 -1.8782
17975TIP3    H275341  -0.041   6.243  12.271 -0.5959  1.1288 -0.7428
17976TIP3   OH275342   2.942   4.533  15.913 -0.1516  0.7401  0.0163
17976TIP3    H175343   2.872   4.521  15.848  0.2308 -0.7356 -0.1441
17976TIP3    H275344   2.896   4.559  15.992 -0.7630  1.0824 -0.4411
17977TIP3   OH275345   3.703   4.740  12.272  0.1710 -0.3799 -0.0990
17977TIP3    H175346   3.797   4.744  12.256  0.1612  1.4719  0.1321
17977TIP3    H275347   3.689   4.789  12.353 -1.0885  0.2144 -0.6402
17978TIP3   OH275348   4.173   6.176   3.599 -0.0026  0.3620  0.9894
17978TIP3    H175349   4.174   6.227   3.680  2.6966 -1.1671  2.0621
17978TIP3    H275350   4.254   6.202   3.554 -1.3223  0.9963 -1.1597
17979TIP3   OH275351   0.028   0.636   2.707  0.0840 -0.6298 -0.0865
17979TIP3    H175352   0.041   0.550   2.746  1.5529  0.0069  0.8980
17979TIP3    H275353   0.009   0.693   2.781  2.6621  0.5621 -0.2485
17980TIP3   OH275354   5.836   5.203  14.499  0.4294 -0.5917  0.0794
17980TIP3    H175355   5.852   5.225  14.591 -0.5622 -0.6519  0.2861
17980TIP3    H275356   5.898   5.133  14.479  1.5946  0.3555  0.2903
17981TIP3   OH275357   4.380   3.406   1.733  0.2766  0.1465  0.1631
17981TIP3    H175358   4.454   3.360   1.772 -0.3832 -1.2775 -0.2298
17981TIP3    H275359   4.403   3.415   1.641 -0.7727 -1.9014 -0.3453
17982TIP3   OH275360   2.440   0.580  10.610 -0.1935  0.0500  0.4144
17982TIP3    H175361   2.422   0.579  10.516  0.3483 -2.7999  0.2769
17982TIP3    H275362   2.357   0.609  10.650 -1.3844 -1.4722 -0.8278
17983TIP3   OH275363   4.339   5.708   0.719 -0.0435 -0.1985 -0.0577
17983TIP3    H175364   4.419   5.697   0.668  1.9102  1.2310  2.4226
17983TIP3    H275365   4.271   5.666   0.667  1.8981  0.3265 -3.2839
17984TIP3   OH275366   0.282   0.237   3.004 -0.5864  0.5481 -0.0536
17984TIP3    H175367   0.329   0.320   3.006 -0.4390  0.6373 -2.9350
17984TIP3    H275368   0.345   0.174   2.970 -1.2883 -0.2958  0.1717
17985TIP3   OH275369   2.317   3.470   0.952 -0.3321  0.6885 -0.4209
17985TIP3    H175370   2.262   3.442   1.026 -1.3113  0.4752 -1.1958
17985TIP3    H275371   2.388   3.406   0.949  0.6000  1.5880  1.2604
17986TIP3   OH275372   2.356   1.473   0.307 -1.1128  0.2790  0.0359
17986TIP3    H175373   2.371   1.393   0.257 -0.0565 -1.0648  2.3530
17986TIP3    H275374   2.326   1.443   0.392  1.2936  2.1658  1.6895
17987TIP3   OH275375   2.442   3.230   5.219 -0.1163  0.0004  0.2841
17987TIP3    H175376   2.496   3.238   5.141 -2.2255 -0.9767 -1.3742
17987TIP3    H275377   2.410   3.319   5.236  0.2082  0.1862 -0.0848
17988TIP3   OH275378   1.788   4.922   3.430 -0.3279  0.1148  0.0410
17988TIP3    H175379   1.744   4.963   3.504  0.4345 -0.3254  0.7492
17988TIP3    H275380   1.877   4.959   3.431 -0.3884  0.2957 -0.8018
17989TIP3   OH275381   0.924   6.388   2.940 -0.4413 -0.2523  0.1273
17989TIP3    H175382   0.910   6.296   2.919 -0.0664 -0.6304  1.4341
17989TIP3    H275383   0.929   6.432   2.855 -0.6561 -1.4259 -0.5096
17990TIP3   OH275384   1.730   3.156   5.148  0.3137  0.2194 -0.6169
17990TIP3    H175385   1.738   3.161   5.243 -2.6558  0.4224 -0.2852
17990TIP3    H275386   1.739   3.063   5.128  1.2392  0.2078 -0.1915
17991TIP3   OH275387   0.273   1.662  17.042  0.6040  0.1836 -0.5913
17991TIP3    H175388   0.325   1.640  17.120  0.0767 -1.3271 -0.6301
17991TIP3    H275389   0.193   1.701  17.077 -1.0938 -3.3264 -0.0405
17992TIP3   OH275390   5.838   4.857  11.381 -0.4017 -0.2914 -0.0813
17992TIP3    H175391   5.812   4.931  11.326 -0.1793 -0.0930  0.0813
17992TIP3    H275392   5.764   4.844  11.440 -0.8702 -0.8442 -0.7772
17993TIP3   OH275393   2.581   0.701   1.032  0.5588 -0.4886 -0.2500
17993TIP3    H175394   2.628   0.753   0.967  0.6217  1.1259  1.0160
17993TIP3    H275395   2.573   0.759   1.108 -1.6110 -1.4621  0.3444
17994TIP3   OH275396   6.532   5.500  13.301  0.8686  0.2426  0.2729
17994TIP3    H175397   6.512   5.587  13.267  1.0439  0.2320  0.1415
17994TIP3    H275398   6.462   5.482  13.365  1.0992  0.6710  0.6467
17995TIP3   OH275399   4.175   0.744   4.654 -0.0051 -0.2677  0.1235
17995TIP3    H175400   4.147   0.773   4.740 -2.3216 -1.0428 -0.2894
17995TIP3    H275401   4.147   0.814   4.595 -3.1737 -1.9088 -0.5424
17996TIP3   OH275402   5.364   5.168  15.484  0.2050  0.3755  0.1161
17996TIP3    H175403   5.301   5.222  15.531  0.0981 -0.1737  0.6187
17996TIP3    H275404   5.414   5.230  15.431 -2.1389  0.6132 -1.9715
17997TIP3   OH275405   0.258   3.218   2.401  0.7006 -0.4705 -0.1356
17997TIP3    H175406   0.324   3.245   2.465  0.4944  0.7208 -0.4057
17997TIP3    H275407   0.193   3.287   2.403 -0.8236 -1.8667  0.4851
17998TIP3   OH275408   0.193   5.349   5.012 -0.6742  1.1332  0.4801
17998TIP3    H175409   0.284   5.360   5.042 -1.2919 -0.3169  3.2589
17998TIP3    H275410   0.156   5.437   5.016  0.6052  1.7848 -0.8832
17999TIP3   OH275411   5.507   1.260  15.003  0.0887  0.1945  0.3880
17999TIP3    H175412   5.431   1.204  15.021 -0.9888  2.2908  3.0259
17999TIP3    H275413   5.516   1.259  14.908 -2.6422 -0.8918  0.0480
18000TIP3   OH275414   2.425   1.925   5.907  0.7664  0.1247  0.0599
18000TIP3    H175415   2.509   1.921   5.862  0.5806 -0.8023 -0.2313
18000TIP3    H275416   2.446   1.954   5.995  1.2586  0.9362 -0.3157
18001TIP3   OH275417   0.396   6.301  15.061  0.3855 -0.3505  0.4398
18001TIP3    H175418   0.467   6.324  15.000 -0.0730 -0.7046 -0.2422
18001TIP3    H275419   0.372   6.384  15.102  0.8868 -0.1515  0.3389
18002TIP3   OH275420   3.037   1.212   2.276  0.0897  0.0340 -0.3747
18002TIP3    H175421   3.063   1.303   2.269  0.8016 -0.2361 -1.6048
18002TIP3    H275422   2.958   1.213   2.330 -0.3505  1.4569 -1.0121
18003TIP3   OH275423   6.390   1.260  12.780 -0.1590  0.0141 -0.6933
18003TIP3    H175424   6.421   1.227  12.865 -4.2574 -1.5457  0.4388
18003TIP3    H275425   6.393   1.355  12.789  1.7435 -0.0860  0.2203
18004TIP3   OH275426   3.815   5.304   4.723  0.7417 -0.7983 -0.4943
18004TIP3    H175427   3.745   5.334   4.781  1.9361  0.0481  0.5659
18004TIP3    H275428   3.773   5.292   4.639 -0.6777 -0.2737  0.1151
18005TIP3   OH275429   3.591   4.917   5.916 -0.3808  0.0941  0.8727
18005TIP3    H175430   3.516   4.860   5.904  0.1132 -0.3246 -0.3728
18005TIP3    H275431   3.574   4.993   5.860  0.2299 -0.1110  0.4047
18006TIP3   OH275432   0.985   2.049   4.714 -0.4737 -0.2322  0.5364
18006TIP3    H175433   0.921   1.990   4.674  0.9643 -0.6695 -1.2546
18006TIP3    H275434   0.958   2.137   4.687  0.7855 -0.5543 -2.0174
18007TIP3   OH275435   5.322   5.072  17.083 -0.6917 -0.2631  0.1284
18007TIP3    H175436   5.386   5.090  17.152  0.3838  0.6785 -1.0391
18007TIP3    H275437   5.240   5.107  17.116 -0.3395 -0.3868  1.1745
18008TIP3   OH275438   4.861   5.405  13.864  0.1085 -0.3220 -0.6219
18008TIP3    H175439   4.915   5.397  13.786 -0.4801  2.0111 -1.3681
18008TIP3    H275440   4.875   5.495  13.893 -1.1466 -0.5610  0.8416
18009TIP3   OH275441   0.042   0.260  14.296  0.0320  0.0510 -0.1209
18009TIP3    H175442  -0.035   0.297  14.253  0.4467  1.2350  0.1452
18009TIP3    H275443   0.073   0.328  14.355  0.1146 -1.1454  1.2867
18010TIP3   OH275444   4.284   0.663   1.788  1.1940 -0.3657  0.4385
18010TIP3    H175445   4.315   0.631   1.703 -0.2223  1.1151 -0.7052
18010TIP3    H275446   4.300   0.757   1.785 -1.4721  0.1856  0.5492
18011TIP3   OH275447   6.321   3.539   3.494 -0.2162 -0.1510 -0.0356
18011TIP3    H175448   6.342   3.604   3.427  1.3027 -1.7445 -1.2215
18011TIP3    H275449   6.228   3.520   3.482 -0.5356  1.3217 -0.0603
18012TIP3   OH275450   5.350   2.758   6.179  0.6331  0.4300  0.2994
18012TIP3    H175451   5.259   2.759   6.210  0.6110 -1.4684  0.4368
18012TIP3    H275452   5.371   2.850   6.163 -0.6796  1.1117  2.0799
18013TIP3   OH275453   0.294   0.515  16.922  0.1416 -0.4577  0.0506
18013TIP3    H175454   0.217   0.562  16.953  0.4924 -0.1440  0.4787
18013TIP3    H275455   0.299   0.534  16.829 -0.9730 -1.4675 -0.2323
18014TIP3   OH275456   5.377   3.723   0.462  0.8419  0.0301 -0.0187
18014TIP3    H175457   5.465   3.739   0.496  0.5736  2.4651 -0.2858
18014TIP3    H275458   5.334   3.809   0.465 -1.2652 -0.9296 -0.6626
18015TIP3   OH275459   4.667   6.465  10.649  0.8090 -0.5157 -0.3606
18015TIP3    H175460   4.674   6.512  10.566  1.6505 -0.1398 -0.0868
18015TIP3    H275461   4.686   6.531  10.715 -0.8279 -0.5655  0.2082
18016TIP3   OH275462   1.310   5.570   4.288  0.6691 -0.0725  0.0759
18016TIP3    H175463   1.246   5.639   4.308 -0.4103 -1.0465  0.1129
18016TIP3    H275464   1.394   5.616   4.281  0.0341  1.1881  0.4319
18017TIP3   OH275465   5.572   4.252  16.565 -0.1751 -0.2047  0.3802
18017TIP3    H175466   5.623   4.291  16.493 -1.1045  2.6914  1.1878
18017TIP3    H275467   5.637   4.231  16.632  0.4924 -1.4210 -0.5848
18018TIP3   OH275468   2.829   1.795   2.451  0.4419  0.6814 -0.2225
18018TIP3    H175469   2.888   1.867   2.476  0.6249  0.4653 -0.0302
18018TIP3    H275470   2.862   1.766   2.366  0.3338  0.8630 -0.3263
18019TIP3   OH275471   0.691   0.197   5.749  0.1713  0.3764 -0.4064
18019TIP3    H175472   0.629   0.132   5.714 -0.2209 -0.9051  2.3811
18019TIP3    H275473   0.775   0.174   5.709 -0.3153 -0.7116 -0.8508
18020TIP3   OH275474   2.280   5.284  15.695  0.4782  0.0999 -0.3361
18020TIP3    H175475   2.236   5.364  15.668  0.6802 -0.1627 -1.5000
18020TIP3    H275476   2.300   5.297  15.788  0.9512  1.5849 -0.6319
18021TIP3   OH275477   1.390   4.826  14.209 -0.0834  0.0104  0.3416
18021TIP3    H175478   1.377   4.921  14.206 -0.6329 -0.0363 -3.0681
18021TIP3    H275479   1.470   4.814  14.260  1.8540  2.6228 -1.8182
18022TIP3   OH275480   4.082   5.584  12.385 -0.1118 -0.6364  0.0048
18022TIP3    H175481   4.013   5.649  12.394 -1.6367 -2.0541 -0.8291
18022TIP3    H275482   4.163   5.632  12.399 -1.1217  1.5902 -1.2983
18023TIP3   OH275483   0.184   0.922   5.185  0.2210 -0.0726 -0.0773
18023TIP3    H175484   0.220   0.989   5.243 -0.5271 -0.0685  0.3957
18023TIP3    H275485   0.127   0.870   5.242 -1.8652  0.9523 -1.1413
18024TIP3   OH275486   5.487   2.017  16.595  0.2668 -0.0583 -0.2536
18024TIP3    H175487   5.437   1.970  16.662  0.3428 -1.4619 -1.1428
18024TIP3    H275488   5.426   2.027  16.522  1.0222 -1.1362 -1.0698
18025TIP3   OH275489   5.823   6.121  16.359 -0.1631  0.2855  0.1095
18025TIP3    H175490   5.773   6.045  16.329  0.7449 -0.5127  0.5694
18025TIP3    H275491   5.761   6.194  16.353 -1.0570 -0.4868 -0.3311
18026TIP3   OH275492   0.714   1.369  15.011 -0.1279  0.2552  0.1218
18026TIP3    H175493   0.769   1.308  15.060 -0.5021 -1.6030 -1.6326
18026TIP3    H275494   0.776   1.419  14.957  0.0198 -0.1834 -0.1191
18027TIP3   OH275495   4.300   0.958  17.302 -0.1900  0.3154 -0.3683
18027TIP3    H175496   4.228   0.897  17.286 -0.1533  0.0290  0.4861
18027TIP3    H275497   4.371   0.927  17.246 -1.6867  2.5335 -3.8221
18028TIP3   OH275498   6.078   1.264  15.439 -0.3691 -0.3840  0.4966
18028TIP3    H175499   6.145   1.332  15.426 -0.0408 -0.3910  2.0181
18028TIP3    H275500   6.070   1.222  15.353  1.3845 -0.1921  0.1935
18029TIP3   OH275501   2.951   1.737   2.213 -0.5291 -0.4217  0.0399
18029TIP3    H175502   2.905   1.769   2.136 -1.6276 -3.7801 -0.8844
18029TIP3    H275503   3.015   1.805   2.233 -1.2037  1.2528 -2.9157
18030TIP3   OH275504   4.659   0.005   5.457  0.5814  0.3319  0.6608
18030TIP3    H175505   4.578   0.026   5.411  1.1542  2.6706  0.5806
18030TIP3    H275506   4.653  -0.088   5.476 -1.5721  0.2031 -0.3979
18031TIP3   OH275507   2.575   2.668  13.514  0.5777 -0.6138  0.6371
18031TIP3    H175508   2.483   2.653  13.492  0.8961 -1.0329 -0.4936
18031TIP3    H275509   2.593   2.607  13.586  0.2458 -1.2971  0.1462
18032TIP3   OH275510   5.101   0.396  12.509 -0.3131 -0.5392  0.6145
18032TIP3    H175511   5.042   0.327  12.478  1.1877 -1.3393 -0.6024
18032TIP3    H275512   5.178   0.349  12.541  0.6337  0.5455 -0.0056
18033TIP3   OH275513   2.679   5.682   3.560  0.3283 -0.1874 -0.1415
18033TIP3    H175514   2.690   5.705   3.468  2.0518  0.2415  0.1345
18033TIP3    H275515   2.642   5.761   3.600 -1.0328 -0.5919 -0.5512
18034TIP3   OH275516   5.809   2.102   1.490  0.4051  0.4240 -0.1841
18034TIP3    H175517   5.832   2.110   1.583 -0.6924 -0.2406  0.1700
18034TIP3    H275518   5.884   2.139   1.443  0.8125  1.1262  0.9719
18035TIP3   OH275519   6.031   1.949   3.459  0.0955 -0.0475 -0.1820
18035TIP3    H175520   6.004   1.890   3.389  1.0214 -1.2619  0.4423
18035TIP3    H275521   6.066   1.891   3.527 -0.2408  1.1299  1.0468
18036TIP3   OH275522   5.315   5.254   6.421  0.4284  0.9543 -0.3001
18036TIP3    H175523   5.328   5.341   6.460  0.0719  1.2329 -0.7948
18036TIP3    H275524   5.234   5.222   6.459  0.5245  0.8644 -0.1691
18037TIP3   OH275525   3.880   0.281  11.058 -0.2482  0.2875  0.1180
18037TIP3    H175526   3.875   0.340  10.983 -0.8507 -1.1588 -1.0403
18037TIP3    H275527   3.838   0.200  11.027  1.8434 -1.2704  1.1128
18038TIP3   OH275528   4.016   4.993  14.810  0.1611  0.1460 -0.0702
18038TIP3    H175529   4.046   4.944  14.734 -0.2554  2.0153 -1.5248
18038TIP3    H275530   3.924   5.010  14.793  0.0040  0.4021  0.9781
18039TIP3   OH275531   0.804   4.600  12.478  0.0089  0.3638 -0.2555
18039TIP3    H175532   0.764   4.600  12.566  1.1238  0.9127  0.2664
18039TIP3    H275533   0.839   4.688  12.468 -0.6166  0.4882 -1.5138
18040TIP3   OH275534   5.958   6.682  15.002  0.6785  0.4132  0.5035
18040TIP3    H175535   5.984   6.755  15.059  0.9186  1.2113 -0.5831
18040TIP3    H275536   6.039   6.658  14.958  0.9509 -1.5778  1.9581
18041TIP3   OH275537   2.661   3.951   6.613  0.0944  0.0091  0.0515
18041TIP3    H175538   2.708   3.923   6.692  0.4725 -0.8048 -0.4451
18041TIP3    H275539   2.627   3.869   6.576 -2.0281  0.5987  0.5609
18042TIP3   OH275540   2.004   4.479   6.282 -0.1136 -0.1820 -0.4521
18042TIP3    H175541   1.909   4.484   6.279 -0.0927  3.3779  0.5695
18042TIP3    H275542   2.028   4.513   6.368  2.0998 -0.0046 -1.0545
18043TIP3   OH275543   1.542   6.119   4.406 -0.3813  0.3348  0.4697
18043TIP3    H175544   1.635   6.125   4.428 -0.7419 -2.5432  3.6172
18043TIP3    H275545   1.516   6.031   4.433 -4.0592  1.0258 -0.2047
18044TIP3   OH275546   2.540   6.163  16.150 -0.0555 -0.9873  0.4634
18044TIP3    H175547   2.556   6.255  16.168 -0.7816 -0.8081  0.1989
18044TIP3    H275548   2.619   6.133  16.105 -0.4461 -0.1174 -0.8402
18045TIP3   OH275549   3.763   3.495  13.329 -0.2639  0.0639  0.4873
18045TIP3    H175550   3.816   3.563  13.286 -1.1357  0.7093  0.4034
18045TIP3    H275551   3.810   3.414  13.312 -0.1074  0.4215 -0.9139
18046TIP3   OH275552   1.944   0.515  14.638  0.4447  0.0979  0.0105
18046TIP3    H175553   1.988   0.577  14.696 -0.3493 -0.1999  0.9376
18046TIP3    H275554   1.864   0.559  14.610  1.1540  0.5300 -1.4661
18047TIP3   OH275555   4.612   0.064   2.068 -0.1949 -0.7199  0.0871
18047TIP3    H175556   4.630  -0.028   2.086 -3.6279 -1.5073  0.1373
18047TIP3    H275557   4.590   0.101   2.154 -0.2576 -0.2376 -0.1349
18048TIP3   OH275558   3.889   0.510  14.579 -0.1708 -0.5014 -0.5586
18048TIP3    H175559   3.823   0.457  14.534 -0.3182 -0.7746 -0.0405
18048TIP3    H275560   3.868   0.499  14.672  0.7737 -0.8176 -0.3726
18049TIP3   OH275561   2.738   6.705  11.977 -0.5185  0.4599 -0.1165
18049TIP3    H175562   2.686   6.641  11.929  0.0619 -0.4996  0.4952
18049TIP3    H275563   2.682   6.732  12.050 -0.8024  0.7282 -0.4336
18050TIP3   OH275564   6.121   2.490  13.152  0.1555  0.4989 -0.2150
18050TIP3    H175565   6.207   2.531  13.140  0.4661 -0.0741  0.0233
18050TIP3    H275566   6.134   2.400  13.124 -0.1602  0.1949  0.6027
18051TIP3   OH275567   3.862   1.836  14.168 -0.1173 -0.3563 -0.5055
18051TIP3    H175568   3.848   1.896  14.241  0.0741 -0.6536 -0.2190
18051TIP3    H275569   3.943   1.866  14.127  0.7445 -1.2460  0.4863
18052TIP3   OH275570   4.261   3.414  17.262  0.0748  0.5802 -0.3555
18052TIP3    H175571   4.297   3.397  17.175  0.2715 -0.1658 -0.1407
18052TIP3    H275572   4.279   3.333  17.311 -2.1923  0.0421 -0.3273
18053TIP3   OH275573   3.899   6.096  15.481  0.2717 -0.1566 -0.2854
18053TIP3    H175574   3.940   6.030  15.426  1.9078  0.1016  0.5529
18053TIP3    H275575   3.972   6.143  15.521 -0.8562  1.2183  0.2550
18054TIP3   OH275576   1.361   2.804  11.546 -0.1517 -0.3501  0.1049
18054TIP3    H175577   1.431   2.747  11.515  0.7612  1.1917 -0.7863
18054TIP3    H275578   1.289   2.791  11.483 -0.4739 -1.4756  0.6736
18055TIP3   OH275579   3.146   2.538  12.130  0.0073  0.1377 -0.1389
18055TIP3    H175580   3.130   2.446  12.147  1.2361 -0.5013 -2.1061
18055TIP3    H275581   3.176   2.573  12.214  0.3437 -1.4587  0.4354
18056TIP3   OH275582   1.226   0.984   0.985 -0.5289  0.4008  1.1564
18056TIP3    H175583   1.169   0.916   1.021 -0.7882  1.1359  2.1746
18056TIP3    H275584   1.309   0.973   1.030 -0.1645 -0.0300  0.4017
18057TIP3   OH275585   3.068   5.987   4.431 -0.3311  0.1833  0.0305
18057TIP3    H175586   3.038   6.019   4.347 -3.1030 -1.2745  0.3346
18057TIP3    H275587   3.080   5.893   4.418  0.5771  0.1571  0.9213
18058TIP3   OH275588   2.592   0.387   2.958 -0.0521  0.3210  0.2258
18058TIP3    H175589   2.510   0.437   2.964  0.3500  1.0228 -0.0397
18058TIP3    H275590   2.564   0.297   2.939 -0.7068  0.7801 -1.0598
18059TIP3   OH275591   2.426   2.907  15.800  0.1090 -0.1225 -0.3139
18059TIP3    H175592   2.453   2.885  15.889  0.7379 -1.9295 -0.9015
18059TIP3    H275593   2.342   2.951  15.810  0.5069  0.3453  1.2068
18060TIP3   OH275594   1.314   4.207  13.863  0.1014  0.2303  0.0000
18060TIP3    H175595   1.350   4.236  13.947 -0.3845  0.4144  0.1451
18060TIP3    H275596   1.351   4.120  13.850 -1.7259 -0.8564  1.5992
18061TIP3   OH275597   2.607   2.830   2.487 -0.2119 -0.3887 -0.7205
18061TIP3    H175598   2.561   2.856   2.566  1.6776 -0.0878  0.3461
18061TIP3    H275599   2.564   2.880   2.417  0.6983  2.6736  0.7064
18062TIP3   OH275600   1.161   1.606  15.922  0.7790 -0.2562  0.0174
18062TIP3    H175601   1.250   1.626  15.951  0.5289 -1.7314  1.9702
18062TIP3    H275602   1.146   1.516  15.949 -1.1910 -0.1579 -0.5790
18063TIP3   OH275603   0.125   2.362   5.231 -0.3150  0.1972 -0.8271
18063TIP3    H175604   0.031   2.350   5.217 -0.2739 -2.2238  0.4092
18063TIP3    H275605   0.154   2.279   5.268  2.9045 -0.2650 -3.8615
18064TIP3   OH275606   0.497   6.392   1.907 -0.0551 -0.0395 -0.5217
18064TIP3    H175607   0.428   6.451   1.937  2.5889  1.4403  3.5610
18064TIP3    H275608   0.511   6.416   1.815 -3.7406  0.6701 -1.0303
18065TIP3   OH275609   6.291   5.994   2.540  0.1901  0.2335  0.1911
18065TIP3    H175610   6.305   5.964   2.630 -0.7002  0.7531  0.5188
18065TIP3    H275611   6.364   5.957   2.491  1.1988  0.6642  1.2887
18066TIP3   OH275612   0.933   4.094  11.093  0.3471 -0.0480  0.1125
18066TIP3    H175613   0.869   4.105  11.023  2.1984 -1.1443 -1.8383
18066TIP3    H275614   0.989   4.172  11.087  0.7019 -0.2970  0.1983
18067TIP3   OH275615   0.344   0.169   1.681  0.1926 -0.2344  0.1400
18067TIP3    H175616   0.308   0.257   1.677  3.4021  1.2140  0.3002
18067TIP3    H275617   0.309   0.132   1.762 -3.5866 -0.3877 -1.3651
18068TIP3   OH275618   2.810   5.588   2.638 -0.1934  0.6404 -0.5154
18068TIP3    H175619   2.858   5.612   2.718 -0.6835 -0.2876  0.0676
18068TIP3    H275620   2.777   5.500   2.655  0.3347  0.1057 -2.0516
18069TIP3   OH275621   3.186   2.241  16.034 -0.0965  0.0410  0.0507
18069TIP3    H175622   3.167   2.168  16.093  1.2841  1.0668  1.8729
18069TIP3    H275623   3.280   2.234  16.017 -0.2856  0.3713 -1.2159
18070TIP3   OH275624   5.310   0.711   5.990 -0.0380  0.5548  0.2304
18070TIP3    H175625   5.397   0.733   6.023 -0.1363  0.8656  0.2805
18070TIP3    H275626   5.259   0.692   6.068  0.6289 -2.1157  0.1371
18071TIP3   OH275627   1.572   4.148  15.986  0.1995  0.7990 -0.0320
18071TIP3    H175628   1.519   4.129  16.064 -1.1120  2.1480 -0.5648
18071TIP3    H275629   1.546   4.081  15.923 -0.2198  0.9265  0.0043
18072TIP3   OH275630   3.564   4.933  17.336 -0.3491  0.2974  0.2665
18072TIP3    H175631   3.484   4.972  17.370  0.0784 -0.5436  2.4235
18072TIP3    H275632   3.626   5.006  17.329 -1.2242  0.9371 -1.3475
18073TIP3   OH275633   2.602   0.306  17.375  0.4500  0.1933  0.8122
18073TIP3    H175634   2.613   0.293  17.469 -1.0567  1.8538  1.2670
18073TIP3    H275635   2.516   0.345  17.366  0.8327  0.6895 -1.2249
18074TIP3   OH275636   3.294   0.339  16.023 -0.1432 -0.2062  0.2094
18074TIP3    H175637   3.350   0.398  15.973 -0.6608  0.9205  0.9207
18074TIP3    H275638   3.338   0.254  16.017 -0.3583 -0.2246 -2.4290
18075TIP3   OH275639   3.531   5.714  13.395 -0.3135 -0.1354  0.6879
18075TIP3    H175640   3.586   5.636  13.389 -2.1973 -1.5945  1.6346
18075TIP3    H275641   3.575   5.769  13.460 -0.4029 -1.6683  2.0993
18076TIP3   OH275642   4.426   2.007   4.861 -0.1429 -0.4796 -0.3268
18076TIP3    H175643   4.436   1.935   4.923  0.9873 -1.0514 -1.1369
18076TIP3    H275644   4.335   2.001   4.832 -0.5256 -0.5622  0.8126
18077TIP3   OH275645   0.784   4.395  15.312 -0.3871 -0.4495  0.1164
18077TIP3    H175646   0.854   4.338  15.279 -0.0036  0.1393 -0.0950
18077TIP3    H275647   0.830   4.466  15.356 -0.8734 -0.7632  1.1834
18078TIP3   OH275648   1.793   2.870  16.978 -0.2462 -0.0677  0.0658
18078TIP3    H175649   1.799   2.900  16.887 -0.6545 -0.7623 -0.2011
18078TIP3    H275650   1.710   2.822  16.981  1.4784 -3.3455 -0.2046
18079TIP3   OH275651   4.091   1.139  10.344 -0.4186  0.3716  0.4986
18079TIP3    H175652   4.183   1.162  10.335 -0.3742 -0.0303 -0.1436
18079TIP3    H275653   4.079   1.064  10.286 -1.2589  0.7347  0.1773
18080TIP3   OH275654   4.544   0.554  16.812 -0.0813 -0.1591 -0.4345
18080TIP3    H175655   4.633   0.573  16.840 -0.2649  0.3340 -0.1791
18080TIP3    H275656   4.490   0.572  16.888 -0.9339  4.0239 -1.7520
18081TIP3   OH275657   0.653   1.411   4.126 -0.5863  0.3722 -0.4631
18081TIP3    H175658   0.603   1.392   4.046  1.7532  1.1054 -2.2169
18081TIP3    H275659   0.718   1.341   4.131 -0.1626  0.8064  0.3084
18082TIP3   OH275660   2.573   0.273   0.992 -0.4868  0.2040  0.5111
18082TIP3    H175661   2.640   0.207   0.975  0.5051  0.7899  1.8502
18082TIP3    H275662   2.523   0.280   0.911 -0.3507 -1.8576  0.2011
18083TIP3   OH275663   0.998   6.476   4.116  0.3590  0.5595  0.2143
18083TIP3    H175664   0.948   6.405   4.157  0.0326 -0.4535 -1.7842
18083TIP3    H275665   0.944   6.503   4.042  1.2132  1.8323  0.0235
18084TIP3   OH275666   0.446   1.674   5.717  0.5828 -0.3794  0.0843
18084TIP3    H175667   0.434   1.697   5.809 -1.0310 -0.8749  0.0236
18084TIP3    H275668   0.528   1.716   5.693  0.6399  0.4177  1.5305
18085TIP3   OH275669   5.479   0.509  11.823  0.5332  0.0377 -0.4528
18085TIP3    H175670   5.420   0.540  11.755  0.7119  0.8682 -0.2322
18085TIP3    H275671   5.444   0.423  11.847 -1.1923  0.9398  0.3930
18086TIP3   OH275672   0.785   1.176   0.921 -0.5625 -0.0741 -0.0935
18086TIP3    H175673   0.814   1.258   0.961  0.4214 -0.3537 -0.1899
18086TIP3    H275674   0.766   1.118   0.996 -1.0202  0.1583 -0.0274
18087TIP3   OH275675   2.557   5.652  11.761  0.4818  0.4980 -0.1643
18087TIP3    H175676   2.464   5.677  11.764  0.6939  1.4844 -1.2266
18087TIP3    H275677   2.564   5.598  11.683  0.8591  0.6357 -0.2244
18088TIP3   OH275678   4.045   6.306   3.178  0.0043  0.2407 -0.0844
18088TIP3    H175679   4.106   6.314   3.252 -1.7020  1.3355  1.2834
18088TIP3    H275680   4.074   6.373   3.116  1.3793 -0.6017 -0.4003
18089TIP3   OH275681   5.337   3.192  11.039  0.2041 -0.2549 -0.0022
18089TIP3    H175682   5.347   3.261  10.973 -0.2253 -2.1710 -2.1987
18089TIP3    H275683   5.247   3.161  11.027 -0.3629  0.2163  2.4705
18090TIP3   OH275684   4.138   6.686  13.478 -0.2667  0.3462 -0.2624
18090TIP3    H175685   4.076   6.640  13.422 -0.5636  0.2774  0.1200
18090TIP3    H275686   4.092   6.699  13.561 -0.0594  1.0298 -0.2513
18091TIP3   OH275687   6.061   2.437   1.003  0.3582 -0.4346 -0.2921
18091TIP3    H175688   6.120   2.361   0.998 -0.0285 -0.7712  0.1295
18091TIP3    H275689   5.978   2.405   0.966  1.0584  0.6978 -3.0657
18092TIP3   OH275690   3.664   0.548   5.614  0.1049  0.0435 -0.4108
18092TIP3    H175691   3.670   0.482   5.545  0.9527 -0.5191  0.1763
18092TIP3    H275692   3.741   0.603   5.603  0.1589  0.0508 -0.0357
18093TIP3   OH275693   0.354   3.554   4.556 -0.3235  0.0777  0.0180
18093TIP3    H175694   0.411   3.625   4.529 -0.2304 -0.3196 -0.8650
18093TIP3    H275695   0.269   3.574   4.516 -0.8203  0.6654  1.3211
18094TIP3   OH275696   4.462   2.619  11.888  0.6989 -0.1847  0.3384
18094TIP3    H175697   4.474   2.652  11.798  1.1223 -1.2045  0.0076
18094TIP3    H275698   4.504   2.684  11.943  0.9740  0.1459 -0.2531
18095TIP3   OH275699   0.206   1.879   2.087 -0.0592  0.1405 -0.0884
18095TIP3    H175700   0.227   1.902   1.997  1.1762  0.0260  0.1407
18095TIP3    H275701   0.292   1.874   2.130 -0.6534  0.8775  1.2456
18096TIP3   OH275702   4.008   2.005  12.452  0.1029  0.0646  0.1406
18096TIP3    H175703   3.979   2.063  12.382  0.4384  0.6969  0.5212
18096TIP3    H275704   3.927   1.970  12.490 -0.1482  1.1113  0.6055
18097TIP3   OH275705   3.932   4.358  12.591  0.1966  0.5450  0.1631
18097TIP3    H175706   3.846   4.346  12.552  1.1581 -2.2357 -1.3977
18097TIP3    H275707   3.989   4.386  12.519  1.0104  0.2741  0.6757
18098TIP3   OH275708   2.786   2.618   2.511  0.2551 -0.2417 -0.0235
18098TIP3    H175709   2.778   2.611   2.416  0.2663  1.9920 -0.2351
18098TIP3    H275710   2.725   2.687   2.536  1.5779  0.5007  1.3573
18099TIP3   OH275711   6.438   2.970   5.933  0.0666 -0.2167 -0.0410
18099TIP3    H175712   6.346   2.950   5.919  0.0332  0.0079 -0.1504
18099TIP3    H275713   6.483   2.931   5.858 -0.0300  0.3477 -0.4027
18100TIP3   OH275714   3.328   2.910   1.674  0.0025 -0.3125 -0.1946
18100TIP3    H175715   3.297   2.954   1.595  2.1864  3.3670  0.7822
18100TIP3    H275716   3.269   2.939   1.744  1.2174  0.8288  0.3925
18101TIP3   OH275717   0.111   6.062   2.357 -0.4481 -0.4858  0.4193
18101TIP3    H175718   0.134   6.036   2.446  0.0573  0.3950  0.5534
18101TIP3    H275719   0.194   6.088   2.317 -0.9895  1.4693  0.4807
18102TIP3   OH275720   2.972   1.607  12.845  0.3416  0.3439  0.4068
18102TIP3    H175721   2.934   1.632  12.761  0.1967 -0.6223  0.1760
18102TIP3    H275722   3.063   1.588  12.825  0.7238  1.6715  0.7752
18103TIP3   OH275723   0.943   0.268   4.051  0.6148  0.0492 -0.6326
18103TIP3    H175724   1.035   0.244   4.043  0.5877  0.0203 -0.8769
18103TIP3    H275725   0.904   0.201   4.107  0.6996 -0.0500 -0.6940
18104TIP3   OH275726   0.347   4.244   0.195  0.3576  0.2893  0.5154
18104TIP3    H175727   0.370   4.156   0.166 -1.2039 -0.1330  0.4654
18104TIP3    H275728   0.251   4.245   0.195  0.3455  1.8929  0.8165
18105TIP3   OH275729   4.415   2.977  12.757  0.1372 -0.1054 -0.3062
18105TIP3    H175730   4.369   2.895  12.740 -0.3980  0.0938  0.1325
18105TIP3    H275731   4.476   2.986  12.684  1.5321 -1.8058  0.5819
18106TIP3   OH275732   0.158   3.107  15.580 -0.3147 -0.0697 -0.2316
18106TIP3    H175733   0.192   3.129  15.494 -0.4642  1.9200  0.1602
18106TIP3    H275734   0.092   3.174  15.597  0.4058  0.1891  1.8257
18107TIP3   OH275735   6.206   6.420   3.469  0.8468 -0.0122 -0.2724
18107TIP3    H175736   6.162   6.355   3.413  1.7462 -0.6731 -0.2342
18107TIP3    H275737   6.154   6.500   3.458 -1.1451 -1.0789  0.7874
18108TIP3   OH275738   2.279   1.220   5.457 -0.2393 -0.4059 -0.3811
18108TIP3    H175739   2.343   1.205   5.527  0.8271 -1.2695 -1.5003
18108TIP3    H275740   2.328   1.267   5.389 -1.0743 -0.1960 -0.8543
18109TIP3   OH275741   0.884   3.676   3.676  0.1850 -0.3466 -0.3314
18109TIP3    H175742   0.937   3.723   3.739  0.0419 -0.2938 -0.2485
18109TIP3    H275743   0.794   3.687   3.707 -0.1038  1.3839 -1.6195
18110TIP3   OH275744   5.285   4.475  14.689 -0.1675  0.3262 -0.3499
18110TIP3    H175745   5.372   4.446  14.660 -0.5046 -0.2470 -0.8050
18110TIP3    H275746   5.272   4.559  14.644 -0.0768  0.1504 -0.7049
18111TIP3   OH275747   5.683   5.721   3.941  0.3796 -0.0028  0.2995
18111TIP3    H175748   5.771   5.747   3.913  0.8727 -0.7781  1.0793
18111TIP3    H275749   5.697   5.643   3.994 -0.7735 -0.0414  0.5682
18112TIP3   OH275750   2.654   1.457  16.518  0.6114 -0.0467 -0.3967
18112TIP3    H175751   2.611   1.524  16.464  1.3104 -0.6165 -1.6986
18112TIP3    H275752   2.738   1.442  16.476  1.7290  0.3462  1.5498
18113TIP3   OH275753   3.351   3.813   1.453  0.3988 -0.5616  0.3063
18113TIP3    H175754   3.323   3.863   1.376 -1.1070 -0.2902  0.9887
18113TIP3    H275755   3.345   3.875   1.525  1.7413 -0.8345  0.6758
18114TIP3   OH275756   3.280   1.351   3.894 -1.1308 -0.0836 -0.0005
18114TIP3    H175757   3.250   1.441   3.886 -1.3008 -0.1077  0.3300
18114TIP3    H275758   3.234   1.304   3.825  0.1123  0.3562 -1.1719
18115TIP3   OH275759   4.258   1.830   3.626 -0.8362  1.6898 -0.0440
18115TIP3    H175760   4.325   1.765   3.607  0.5942  2.8907  0.7042
18115TIP3    H275761   4.227   1.859   3.540 -0.2795  1.2227 -0.4071
18116TIP3   OH275762   6.219   1.783   1.499  0.4233 -0.5226 -0.5194
18116TIP3    H175763   6.251   1.795   1.588 -0.2917  1.1533 -0.4413
18116TIP3    H275764   6.245   1.694   1.475  1.6025 -0.6083  0.9453
18117TIP3   OH275765   0.339   2.547  12.982 -0.1946  0.2073  0.0497
18117TIP3    H175766   0.390   2.594  13.049 -2.3883 -0.3341  2.2094
18117TIP3    H275767   0.286   2.485  13.031 -1.3841 -0.7321 -2.2946
18118TIP3   OH275768   3.805   3.474  16.735 -0.1913  0.4240 -0.5565
18118TIP3    H175769   3.803   3.383  16.762 -0.3509  0.3007 -0.9768
18118TIP3    H275770   3.894   3.487  16.701  0.5802  1.0415  1.5680
18119TIP3   OH275771   5.261   5.946   0.215  0.4515  0.3387  0.2766
18119TIP3    H175772   5.264   5.988   0.300  0.3029  0.3143  0.2947
18119TIP3    H275773   5.208   5.867   0.228  0.5219  0.2746  0.1876
18120TIP3   OH275774   3.533   4.673   6.875  0.4158 -0.1253  0.1340
18120TIP3    H175775   3.569   4.611   6.938  0.4093  0.4951  0.7530
18120TIP3    H275776   3.441   4.684   6.902 -0.1781 -1.4046 -1.2015
18121TIP3   OH275777   0.690   5.412   1.458 -0.1879 -0.0995  0.0622
18121TIP3    H175778   0.665   5.320   1.465 -1.5463  0.2771  0.6189
18121TIP3    H275779   0.687   5.444   1.549 -0.9333  0.7670 -0.2554
18122TIP3   OH275780   3.010   2.151   1.157 -0.3816 -0.7155 -0.2131
18122TIP3    H175781   2.985   2.125   1.069  1.6356  0.4824 -1.2185
18122TIP3    H275782   2.986   2.244   1.163  0.0564 -0.6260  0.2556
18123TIP3   OH275783   3.073   1.553   6.052 -1.0147  0.2001 -0.5072
18123TIP3    H175784   3.082   1.489   6.123 -0.8484 -0.4104 -1.0648
18123TIP3    H275785   3.129   1.626   6.078  1.5231 -1.2968 -1.4428
18124TIP3   OH275786   5.998   1.705  13.786  0.2632 -0.6299  0.1970
18124TIP3    H175787   6.065   1.705  13.855 -0.3061  0.2258  0.7720
18124TIP3    H275788   6.047   1.723  13.706  0.7587 -0.1984  0.5849
18125TIP3   OH275789   0.092   6.290   2.599 -0.1481 -0.2576 -0.0027
18125TIP3    H175790   0.154   6.358   2.625  1.2575 -1.3833 -0.2580
18125TIP3    H275791   0.067   6.313   2.510  1.4111 -0.7984 -0.6072
18126TIP3   OH275792   4.448   6.226  13.647 -0.6569 -0.0925 -0.4718
18126TIP3    H175793   4.423   6.298  13.704  1.5106 -0.2413  0.7590
18126TIP3    H275794   4.543   6.232  13.639 -0.7103 -0.9595 -2.9330
18127TIP3   OH275795   6.661   5.475   1.930  0.0759  0.7192 -0.4026
18127TIP3    H175796   6.581   5.526   1.943 -0.2522  0.1477 -0.1294
18127TIP3    H275797   6.696   5.463   2.019 -2.0862 -3.0639  0.1566
18128TIP3   OH275798   4.760   1.945  14.641  0.3719 -0.0985  0.0909
18128TIP3    H175799   4.713   2.017  14.683  2.6844  0.2412  2.4010
18128TIP3    H275800   4.765   1.877  14.707 -0.6038 -1.9088 -1.6009
18129TIP3   OH275801   2.315   1.253  12.143  0.4346  0.2284 -0.1843
18129TIP3    H175802   2.357   1.260  12.057  1.1716  0.1046  0.1525
18129TIP3    H275803   2.298   1.344  12.169  1.5222  0.3485  0.1550
18130TIP3   OH275804   4.440   4.110  12.041 -0.1698  0.5131 -0.0700
18130TIP3    H175805   4.437   4.191  12.092  0.2901  0.8991 -0.6380
18130TIP3    H275806   4.532   4.083  12.046 -0.4293 -0.2695  0.5627
18131TIP3   OH275807   5.395   2.472   2.718  0.3316 -0.3620 -0.7762
18131TIP3    H175808   5.303   2.450   2.701  0.3302  0.3074 -1.7163
18131TIP3    H275809   5.443   2.427   2.648  0.7204 -0.7002 -0.2946
18132TIP3   OH275810   3.577   3.761   0.236 -0.4492  0.4194  0.9152
18132TIP3    H175811   3.575   3.676   0.191 -1.2787 -0.7685  3.0167
18132TIP3    H275812   3.625   3.819   0.177  2.7948 -2.2564  0.6080
18133TIP3   OH275813   5.235   4.850  15.232  0.0367 -0.2388  0.5276
18133TIP3    H175814   5.278   4.885  15.310  1.3264 -0.9837  0.1812
18133TIP3    H275815   5.143   4.840  15.257 -0.1152  1.9930  1.0936
18134TIP3   OH275816   5.806   2.317   2.282 -0.0296  0.0742 -1.0492
18134TIP3    H175817   5.787   2.269   2.202  2.0557 -0.3291 -1.3654
18134TIP3    H275818   5.830   2.405   2.253  0.0282  0.1414 -0.8052
18135TIP3   OH275819   0.693   5.337   5.771  0.2134  0.3896 -0.1838
18135TIP3    H175820   0.659   5.248   5.766 -1.5376  0.5282  4.4050
18135TIP3    H275821   0.617   5.392   5.751 -0.0494  0.7412  1.6202
18136TIP3   OH275822   1.352   3.170  17.167  0.2282 -0.1412  0.0288
18136TIP3    H175823   1.349   3.146  17.259 -1.6219 -0.1428 -0.0033
18136TIP3    H275824   1.388   3.259  17.166  1.9984 -0.8072  0.5644
18137TIP3   OH275825   3.737   6.356   0.875 -0.4450  0.0576  0.1348
18137TIP3    H175826   3.664   6.409   0.845 -0.6986  0.0231  0.6753
18137TIP3    H275827   3.711   6.266   0.857 -0.7641  0.0111  0.7926
18138TIP3   OH275828   2.313   3.199   3.872  0.4164  0.9454 -0.0109
18138TIP3    H175829   2.282   3.187   3.782  0.9353  0.7484 -0.1705
18138TIP3    H275830   2.377   3.270   3.866 -0.1275  1.4611  0.3397
18139TIP3   OH275831   3.451   6.172   4.303 -0.0767  0.5184  0.4110
18139TIP3    H175832   3.373   6.124   4.273  1.7213 -0.4079 -3.5582
18139TIP3    H275833   3.460   6.148   4.395 -2.8430 -1.6999  0.2522
18140TIP3   OH275834   4.047   1.442   5.922  0.3074 -0.0589  0.1492
18140TIP3    H175835   4.129   1.395   5.909  1.0034  1.0252  0.4521
18140TIP3    H275836   4.073   1.523   5.966 -0.8797  0.4879 -0.1187
18141TIP3   OH275837   4.853   4.364  12.161 -0.3159  0.0331  0.0121
18141TIP3    H175838   4.799   4.338  12.235 -3.2288  0.3605 -1.8489
18141TIP3    H275839   4.885   4.451  12.184 -0.2940 -0.2914  1.2762
18142TIP3   OH275840   2.285   5.129  17.389 -0.5539 -0.4855 -0.1893
18142TIP3    H175841   2.350   5.140  17.459  2.0542 -0.8290 -2.3703
18142TIP3    H275842   2.329   5.162  17.311 -2.4684 -2.1383 -2.0753
18143TIP3   OH275843   6.656   2.044  11.887 -0.2271 -0.1092 -0.1925
18143TIP3    H175844   6.638   2.039  11.981 -1.3750 -1.3475 -0.4435
18143TIP3    H275845   6.701   2.128  11.875  4.3586 -1.8754  2.1462
18144TIP3   OH275846   3.741   4.694  14.282 -0.4454  0.1865 -0.0941
18144TIP3    H175847   3.812   4.696  14.218 -1.4291  1.1672 -1.1905
18144TIP3    H275848   3.738   4.782  14.319 -1.6486  0.4526 -0.7398
18145TIP3   OH275849   2.559   1.452   2.792  0.1111  0.4250  0.1680
18145TIP3    H175850   2.610   1.471   2.714  0.4587  2.2715  0.7926
18145TIP3    H275851   2.480   1.504   2.783 -0.7420 -0.8195  0.1875
18146TIP3   OH275852   3.118   0.073   3.862 -0.2184  0.0514 -0.2153
18146TIP3    H175853   3.212   0.079   3.843 -0.1477  0.1579  0.1525
18146TIP3    H275854   3.092  -0.012   3.827  0.2211 -0.3870  0.4978
18147TIP3   OH275855   0.292   4.954   0.081  0.4907 -0.4853 -0.5532
18147TIP3    H175856   0.290   5.048   0.061 -1.7077 -0.4364 -0.2558
18147TIP3    H275857   0.370   4.943   0.135 -1.0268  1.8261  2.3589
18148TIP3   OH275858   6.243   1.263  11.952 -0.3311 -0.1257 -0.3911
18148TIP3    H175859   6.277   1.184  11.910 -1.4079 -0.1047 -1.3384
18148TIP3    H275860   6.287   1.265  12.037  3.3448  0.7813 -2.0736
18149TIP3   OH275861   0.573   3.115  15.525 -0.0533  0.4198  0.1221
18149TIP3    H175862   0.592   3.050  15.457  1.5866  1.1784 -0.1954
18149TIP3    H275863   0.567   3.198  15.477 -1.7348  0.5932  0.5719
18150TIP3   OH275864   4.704   3.041  16.647 -0.2017 -0.3210  0.6006
18150TIP3    H175865   4.633   3.043  16.582  0.7242 -0.4334 -0.4440
18150TIP3    H275866   4.765   2.975  16.614  1.5370  1.3838  0.2115
18151TIP3   OH275867   6.654   0.265   2.959 -0.4812 -0.0559 -0.0226
18151TIP3    H175868   6.633   0.357   2.944 -2.0948 -0.4377 -0.2239
18151TIP3    H275869   6.736   0.267   3.010 -1.3772  1.5335  1.4433
18152TIP3   OH275870   4.601   1.402  12.906  0.3142  0.2866  0.5758
18152TIP3    H175871   4.695   1.391  12.923  0.1956 -0.2602  0.9146
18152TIP3    H275872   4.565   1.313  12.915 -0.2207  0.4785  0.3596
18153TIP3   OH275873   5.428   5.590  14.787  0.1054 -0.3232 -0.4633
18153TIP3    H175874   5.511   5.563  14.827  0.1682  0.2010 -0.2270
18153TIP3    H275875   5.361   5.553  14.845  0.2011  1.4703  0.8687
18154TIP3   OH275876   4.719   0.834   1.905  0.0231  0.6929  0.2303
18154TIP3    H175877   4.647   0.779   1.872  0.7385 -0.6539  0.8237
18154TIP3    H275878   4.783   0.833   1.834 -0.0730  0.9811  0.1396
18155TIP3   OH275879   1.028   5.640   5.006  0.4144  0.1193  0.2954
18155TIP3    H175880   1.119   5.657   4.982  0.3903 -0.8144 -0.5313
18155TIP3    H275881   1.032   5.559   5.058  0.1282  0.4710  0.8790
18156TIP3   OH275882   4.423   2.996  15.313 -0.1799  0.2147 -0.0554
18156TIP3    H175883   4.473   2.987  15.394  0.5128 -2.5301 -0.6822
18156TIP3    H275884   4.346   2.941  15.326  0.4741 -1.1514 -1.5862
18157TIP3   OH275885   6.292   3.696  15.631  0.5154  0.3207  0.0179
18157TIP3    H175886   6.331   3.742  15.706  2.5057  1.6311 -1.7168
18157TIP3    H275887   6.365   3.650  15.590 -0.1601  0.9961 -2.0562
18158TIP3   OH275888   5.742   5.883  16.551 -0.2579  0.1918  0.8026
18158TIP3    H175889   5.720   5.881  16.645  0.2659  0.8170  0.9501
18158TIP3    H275890   5.687   5.815  16.512 -2.2989  1.5043  1.1835
18159TIP3   OH275891   2.272   1.949  16.718 -0.5289  0.4162  1.0240
18159TIP3    H175892   2.330   2.007  16.768  0.7580 -0.5853  0.7586
18159TIP3    H275893   2.264   1.990  16.633 -0.1704  0.5460  1.0515
18160TIP3   OH275894   2.533   2.731   0.672  0.1962  0.5000 -0.2175
18160TIP3    H175895   2.481   2.737   0.752  0.1095  0.0474 -0.2354
18160TIP3    H275896   2.562   2.640   0.669 -2.7307 -0.4859 -2.5034
18161TIP3   OH275897   0.041   5.315  16.909 -0.4377  0.1806  0.2434
18161TIP3    H175898   0.062   5.405  16.932 -0.6542  0.2894  0.0050
18161TIP3    H275899   0.120   5.282  16.866  0.0835 -0.1119  1.3706
18162TIP3   OH275900   4.314   5.492  13.780  0.6619 -0.2242  0.3922
18162TIP3    H175901   4.379   5.551  13.741  0.6141  0.2086  0.9418
18162TIP3    H275902   4.285   5.437  13.708  1.1505  0.0275 -0.0065
18163TIP3   OH275903   6.326   5.667   3.254 -0.0620 -0.5816  0.1141
18163TIP3    H175904   6.394   5.600   3.260  0.4192 -0.3643 -2.1351
18163TIP3    H275905   6.270   5.651   3.330  0.9802 -2.4650  0.5434
18164TIP3   OH275906   1.513   2.032   5.796 -0.1645 -0.0027 -0.1651
18164TIP3    H175907   1.552   1.979   5.727 -0.4011 -0.9511  0.4061
18164TIP3    H275908   1.563   2.010   5.875 -1.2485 -0.5574  0.3992
18165TIP3   OH275909   0.899   6.392  14.529 -0.2166 -0.1122 -0.5450
18165TIP3    H175910   0.962   6.453  14.569  0.3619 -2.1585  1.9230
18165TIP3    H275911   0.944   6.360  14.451  1.5755 -0.9227  0.7339
18166TIP3   OH275912   0.972   0.394   5.560  0.3760 -0.2845  0.3230
18166TIP3    H175913   0.961   0.312   5.609 -1.4573 -0.2396  0.0235
18166TIP3    H275914   0.903   0.451   5.593  0.3011  0.4049 -0.9875
18167TIP3   OH275915   6.553   2.546  16.819  0.5093  0.2845  0.3122
18167TIP3    H175916   6.620   2.614  16.816  0.9294  0.0296  2.2163
18167TIP3    H275917   6.562   2.508  16.907 -1.6011 -0.2909  0.3289
18168TIP3   OH275918   2.144   5.334   3.914 -0.6030  0.4574 -0.1406
18168TIP3    H175919   2.220   5.388   3.935 -1.6880  1.9287  0.2133
18168TIP3    H275920   2.089   5.340   3.993 -0.1643 -2.3348  0.4648
18169TIP3   OH275921   3.370   0.760   1.188  0.4723  0.1123 -0.5258
18169TIP3    H175922   3.329   0.731   1.269  0.9289  2.0164  0.4536
18169TIP3    H275923   3.416   0.683   1.155 -1.0094 -1.1194  0.1675
18170TIP3   OH275924   3.544   6.124  14.433  0.2165 -0.8134 -0.1865
18170TIP3    H175925   3.620   6.066  14.423 -0.7817 -2.6555  2.0534
18170TIP3    H275926   3.477   6.087  14.376  0.3581 -0.3094 -0.6967
18171TIP3   OH275927   2.635   3.567  16.672  0.2400  0.1490  0.0073
18171TIP3    H175928   2.603   3.520  16.749 -3.2332 -0.0126 -1.3703
18171TIP3    H275929   2.700   3.628  16.707  1.6403 -2.4982  2.4683
18172TIP3   OH275930   5.808   3.488   0.590 -0.3157  0.2278  0.4537
18172TIP3    H175931   5.807   3.424   0.519 -0.5650  0.8117 -0.0835
18172TIP3    H275932   5.883   3.463   0.644  0.0354 -0.0718 -0.1648
18173TIP3   OH275933   4.864   5.910   4.888  0.1937 -0.4421  0.2658
18173TIP3    H175934   4.914   5.882   4.811 -0.9243 -0.2916 -0.5485
18173TIP3    H275935   4.791   5.848   4.893  0.7500 -1.0117  1.7771
18174TIP3   OH275936   2.314   4.959  14.909  0.0638 -0.0817 -0.2457
18174TIP3    H175937   2.331   4.882  14.963 -1.7437 -1.9124 -2.0955
18174TIP3    H275938   2.349   4.936  14.822  0.3430  1.6036 -0.6206
18175TIP3   OH275939   6.719   5.401  12.125 -0.1033 -0.0103  0.3999
18175TIP3    H175940   6.769   5.364  12.052 -0.7870 -0.8824  0.3622
18175TIP3    H275941   6.704   5.327  12.184 -0.2003  0.5276  1.0653
18176TIP3   OH275942   1.738   1.323   2.871 -0.6928 -0.1065  0.3213
18176TIP3    H175943   1.831   1.344   2.878 -0.6891 -0.4268  1.7254
18176TIP3    H275944   1.715   1.342   2.781  0.5029  0.9173  0.2059
18177TIP3   OH275945   5.987   0.825   4.983  0.0819  0.4131  0.2483
18177TIP3    H175946   5.952   0.758   5.041 -0.1782  0.2755 -0.0670
18177TIP3    H275947   6.002   0.901   5.040  2.0930 -0.4626  1.0033
18178TIP3   OH275948   6.078   1.397  10.951  0.2041 -0.2516 -0.3945
18178TIP3    H175949   5.991   1.413  10.914 -0.5167  2.1757  1.9758
18178TIP3    H275950   6.123   1.481  10.944  0.7878 -0.2771  2.0634
18179TIP3   OH275951   3.051   0.427  16.329  0.4453  0.8298  0.4391
18179TIP3    H175952   3.143   0.454  16.321  0.3167  1.0531 -0.3732
18179TIP3    H275953   3.049   0.338  16.293  0.5235  0.4290  1.3994
18180TIP3   OH275954   4.988   5.574  12.360  0.6723 -0.3741  0.9920
18180TIP3    H175955   5.011   5.483  12.377  0.6039 -0.9304 -1.4758
18180TIP3    H275956   4.923   5.570  12.290  2.4378  1.5809 -0.9587
18181TIP3   OH275957   6.567   0.630  13.054 -0.2181 -0.5985  0.1270
18181TIP3    H175958   6.630   0.675  12.997  0.2080 -0.4956  0.6716
18181TIP3    H275959   6.611   0.626  13.139 -0.5263 -1.4679  0.2473
18182TIP3   OH275960   4.248   5.870  16.468  0.0188 -0.2876  0.3754
18182TIP3    H175961   4.194   5.794  16.486  0.8076 -0.8848  0.2776
18182TIP3    H275962   4.227   5.894  16.378  0.7027 -1.1845 -0.0347
18183TIP3   OH275963   6.069   3.285  11.656  0.2275 -0.8719  0.0771
18183TIP3    H175964   6.036   3.197  11.669  0.6788 -1.0196  0.2448
18183TIP3    H275965   6.145   3.274  11.598  0.7549 -0.6831  0.7215
18184TIP3   OH275966   6.235   4.550  12.865  0.9560  0.2917 -0.0341
18184TIP3    H175967   6.330   4.546  12.855  1.1206  2.0778  0.5123
18184TIP3    H275968   6.214   4.481  12.927  1.6332 -1.4085 -1.6124
18185TIP3   OH275969   1.241   5.013  12.294  0.6638  0.2077  0.0815
18185TIP3    H175970   1.274   5.092  12.251 -0.5021  0.6404 -0.0820
18185TIP3    H275971   1.247   4.944  12.228  1.3255  0.2512  0.0967
18186TIP3   OH275972   0.927   1.175   5.328 -0.6377  0.2516  0.2825
18186TIP3    H175973   0.925   1.198   5.235 -0.2458 -2.9409 -0.6246
18186TIP3    H275974   0.846   1.127   5.343  1.6567 -4.1530  0.0103
18187TIP3   OH275975   5.651   6.493  14.778  0.1927  0.0552  0.2993
18187TIP3    H175976   5.682   6.574  14.738 -0.2957  0.3877  0.5878
18187TIP3    H275977   5.604   6.448  14.707  1.3798 -0.4906 -0.1617
18188TIP3   OH275978   4.411   2.473  12.117 -0.3128  0.1125  0.3142
18188TIP3    H175979   4.405   2.377  12.118 -2.3653  0.0682 -2.3664
18188TIP3    H275980   4.465   2.492  12.040 -1.4578  1.0586 -0.2966
18189TIP3   OH275981   1.002   3.451  13.923  0.3782 -0.7892  0.3548
18189TIP3    H175982   1.001   3.359  13.951 -0.4591 -0.9907 -0.2978
18189TIP3    H275983   0.910   3.474  13.913  0.5661  0.2943  1.0176
18190TIP3   OH275984   0.791   3.653   1.286 -0.2081  0.1051 -0.0987
18190TIP3    H175985   0.732   3.578   1.276 -2.6520  1.7869  0.9237
18190TIP3    H275986   0.802   3.663   1.380  0.4373  0.7873 -0.2373
18191TIP3   OH275987   5.531   4.530   1.850  0.2901 -0.4962 -0.4844
18191TIP3    H175988   5.503   4.588   1.779  0.5282  0.1440 -0.0588
18191TIP3    H275989   5.451   4.484   1.875 -0.3506  1.0397  0.4599
18192TIP3   OH275990   1.330   4.449   0.645 -0.1720  0.2135 -0.3091
18192TIP3    H175991   1.346   4.463   0.739  0.3404 -1.3807 -0.1218
18192TIP3    H275992   1.398   4.501   0.602  0.0488  0.3873  0.2270
18193TIP3   OH275993   5.748   5.456   0.254  0.1136  0.1573  0.0356
18193TIP3    H175994   5.711   5.536   0.294  0.2511  0.7359 -0.9696
18193TIP3    H275995   5.704   5.385   0.301 -0.1564  0.8133  0.8269
18194TIP3   OH275996   6.344   1.722   3.339 -0.0270 -1.0009 -0.0971
18194TIP3    H175997   6.330   1.695   3.249 -0.2930  0.2239 -0.4298
18194TIP3    H275998   6.259   1.754   3.369  0.5286  0.5310 -0.0876
18195TIP3   OH275999   3.732   6.160  12.085 -0.2755  0.0428  0.3648
18195TIP3    H176000   3.720   6.255  12.092  0.3907  0.1202  0.4753
18195TIP3    H276001   3.826   6.148  12.075  0.0607 -0.7685  3.4283
18196TIP3   OH276002   1.168   5.707  17.115 -0.3015  0.0991 -0.0636
18196TIP3    H176003   1.176   5.775  17.048  1.0662  0.3394  0.3116
18196TIP3    H276004   1.112   5.746  17.182 -2.7424 -0.6044 -1.5779
18197TIP3   OH276005   1.022   1.372  11.407  0.0747  0.5617  0.2738
18197TIP3    H176006   1.013   1.347  11.315 -0.0808 -1.1175  0.7025
18197TIP3    H276007   0.936   1.353  11.445  0.0302  1.5644  0.7157
18198TIP3   OH276008   5.215   5.880   6.120  0.7316 -0.2547  0.0751
18198TIP3    H176009   5.198   5.900   6.212  1.9737 -0.9136  0.4840
18198TIP3    H276010   5.305   5.845   6.120  1.5263  1.6123 -1.6599
18199TIP3   OH276011   2.788   0.510  14.214 -0.0872  0.0970 -0.3869
18199TIP3    H176012   2.763   0.521  14.306  1.9972  0.0845  0.2435
18199TIP3    H276013   2.782   0.415  14.199  2.9043 -0.4004  0.8768
18200TIP3   OH276014   0.801   1.733   4.854  0.1032 -0.1438 -0.5074
18200TIP3    H176015   0.888   1.710   4.885  0.9418  0.6464 -2.1622
18200TIP3    H276016   0.761   1.780   4.926  1.9473  1.5568 -0.5284
18201TIP3   OH276017   3.783   3.909  17.291  0.5428  0.3693  0.2551
18201TIP3    H176018   3.737   3.957  17.222 -2.4282 -3.5685 -0.8907
18201TIP3    H276019   3.831   3.840  17.244 -2.9935 -3.5654  1.8127
18202TIP3   OH276020   3.920   0.687   0.340  0.3169 -0.3788 -0.2157
18202TIP3    H176021   3.875   0.751   0.285 -0.0999 -0.8382 -0.4146
18202TIP3    H276022   3.988   0.651   0.283  2.0356  1.4506  0.5521
18203TIP3   OH276023   5.591   2.652   3.653  0.3399  0.0364 -0.1617
18203TIP3    H176024   5.669   2.631   3.601  0.2435 -0.4790 -0.0971
18203TIP3    H276025   5.616   2.731   3.701  1.4282 -1.0355  1.1218
18204TIP3   OH276026   2.875   4.008   3.574 -0.3577  0.6097  0.4420
18204TIP3    H176027   2.902   3.933   3.521 -0.4343  1.2105 -0.4701
18204TIP3    H276028   2.885   3.978   3.664  0.0802 -0.3321  0.0978
18205TIP3   OH276029   0.236   3.908   1.858  0.3664 -0.2631  0.1417
18205TIP3    H176030   0.172   3.892   1.927 -0.4783 -0.9242 -0.7592
18205TIP3    H276031   0.260   3.820   1.826  0.1064  0.0417 -0.9546
18206TIP3   OH276032   4.590   3.866  17.511 -0.2548  0.0714 -0.3689
18206TIP3    H176033   4.571   3.793  17.452  0.1013 -1.0689  0.8509
18206TIP3    H276034   4.590   3.826  17.598 -1.2032  1.7753  0.4583
18207TIP3   OH276035   0.138   1.271   3.222  0.6442 -0.0772  0.3990
18207TIP3    H176036   0.048   1.271   3.189  0.4268 -1.6577  0.8885
18207TIP3    H276037   0.191   1.253   3.144  0.5853  1.2206  0.0441
18208TIP3   OH276038   3.170   3.372   4.293 -0.3995 -0.4855 -0.6388
18208TIP3    H176039   3.251   3.370   4.345 -0.9621 -0.6409  0.2417
18208TIP3    H276040   3.168   3.287   4.248 -0.3141 -0.6721 -0.2896
18209TIP3   OH276041   5.439   3.342  16.547 -0.1744  0.3987 -0.1868
18209TIP3    H176042   5.382   3.418  16.561 -0.5536  0.7365 -2.9418
18209TIP3    H276043   5.446   3.335  16.451  1.4106 -1.8990  0.0205
18210TIP3   OH276044   1.898   5.888   0.690  0.5957 -0.4031  0.0154
18210TIP3    H176045   1.966   5.945   0.656  2.5529 -2.2701  0.5810
18210TIP3    H276046   1.913   5.886   0.784 -1.0369  0.0672  0.3208
18211TIP3   OH276047   0.105   0.082  13.666 -0.3991  0.1860 -0.0006
18211TIP3    H176048   0.102   0.144  13.739 -2.4536 -0.7113  0.7429
18211TIP3    H276049   0.017   0.084  13.629  0.3640 -0.0234 -1.9610
18212TIP3   OH276050   3.692   3.008  13.250 -0.3505  0.1728 -0.2815
18212TIP3    H176051   3.739   3.015  13.333 -1.8931  0.5088  0.6020
18212TIP3    H276052   3.699   2.916  13.226  2.4912  0.5350 -1.2854
18213TIP3   OH276053   6.035   1.896  13.459 -0.0048 -0.1128 -0.5054
18213TIP3    H176054   6.099   1.929  13.396 -1.0372  1.6891 -0.6500
18213TIP3    H276055   6.082   1.826  13.505  1.4529 -0.0764 -1.8407
18214TIP3   OH276056   4.486   1.148   4.126 -0.4083  0.4316  0.4359
18214TIP3    H176057   4.508   1.211   4.058  3.4677  0.0849  1.0915
18214TIP3    H276058   4.506   1.063   4.087  0.7171  0.1568  1.5164
18215TIP3   OH276059   4.584   4.953  13.366  0.4285  0.4041  0.1897
18215TIP3    H176060   4.637   4.937  13.288 -0.6184 -1.8368 -0.1424
18215TIP3    H276061   4.495   4.964  13.332  0.0381 -0.1103  1.0163
18216TIP3   OH276062   0.099   3.707   5.714 -0.3680  0.3978 -0.1632
18216TIP3    H176063   0.112   3.623   5.758  0.9664  1.5922  1.9065
18216TIP3    H276064   0.082   3.684   5.623  3.2910 -2.0849 -0.4436
18217TIP3   OH276065   5.314   0.541   1.244 -0.5945 -0.0689 -0.5354
18217TIP3    H176066   5.268   0.457   1.244  0.3232 -0.5915 -1.3863
18217TIP3    H276067   5.272   0.591   1.314 -0.9936 -1.3213  0.1469
18218TIP3   OH276068   2.252   2.822  17.305  0.8855 -0.1204  0.2803
18218TIP3    H176069   2.333   2.772  17.310 -0.6334 -2.8389 -0.0433
18218TIP3    H276070   2.202   2.794  17.382  0.1125  1.2469  0.3119
18219TIP3   OH276071   2.886   6.076  17.366 -0.8485  0.1729  0.3821
18219TIP3    H176072   2.885   6.032  17.281 -0.2694  0.4687  0.2110
18219TIP3    H276073   2.836   6.019  17.424 -3.3222  1.1156 -0.6938
18220TIP3   OH276074   1.974   2.426   2.947 -0.3965 -0.9324 -0.0761
18220TIP3    H176075   2.023   2.475   3.014 -1.4024 -0.7288  0.5290
18220TIP3    H276076   1.907   2.379   2.996 -1.9417  0.1896 -1.0350
18221TIP3   OH276077   0.433   2.781   4.082  0.2796  0.1025  0.5149
18221TIP3    H176078   0.448   2.810   4.172  2.4297  0.5815  0.0604
18221TIP3    H276079   0.449   2.687   4.084 -0.4492 -0.0191  0.7754
18222TIP3   OH276080   0.623   0.682   5.175 -0.4521 -0.2552 -0.4171
18222TIP3    H176081   0.687   0.674   5.245 -0.5355 -2.9224 -0.5279
18222TIP3    H276082   0.674   0.669   5.095 -1.1389 -3.6660 -0.4541
18223TIP3   OH276083   5.232   1.099  16.994 -0.3061 -0.1611 -0.0137
18223TIP3    H176084   5.300   1.032  17.002 -1.4888 -1.3775  0.2271
18223TIP3    H276085   5.265   1.160  16.928  1.2410 -0.4270  0.4889
18224TIP3   OH276086   0.606   3.886  10.848 -0.6889 -0.2366 -0.2598
18224TIP3    H176087   0.557   3.941  10.788 -1.1780 -0.1657  0.2031
18224TIP3    H276088   0.555   3.805  10.854 -1.4376  0.3251  1.2156
18225TIP3   OH276089   3.488   3.916   4.148  0.1038  0.2949 -0.0464
18225TIP3    H176090   3.493   3.855   4.075 -1.1893  0.0863  0.0190
18225TIP3    H276091   3.478   4.002   4.107 -0.9899  0.1398 -0.1334
18226TIP3   OH276092   4.174   1.085   2.520  0.0644  0.4860  0.0783
18226TIP3    H176093   4.198   0.995   2.497  1.0676  1.0337 -1.1557
18226TIP3    H276094   4.086   1.096   2.486 -1.1601 -0.8104  2.5527
18227TIP3   OH276095   4.001   4.617   3.824 -0.0073  0.3088  0.3528
18227TIP3    H176096   4.086   4.623   3.781 -1.1127  1.0131 -1.8600
18227TIP3    H276097   4.003   4.685   3.891  0.5127  1.6075 -0.9363
18228TIP3   OH276098   2.123   5.888   1.841  0.0301 -0.1713  0.0678
18228TIP3    H176099   2.215   5.898   1.866  0.1595 -0.4205 -0.2996
18228TIP3    H276100   2.104   5.796   1.854 -0.3462 -0.0047  0.7223
18229TIP3   OH276101   3.715   5.341   2.504  0.3993  0.3079  0.1893
18229TIP3    H176102   3.719   5.399   2.428 -0.5532  0.4418  0.2366
18229TIP3    H276103   3.798   5.357   2.549  0.4707  1.0945 -0.1875
18230TIP3   OH276104   1.294   5.466   5.523 -0.0813 -0.0492 -0.0218
18230TIP3    H176105   1.384   5.435   5.534  0.0646  0.5616  0.5955
18230TIP3    H276106   1.243   5.410   5.581  0.0421  0.2114  0.3453
18231TIP3   OH276107   1.982   4.192   4.322 -0.4346 -0.0731 -0.8617
18231TIP3    H176108   2.032   4.237   4.390 -1.2940  0.2600 -0.4399
18231TIP3    H276109   2.048   4.165   4.258  0.2769  0.4057 -0.3467
18232TIP3   OH276110   1.815   4.000  12.298 -0.9955  0.3846 -0.0281
18232TIP3    H176111   1.803   3.950  12.217 -0.9422  0.6852 -0.2214
18232TIP3    H276112   1.870   3.943  12.352 -0.5533  0.4278 -0.4236
18233TIP3   OH276113   4.729   1.489   5.448  0.0449  0.1285 -0.2966
18233TIP3    H176114   4.763   1.428   5.383 -0.0631  0.6602 -0.8651
18233TIP3    H276115   4.745   1.447   5.532  0.9351 -0.2072 -0.6264
18234TIP3   OH276116   0.858   3.466  14.912 -0.5031  0.0056 -0.4359
18234TIP3    H176117   0.812   3.397  14.864 -1.5140  0.7859 -0.6177
18234TIP3    H276118   0.904   3.420  14.982  0.3566 -1.0679 -1.6579
18235TIP3   OH276119   0.724   2.602   2.084 -0.2022 -0.2161 -0.2194
18235TIP3    H176120   0.720   2.567   1.995 -1.3434 -1.3628  0.2557
18235TIP3    H276121   0.673   2.683   2.080  1.1363  0.6222 -0.9628
18236TIP3   OH276122   2.802   1.327  11.634 -0.4081 -0.1458 -0.0423
18236TIP3    H176123   2.802   1.367  11.547  0.2527 -1.2672 -0.5677
18236TIP3    H276124   2.711   1.337  11.665 -0.9040 -0.6305 -1.2800
18237TIP3   OH276125   5.218   2.154   3.395  0.3995 -0.3194  0.2595
18237TIP3    H176126   5.262   2.239   3.387  0.5843 -0.4247  0.1574
18237TIP3    H276127   5.287   2.093   3.419  0.0244 -0.1747  1.8306
18238TIP3   OH276128   3.147   2.370  17.238 -0.1787 -0.4077 -0.4444
18238TIP3    H176129   3.097   2.424  17.177  0.9463 -1.8629 -2.7796
18238TIP3    H276130   3.206   2.431  17.282 -1.1071  0.6984 -0.6891
18239TIP3   OH276131   3.290   2.835   2.252  0.4856 -0.0651  0.5192
18239TIP3    H176132   3.385   2.834   2.246  0.4817  1.4051 -0.3300
18239TIP3    H276133   3.271   2.899   2.320  0.1027  1.3748 -0.8826
18240TIP3   OH276134   3.496   0.390   0.078 -0.6572  0.3485  0.4151
18240TIP3    H176135   3.549   0.354   0.149 -0.1456  0.7320  0.2396
18240TIP3    H276136   3.412   0.346   0.085 -0.9309  1.0382  1.8265
18241TIP3   OH276137   2.321   0.358  13.289  0.4437 -0.1675 -0.1757
18241TIP3    H176138   2.237   0.374  13.246 -0.1641 -2.2033  0.1320
18241TIP3    H276139   2.298   0.337  13.380  1.5581  2.1913  0.7440
18242TIP3   OH276140   3.304   5.742   4.596 -0.3988  0.5100 -0.7478
18242TIP3    H176141   3.239   5.690   4.642  0.4749  1.5515  1.8445
18242TIP3    H276142   3.384   5.689   4.598 -0.8022 -0.3084 -2.9862
18243TIP3   OH276143   4.758   5.560  11.668  0.7684  0.4406 -0.0919
18243TIP3    H176144   4.712   5.594  11.591  1.3721  0.9093 -0.2549
18243TIP3    H276145   4.696   5.571  11.740  0.1967 -0.0037 -0.5016
18244TIP3   OH276146   5.928   2.930  14.015 -0.0489 -1.1565 -0.0267
18244TIP3    H176147   6.000   2.971  14.064 -0.5969  0.1131 -0.2350
18244TIP3    H276148   5.927   2.976  13.931 -1.4254 -0.7637  0.1781
18245TIP3   OH276149   1.602   4.741   5.327  0.7723  0.0078 -0.5854
18245TIP3    H176150   1.564   4.655   5.311 -2.7817  1.4998 -1.1806
18245TIP3    H276151   1.629   4.739   5.419 -1.7390 -0.9860  0.2156
18246TIP3   OH276152   5.584   5.052  11.256 -0.0779  0.8694  0.1265
18246TIP3    H176153   5.677   5.062  11.235 -0.1500  0.1365 -0.5546
18246TIP3    H276154   5.538   5.089  11.180 -0.3445  1.0251  0.3614
18247TIP3   OH276155   1.225   5.123  16.866  0.2005 -0.2238  0.0751
18247TIP3    H176156   1.131   5.106  16.869  0.3490 -1.0496  1.4657
18247TIP3    H276157   1.254   5.090  16.781 -0.4898 -1.7229  0.3909
18248TIP3   OH276158   1.804   5.193   3.260  0.5197  0.7021 -0.4216
18248TIP3    H176159   1.805   5.274   3.311  1.2239  1.7413 -1.9943
18248TIP3    H276160   1.711   5.171   3.253  0.1382  2.4375 -1.5222
18249TIP3   OH276161   4.448   0.984   3.705 -0.4645 -0.7696  0.8736
18249TIP3    H176162   4.367   0.934   3.689 -0.7954  0.2396 -0.9538
18249TIP3    H276163   4.488   0.991   3.619  1.7713 -1.4825  1.7955
18250TIP3   OH276164   3.566   4.724  17.506 -0.6488  0.4195  0.0729
18250TIP3    H176165   3.569   4.800  17.448  0.6286 -0.0625 -0.5408
18250TIP3    H276166   3.635   4.741  17.571  2.1579 -1.6751 -2.0736
18251TIP3   OH276167   1.429   6.357   3.364 -0.1519  0.2902 -0.2010
18251TIP3    H176168   1.447   6.316   3.279  2.7513 -1.9319  1.2900
18251TIP3    H276169   1.473   6.442   3.359 -0.3609  0.3580 -1.0447
18252TIP3   OH276170   1.334   2.162  12.037 -0.2278  0.6407  0.7492
18252TIP3    H176171   1.243   2.142  12.015 -0.4346  1.8012  0.4893
18252TIP3    H276172   1.373   2.077  12.060 -1.1008 -0.0120 -0.1297
18253TIP3   OH276173   6.495   4.232  12.190 -0.2635  0.2889  0.2106
18253TIP3    H176174   6.509   4.158  12.249 -0.2368 -0.1395 -0.3340
18253TIP3    H276175   6.553   4.216  12.116 -0.2125  0.8872  0.1136
18254TIP3   OH276176   2.222   4.748  15.771  0.2774  0.3093 -0.0274
18254TIP3    H176177   2.290   4.698  15.817  0.8967  1.2848  0.1560
18254TIP3    H276178   2.267   4.788  15.696 -0.3875 -0.0549 -0.6323
18255TIP3   OH276179   0.480   2.889  16.043 -0.1338 -0.5384  0.4373
18255TIP3    H176180   0.442   2.919  15.961  0.6060 -0.0746  0.2534
18255TIP3    H276181   0.510   2.968  16.087  0.0787 -0.8385  0.8439
18256TIP3   OH276182   2.017   2.626   5.386  0.4957  0.4147 -0.1807
18256TIP3    H176183   2.045   2.659   5.301 -0.7886 -2.5581 -1.9166
18256TIP3    H276184   2.084   2.561   5.410  0.9308  1.3394  1.2004
18257TIP3   OH276185   6.509   1.924   1.879  0.3554  0.0507  0.2193
18257TIP3    H176186   6.550   1.921   1.792 -0.2032 -0.6133 -0.0343
18257TIP3    H276187   6.426   1.878   1.867  0.3042 -0.1033  1.1220
18258TIP3   OH276188   3.747   2.425   2.238  0.4058 -0.6885 -0.2269
18258TIP3    H176189   3.666   2.462   2.274  0.8975  0.3664 -0.1728
18258TIP3    H276190   3.792   2.386   2.313 -0.3835 -1.9589 -0.3785
18259TIP3   OH276191   2.855   2.900   2.317  0.2098  0.0104 -0.9980
18259TIP3    H176192   2.780   2.945   2.279 -0.9612 -1.0616 -0.0711
18259TIP3    H276193   2.817   2.826   2.364  1.4593  1.4190  2.5676
18260TIP3   OH276194   5.028   3.218  17.358 -0.0033 -0.0406 -0.2510
18260TIP3    H176195   5.028   3.144  17.298  0.3700  1.7781 -2.6156
18260TIP3    H276196   5.099   3.198  17.420 -1.6713 -2.8836  0.9383
18261TIP3   OH276197   0.690   2.219  16.770  0.3227  0.0391 -0.0201
18261TIP3    H176198   0.663   2.243  16.681  1.3816 -0.1341 -0.4025
18261TIP3    H276199   0.779   2.186  16.760  1.2090  1.8278  1.3696
18262TIP3   OH276200   4.437   6.012   0.408  0.2070  0.1441 -0.0407
18262TIP3    H176201   4.407   6.063   0.483  1.7624  0.2255  0.5578
18262TIP3    H276202   4.384   6.043   0.335  0.4998  1.9703  0.4915
18263TIP3   OH276203   0.200   6.240  14.258  0.2546 -0.0619  0.1946
18263TIP3    H176204   0.262   6.168  14.265 -0.6628 -1.0121 -1.0776
18263TIP3    H276205   0.153   6.240  14.341 -1.3413 -2.4925 -0.5977
18264TIP3   OH276206   3.364   1.215  16.696 -0.4641 -0.7167 -0.7359
18264TIP3    H176207   3.419   1.289  16.724 -1.4043  0.0973 -0.9966
18264TIP3    H276208   3.426   1.153  16.659  0.3005  0.1867 -1.0281
18265TIP3   OH276209   5.304   4.146  13.462  0.2117  1.0641  0.1827
18265TIP3    H176210   5.273   4.169  13.550 -0.4158 -0.1139  0.2899
18265TIP3    H276211   5.329   4.054  13.469  1.0111  1.2059 -0.6583
18266TIP3   OH276212   4.749   0.076  11.108 -1.1216 -0.1672  0.2366
18266TIP3    H176213   4.680   0.092  11.043  0.0496  0.6264 -0.8639
18266TIP3    H276214   4.822   0.131  11.079 -0.6580  0.4706  2.4273
18267TIP3   OH276215   2.255   3.126  13.149  0.0325  0.0740  0.4075
18267TIP3    H176216   2.191   3.095  13.213  1.3025  0.1693  1.7862
18267TIP3    H276217   2.297   3.201  13.190  1.8488 -0.6997  0.0893
18268TIP3   OH276218   5.605   3.899  12.672  0.5748  0.5866 -0.0668
18268TIP3    H176219   5.627   3.921  12.581  1.6431 -0.3429 -0.0677
18268TIP3    H276220   5.676   3.938  12.723  2.4809 -2.5089 -0.0667
18269TIP3   OH276221   4.321   3.879   2.578 -0.4863 -0.1261  0.0543
18269TIP3    H176222   4.377   3.864   2.502 -1.7605  3.2121 -1.7520
18269TIP3    H276223   4.236   3.843   2.553 -0.7946  0.5835  0.0699
18270TIP3   OH276224   4.628   2.967  11.790  0.0405  0.1934  0.2749
18270TIP3    H176225   4.533   2.958  11.788 -0.1928  1.9702  0.9843
18270TIP3    H276226   4.662   2.886  11.753 -1.7728  0.0261 -1.1267
18271TIP3   OH276227   1.275   3.703  16.055  0.4582  0.7615 -0.8660
18271TIP3    H176228   1.271   3.791  16.017  0.8045  0.5533 -1.3940
18271TIP3    H276229   1.285   3.644  15.980  1.9945  0.4023 -0.4178
18272TIP3   OH276230   3.931   2.534   1.835  0.3250 -0.6390 -0.1963
18272TIP3    H176231   4.021   2.554   1.859  0.5511 -2.2184  0.4032
18272TIP3    H276232   3.928   2.438   1.831 -1.2717 -0.6108 -0.4293
18273TIP3   OH276233   1.205   1.099   5.364  0.0246  0.9612  0.0609
18273TIP3    H176234   1.112   1.114   5.350 -0.5797 -2.1625 -0.1578
18273TIP3    H276235   1.227   1.030   5.301  1.9007  0.0200  1.6471
18274TIP3   OH276236   4.889   6.484   6.002 -0.2447  0.6386 -0.0014
18274TIP3    H176237   4.971   6.518   5.966 -0.2091  1.4799  0.8240
18274TIP3    H276238   4.822   6.517   5.943 -0.0808  0.9541 -0.0200
18275TIP3   OH276239   6.659   1.215  15.547 -0.0024  0.1130  0.0010
18275TIP3    H176240   6.744   1.197  15.587  0.3559  0.9489 -0.3623
18275TIP3    H276241   6.632   1.299  15.584  0.9523  1.5876 -2.4085
18276TIP3   OH276242   0.686   2.423  15.160  0.6433 -0.0936 -0.2263
18276TIP3    H176243   0.763   2.371  15.184  1.0932  0.3217 -0.7504
18276TIP3    H276244   0.705   2.511  15.191 -0.3200 -0.3235  1.0740
18277TIP3   OH276245   1.810   2.772  14.281 -0.3099 -0.4683  0.0313
18277TIP3    H176246   1.830   2.834  14.351 -0.7656 -0.8889  0.5410
18277TIP3    H276247   1.877   2.789  14.214  1.5657 -1.5531  1.5045
18278TIP3   OH276248   4.335   0.924   1.801  0.5059 -0.1897 -0.4045
18278TIP3    H176249   4.427   0.920   1.773 -0.1300  1.7105 -3.2268
18278TIP3    H276250   4.333   0.993   1.867  1.3346 -1.5877  1.1692
18279TIP3   OH276251   1.073   4.925   1.702  0.4435  0.2171 -0.5841
18279TIP3    H176252   1.065   4.988   1.632  0.8236 -0.4119 -1.2108
18279TIP3    H276253   1.068   4.840   1.659 -0.4364 -0.1978  0.2787
18280TIP3   OH276254   5.952   5.550   6.801  0.0423 -0.7707  0.0581
18280TIP3    H176255   5.968   5.478   6.863  1.9952 -0.6270 -0.2143
18280TIP3    H276256   5.984   5.516   6.718  1.4914  0.5772  0.0317
18281TIP3   OH276257   1.703   5.287  13.090 -0.1516  0.2102  0.1582
18281TIP3    H176258   1.794   5.273  13.064  0.2415  3.5883 -0.7206
18281TIP3    H276259   1.701   5.266  13.183  1.3461 -0.5875  0.0435
18282TIP3   OH276260   0.479   4.025   0.815  0.2048 -0.2557  0.3080
18282TIP3    H176261   0.493   4.113   0.780  0.8544 -0.8076 -0.8834
18282TIP3    H276262   0.541   4.018   0.888  1.2975 -0.2661 -0.5965
18283TIP3   OH276263   2.723   5.647  12.493  0.0704 -0.1534  0.1024
18283TIP3    H176264   2.681   5.564  12.468 -0.3344 -0.1672  0.7814
18283TIP3    H276265   2.765   5.678  12.413 -1.4082 -0.0490 -0.6759
18284TIP3   OH276266   4.638   2.175  13.523  0.7384 -0.1491 -0.3519
18284TIP3    H176267   4.660   2.171  13.616  1.2763  1.3486 -0.3811
18284TIP3    H276268   4.625   2.084  13.497 -0.8044 -0.5230  1.5018
18285TIP3   OH276269   6.047   2.083   4.963  0.4520 -0.6174  0.5839
18285TIP3    H176270   5.972   2.142   4.956  1.0117 -0.0077 -0.4025
18285TIP3    H276271   6.112   2.133   5.012  0.7177 -0.6238  0.2404
18286TIP3   OH276272   3.529   0.119  15.289 -0.0894  0.3795  0.6817
18286TIP3    H176273   3.613   0.124  15.334 -0.4607  1.4634  1.2698
18286TIP3    H276274   3.550   0.135  15.197  0.1219  2.8952  1.0937
18287TIP3   OH276275   5.653   6.262  15.113 -0.1551 -0.3964  0.1628
18287TIP3    H176276   5.616   6.351  15.109  1.9776  0.5091 -1.7284
18287TIP3    H276277   5.656   6.241  15.206 -1.7810  1.0251  0.5864
18288TIP3   OH276278   6.017   0.398   0.672 -0.9424 -0.4852  0.5713
18288TIP3    H176279   5.965   0.402   0.752 -0.6895  1.6214  0.6942
18288TIP3    H276280   6.050   0.487   0.661 -0.7267 -0.7975 -1.7313
18289TIP3   OH276281   1.002   3.254   3.738  0.1873 -0.0973  0.1561
18289TIP3    H176282   1.079   3.308   3.717 -0.1333  0.3217  0.0424
18289TIP3    H276283   1.021   3.169   3.698  0.4530  0.0998 -0.1447
18290TIP3   OH276284   1.183   6.579   3.742 -0.0281  0.0080  0.5196
18290TIP3    H176285   1.275   6.603   3.757  0.0555 -0.5294  0.8880
18290TIP3    H276286   1.176   6.490   3.776 -0.8948  0.3498  1.2775
18291TIP3   OH276287   2.004   3.611  10.847  0.0352  0.1335 -0.5234
18291TIP3    H176288   2.012   3.579  10.757  0.3830  3.2647 -1.7359
18291TIP3    H276289   1.978   3.534  10.897 -2.0847 -1.4046 -3.6039
18292TIP3   OH276290   3.893   0.805  15.724 -0.3898  0.4068 -0.5036
18292TIP3    H176291   3.810   0.798  15.677 -0.2660 -1.7051 -0.4829
18292TIP3    H276292   3.957   0.825  15.655 -0.4304 -1.2458 -1.0574
18293TIP3   OH276293   1.248   1.527  13.087 -0.2337 -0.1748  0.2168
18293TIP3    H176294   1.157   1.503  13.100 -0.0163 -0.4750  1.2722
18293TIP3    H276295   1.253   1.619  13.112 -0.0015 -0.5016  1.4054
18294TIP3   OH276296   3.309   2.059   0.940  0.3536  0.2401  0.6556
18294TIP3    H176297   3.324   2.061   1.034  0.1261 -1.7093  0.7632
18294TIP3    H276298   3.243   1.991   0.927  1.1908 -0.3073 -0.9928
18295TIP3   OH276299   0.301   4.984  14.746  0.1495  0.5497 -0.2369
18295TIP3    H176300   0.279   4.967  14.655  0.8112  0.3060 -0.3597
18295TIP3    H276301   0.218   4.976  14.793 -0.0198 -0.3996 -0.6661
18296TIP3   OH276302   0.413   0.804   5.904  0.2049 -0.2468  0.0618
18296TIP3    H176303   0.474   0.865   5.945 -1.4454  1.1225  0.6000
18296TIP3    H276304   0.383   0.749   5.976 -0.9002  0.6084  0.2867
18297TIP3   OH276305   5.352   0.702   2.993 -0.2567  0.4127  0.0889
18297TIP3    H176306   5.310   0.787   2.981 -0.9953 -0.0655 -0.7744
18297TIP3    H276307   5.445   0.723   3.002 -0.6927  1.6093  3.1645
18298TIP3   OH276308   5.035   6.709   2.813  0.1779 -0.0752 -0.0602
18298TIP3    H176309   5.123   6.671   2.806 -0.9898 -2.8743 -0.7462
18298TIP3    H276310   4.996   6.666   2.889 -0.7620  0.7929 -0.0338
18299TIP3   OH276311   0.845   0.873   1.611 -0.1352 -0.2635  0.3023
18299TIP3    H176312   0.908   0.821   1.561 -1.2387  0.2805 -1.8080
18299TIP3    H276313   0.889   0.956   1.626 -0.1635 -0.0328 -0.7913
18300TIP3   OH276314   4.522   0.195  16.143  0.7807  0.0772 -0.2015
18300TIP3    H176315   4.585   0.263  16.121  0.5568  0.3585  0.0091
18300TIP3    H276316   4.538   0.176  16.236  1.0043 -0.3304 -0.3218
18301TIP3   OH276317   4.835   5.990  11.716  0.0577 -0.1260  0.2549
18301TIP3    H176318   4.792   6.049  11.778 -1.3763 -1.3665  0.4773
18301TIP3    H276319   4.848   5.909  11.764  4.2229  0.6101  0.7431
18302TIP3   OH276320   0.622   6.050   4.186  0.6656 -0.1244  0.1683
18302TIP3    H176321   0.626   5.960   4.155 -1.0389 -0.3277  0.4167
18302TIP3    H276322   0.633   6.104   4.108  0.4522 -0.5659 -0.1663
18303TIP3   OH276323   4.524   4.762  13.032 -0.4152 -0.1358  0.2085
18303TIP3    H176324   4.465   4.791  13.101  0.1697  2.3553 -0.2346
18303TIP3    H276325   4.518   4.830  12.965  1.7564 -0.6025 -0.5439
18304TIP3   OH276326   6.598   3.583  12.596 -0.2063 -0.2745 -0.0455
18304TIP3    H176327   6.546   3.652  12.556 -0.8938  0.1469  1.5243
18304TIP3    H276328   6.544   3.550  12.668  0.7714 -1.3600  0.2286
18305TIP3   OH276329   1.638   2.830  15.115  0.2705  0.4211  0.1655
18305TIP3    H176330   1.648   2.784  15.031  0.4750  2.2491 -0.8725
18305TIP3    H276331   1.726   2.835  15.150  0.4891  1.3593 -0.4873
18306TIP3   OH276332   4.438   4.234   4.986 -0.3512 -0.1986  0.2650
18306TIP3    H176333   4.373   4.276   5.041 -0.2944 -0.1323  0.2815
18306TIP3    H276334   4.414   4.141   4.988 -1.9887  0.1196 -1.8002
18307TIP3   OH276335   2.161   3.577  12.318  0.0681  0.6988  0.3956
18307TIP3    H176336   2.214   3.653  12.344 -0.7386  1.1618  0.7424
18307TIP3    H276337   2.169   3.517  12.392  0.8969  0.3384  0.0195
18308TIP3   OH276338   4.730   2.644   4.565 -0.2803  0.2774 -0.0610
18308TIP3    H176339   4.709   2.610   4.478  0.6080 -0.4570  0.0002
18308TIP3    H276340   4.802   2.589   4.596 -0.7542  0.3602  1.2538
18309TIP3   OH276341   5.236   1.662   5.659 -0.4085  0.1970  0.3620
18309TIP3    H176342   5.297   1.699   5.722  1.2802  2.0629 -2.1681
18309TIP3    H276343   5.190   1.738   5.623 -0.0080 -0.5693 -1.8944
18310TIP3   OH276344   2.115   6.089  14.669  0.6309 -0.5507 -0.1961
18310TIP3    H176345   2.111   6.179  14.635 -2.7942 -0.3750  0.3780
18310TIP3    H276346   2.203   6.059  14.645  1.1775  2.2335 -2.1937
18311TIP3   OH276347   0.447   5.368   1.142 -0.1174 -0.0406 -0.4619
18311TIP3    H176348   0.482   5.439   1.087 -0.2259 -0.2248 -0.7724
18311TIP3    H276349   0.362   5.401   1.172 -0.3375 -0.1862 -0.9124
18312TIP3   OH276350   2.931   4.759  16.774 -0.3558 -0.6245  0.1216
18312TIP3    H176351   3.001   4.823  16.774 -1.8814  1.1437  0.2545
18312TIP3    H276352   2.941   4.711  16.856 -0.0225  0.4393  0.7225
18313TIP3   OH276353   6.057   4.216   5.167  0.7174 -0.3995 -0.1646
18313TIP3    H176354   6.028   4.174   5.248  0.1344 -1.3699 -0.8531
18313TIP3    H276355   6.012   4.300   5.167  2.0051  0.3331  1.3047
18314TIP3   OH276356   3.618   4.535   4.536 -0.0117 -0.2547  0.3441
18314TIP3    H176357   3.629   4.440   4.537  1.4439 -0.2557 -3.0048
18314TIP3    H276358   3.530   4.550   4.504  0.8240 -0.6058 -2.3373
18315TIP3   OH276359   3.337   0.347   4.672  0.0816  0.4745  0.1039
18315TIP3    H176360   3.307   0.302   4.751  1.7219 -0.1542  0.4020
18315TIP3    H276361   3.328   0.440   4.694 -2.0879  0.3619 -0.0395
18316TIP3   OH276362   4.848   2.681  11.013  0.4069 -0.0630  0.0810
18316TIP3    H176363   4.784   2.700  10.945 -0.1906  0.8577  0.8809
18316TIP3    H276364   4.859   2.764  11.060  0.8282 -0.6675  1.0902
18317TIP3   OH276365   4.743   0.438  12.086 -0.4121 -0.3687  0.2936
18317TIP3    H176366   4.660   0.431  12.038  0.0198 -1.4607 -0.3372
18317TIP3    H276367   4.798   0.369  12.049  0.0469 -1.0719  2.1747
18318TIP3   OH276368   3.329   5.906  11.693 -0.4416  0.3932  0.5255
18318TIP3    H176369   3.384   5.848  11.745 -0.8912 -0.2881  0.2545
18318TIP3    H276370   3.310   5.980  11.751 -0.2676  0.0343  1.0431
18319TIP3   OH276371   6.585   1.976  14.217  0.2607 -0.1916  0.7096
18319TIP3    H176372   6.651   1.963  14.284 -1.1194 -0.0464  2.1468
18319TIP3    H276373   6.527   1.900  14.224  1.5274 -1.6058 -2.1744
18320TIP3   OH276374   2.278   0.868   4.209 -0.2668  0.7550 -0.6558
18320TIP3    H176375   2.296   0.885   4.302  0.8478  1.6137 -1.0140
18320TIP3    H276376   2.200   0.921   4.190  1.0578  2.7274 -0.8490
18321TIP3   OH276377   5.848   3.079   0.296  0.2615 -1.0129 -0.0114
18321TIP3    H176378   5.869   3.001   0.346  0.1607 -1.8331 -1.1932
18321TIP3    H276379   5.754   3.073   0.278  0.1636 -0.3926  0.2459
18322TIP3   OH276380   4.584   4.373  11.451  0.3376 -0.0041 -0.3653
18322TIP3    H176381   4.505   4.365  11.397 -0.2533  0.4148  0.4263
18322TIP3    H276382   4.590   4.290  11.498  0.4243 -0.0701 -0.4916
18323TIP3   OH276383   0.126   3.868  11.957  0.1884  0.6974  0.3234
18323TIP3    H176384   0.058   3.857  11.891  1.2934  0.2272 -0.7784
18323TIP3    H276385   0.203   3.823  11.921  0.8346  0.4193  1.9286
18324TIP3   OH276386   0.722   2.290   5.083 -0.0770 -0.2251 -0.2967
18324TIP3    H176387   0.638   2.255   5.054 -0.6485  1.0220 -0.2252
18324TIP3    H276388   0.722   2.381   5.053  0.5886  0.2332  1.0202
18325TIP3   OH276389   2.445   3.141  16.338 -0.2927 -0.0864  0.0822
18325TIP3    H176390   2.464   3.205  16.408  1.1726  0.1769 -0.5154
18325TIP3    H276391   2.463   3.056  16.378  2.5358  0.1502 -0.4738
18326TIP3   OH276392   0.171   4.985  12.036  0.4770 -0.3098  0.2779
18326TIP3    H176393   0.206   4.988  12.125  1.5013 -0.8990 -0.0840
18326TIP3    H276394   0.112   4.910  12.036  1.3310 -0.9978  0.1814
18327TIP3   OH276395   3.220   2.500   4.564  1.2665  0.0286 -0.2042
18327TIP3    H176396   3.280   2.567   4.531  0.3347  1.7959  1.4719
18327TIP3    H276397   3.134   2.527   4.531  1.3121 -2.8208 -3.1126
18328TIP3   OH276398   4.790   0.091  17.011  0.1266 -0.8917  0.2171
18328TIP3    H176399   4.773   0.147  16.935  0.1652 -0.9737  0.1468
18328TIP3    H276400   4.797   0.003  16.974 -1.3816 -1.1555  0.4778
18329TIP3   OH276401   6.681   6.529  16.672 -0.9584 -0.2770  0.3625
18329TIP3    H176402   6.629   6.564  16.744 -2.2408  1.7162 -1.4341
18329TIP3    H276403   6.674   6.434  16.681 -2.4480 -0.0664  1.8679
18330TIP3   OH276404   2.925   6.443   1.295  0.5125 -0.2624 -0.7848
18330TIP3    H176405   2.985   6.448   1.370  0.8309 -1.8728 -0.9032
18330TIP3    H276406   2.869   6.519   1.305 -0.0536 -0.9004  1.6072
18331TIP3   OH276407   2.165   4.325   3.607  0.1326 -0.6619 -0.1471
18331TIP3    H176408   2.157   4.290   3.696 -0.0354 -0.3153 -0.0213
18331TIP3    H276409   2.240   4.385   3.613  0.1020 -0.6162 -0.2309
18332TIP3   OH276410   5.063   1.020  15.720 -0.1895 -0.3214 -0.2413
18332TIP3    H176411   5.105   0.959  15.660  1.5863  0.3367  0.2808
18332TIP3    H276412   5.067   0.976  15.805 -0.8216 -0.3654 -0.2293
18333TIP3   OH276413   5.023   5.113  17.431  0.3879 -0.3444  0.5949
18333TIP3    H176414   4.985   5.091  17.346  0.9144 -1.0313  0.5354
18333TIP3    H276415   5.006   5.037  17.486  0.2227  0.0172  1.0521
18334TIP3   OH276416   3.685   0.622   0.022  0.2195 -0.4304  0.2837
18334TIP3    H176417   3.768   0.574   0.025 -0.3240 -1.3413  1.6199
18334TIP3    H276418   3.618   0.554   0.032 -0.5860  0.5616  2.0468
18335TIP3   OH276419   4.765   6.277   5.749 -0.1143 -0.0833  0.0336
18335TIP3    H176420   4.857   6.292   5.772  0.1594  0.6613 -1.3904
18335TIP3    H276421   4.726   6.364   5.748 -1.1356 -0.4912  1.6854
18336TIP3   OH276422   3.010   1.273  15.732  0.0434  0.2829  0.4015
18336TIP3    H176423   3.001   1.363  15.763 -0.6452  0.5850 -0.6366
18336TIP3    H276424   3.072   1.278  15.659  0.5442 -0.2028  0.7801
18337TIP3   OH276425   2.445   1.707  11.605  0.1255 -0.1774  0.2795
18337TIP3    H176426   2.368   1.682  11.555 -0.0958  1.2175 -0.1006
18337TIP3    H276427   2.514   1.718  11.539  0.3012 -0.1083  0.4727
18338TIP3   OH276428   3.037   0.529   1.079  0.4807  0.2120  0.0606
18338TIP3    H176429   2.964   0.518   1.019  0.8311  1.0096 -0.5248
18338TIP3    H276430   2.999   0.518   1.166 -0.2041 -0.0400 -0.2718
18339TIP3   OH276431   0.919   0.804   3.427  1.1393 -0.2606 -0.2368
18339TIP3    H176432   0.929   0.887   3.380 -2.0371  0.1639 -0.3796
18339TIP3    H276433   0.878   0.828   3.509 -1.5879 -1.7771 -1.0519
18340TIP3   OH276434   4.817   1.396  15.777  0.3222  0.0911  0.3817
18340TIP3    H176435   4.815   1.486  15.809 -1.5723  0.0280  0.5339
18340TIP3    H276436   4.745   1.391  15.715  2.4886 -0.4222 -2.2701
18341TIP3   OH276437   2.611   0.843  12.878  0.1536  0.6967  0.0753
18341TIP3    H176438   2.705   0.851  12.867  0.1942 -0.1256 -0.2392
18341TIP3    H276439   2.590   0.756  12.844 -0.8826  1.3300 -0.9933
18342TIP3   OH276440   4.032   5.474   4.816 -0.0447 -0.0477 -0.0086
18342TIP3    H176441   3.972   5.400   4.807 -2.7143  2.1487 -2.1012
18342TIP3    H276442   4.066   5.488   4.727 -0.8010  2.0628 -0.0196
18343TIP3   OH276443   5.200   6.197   3.206  0.5319  0.2367  0.1358
18343TIP3    H176444   5.130   6.171   3.267 -0.8644  2.2984 -0.4944
18343TIP3    H276445   5.204   6.125   3.143  0.0650 -0.6211  1.0430
18344TIP3   OH276446   2.193   5.363   3.193 -0.2313 -0.7629  0.7589
18344TIP3    H176447   2.247   5.299   3.239  0.0866  0.4837  2.1864
18344TIP3    H276448   2.253   5.405   3.131  0.0452 -0.5031  1.1997
18345TIP3   OH276449   4.417   2.511   3.563 -0.3179  0.3635  0.0570
18345TIP3    H176450   4.456   2.429   3.593  0.9722  0.6953 -0.6305
18345TIP3    H276451   4.341   2.484   3.510  0.4317 -0.4214 -0.6398
18346TIP3   OH276452   4.177   5.612  10.938  0.4498 -0.0736 -0.2663
18346TIP3    H176453   4.110   5.680  10.948 -0.2691 -0.4965 -1.8991
18346TIP3    H276454   4.246   5.654  10.887  1.4993  0.3561  1.3967
18347TIP3   OH276455   2.806   1.212   3.742 -0.6568 -0.5192  0.1386
18347TIP3    H176456   2.748   1.272   3.695  0.1009 -0.1531 -0.3565
18347TIP3    H276457   2.752   1.135   3.760 -1.4142 -0.0131  0.0827
18348TIP3   OH276458   0.959   3.646   0.251  0.3784  0.1829  0.0988
18348TIP3    H176459   0.921   3.723   0.293  0.8743 -0.2809  1.4645
18348TIP3    H276460   1.053   3.665   0.248  0.3235  0.3123 -1.0550
18349TIP3   OH276461   5.549   6.329  13.953 -0.4455 -0.0320 -0.1238
18349TIP3    H176462   5.538   6.385  14.030 -0.4030  0.7499 -0.6680
18349TIP3    H276463   5.568   6.242  13.988 -0.4081  0.3206  0.7448
18350TIP3   OH276464   3.821   1.340   0.392 -0.0376 -0.1165 -0.2572
18350TIP3    H176465   3.910   1.373   0.407 -0.3808 -0.1648  2.3952
18350TIP3    H276466   3.789   1.391   0.318  1.4987  1.3561  0.0188
18351TIP3   OH276467   0.667   0.615  16.070  0.1727 -0.3057 -0.1627
18351TIP3    H176468   0.647   0.523  16.057 -1.9967 -0.0347  0.6921
18351TIP3    H276469   0.606   0.643  16.138 -1.7695  2.5594 -2.7817
18352TIP3   OH276470   0.767   3.107  11.393  0.4925  0.3761 -0.3527
18352TIP3    H176471   0.774   3.176  11.328  1.5041  0.5558 -0.0753
18352TIP3    H276472   0.791   3.027  11.345 -1.4985  0.0364 -0.8953
18353TIP3   OH276473   0.787   4.346   0.061 -0.4381 -0.3696 -0.4969
18353TIP3    H176474   0.838   4.274   0.024 -2.5370 -1.1349 -2.1413
18353TIP3    H276475   0.795   4.417  -0.002 -1.7420 -0.6816 -1.0542
18354TIP3   OH276476   3.304   6.049   5.833  0.3649 -0.7640 -0.7087
18354TIP3    H176477   3.292   6.101   5.753  0.0994 -0.2217 -0.3251
18354TIP3    H276478   3.276   5.961   5.808  0.1066 -0.5594 -1.1671
18355TIP3   OH276479   6.253   6.023   1.207  0.4552  0.1081  0.3677
18355TIP3    H176480   6.183   6.013   1.273  0.3129 -1.5005  0.0153
18355TIP3    H276481   6.333   6.029   1.258  0.1453  1.0469  0.7527
18356TIP3   OH276482   6.155   5.169  12.754 -0.0227 -0.9959  0.6590
18356TIP3    H176483   6.095   5.113  12.705  0.8766 -2.0257  0.6817
18356TIP3    H276484   6.180   5.238  12.692 -0.6024 -1.0174  0.3987
18357TIP3   OH276485   4.803   3.314  16.687  0.6091 -0.2187  0.2457
18357TIP3    H176486   4.766   3.240  16.638  0.7896 -0.9966  1.2300
18357TIP3    H276487   4.798   3.286  16.779 -0.9757  1.7498  0.8067
18358TIP3   OH276488   5.722   0.195  13.194  0.1355 -0.3953  0.2310
18358TIP3    H176489   5.761   0.282  13.187  0.6603 -0.6729 -0.3053
18358TIP3    H276490   5.628   0.212  13.196  0.2354  0.1892  0.2242
18359TIP3   OH276491   2.568   5.578  10.824 -0.6366 -0.1686 -0.0821
18359TIP3    H176492   2.528   5.633  10.757 -0.5864 -0.0305  0.0021
18359TIP3    H276493   2.657   5.561  10.791 -0.1663  0.9714  0.5668
18360TIP3   OH276494   5.236   6.395   4.220  0.4085  0.5203  0.8827
18360TIP3    H176495   5.183   6.320   4.195  2.3591 -0.3692 -0.8867
18360TIP3    H276496   5.235   6.395   4.315 -2.4603  0.4079  0.9344
18361TIP3   OH276497   2.030   5.316   6.334  0.4297 -0.1889 -0.5098
18361TIP3    H176498   2.024   5.372   6.412  0.4449  0.3101 -0.8639
18361TIP3    H276499   1.973   5.241   6.354 -0.8456  0.7115 -0.6556
18362TIP3   OH276500   0.150   6.427   5.690 -0.3966 -0.1525  0.3403
18362TIP3    H176501   0.118   6.337   5.685 -1.9844  0.4318 -1.1266
18362TIP3    H276502   0.082   6.474   5.736 -2.3988  1.3112 -3.6410
18363TIP3   OH276503   3.190   2.265   6.608 -0.3641  0.2650 -0.2852
18363TIP3    H176504   3.252   2.329   6.642 -0.1750 -0.7195  1.3266
18363TIP3    H276505   3.235   2.181   6.615 -0.7237 -0.1179 -2.0690
18364TIP3   OH276506   3.199   0.914  16.460 -0.6544 -0.4675  0.0640
18364TIP3    H176507   3.284   0.875  16.440 -0.8608 -0.5487 -0.6819
18364TIP3    H276508   3.135   0.845  16.443 -0.9118 -0.2296  0.0498
18365TIP3   OH276509   0.215   1.563  14.901 -0.4337 -0.5665  0.2100
18365TIP3    H176510   0.296   1.513  14.894 -0.6519 -0.8143 -0.7117
18365TIP3    H276511   0.220   1.604  14.987  1.5452  0.9355 -0.5268
18366TIP3   OH276512   0.649   4.385  12.032  0.1360  0.1183  0.0859
18366TIP3    H176513   0.706   4.462  12.022 -0.2612  0.3264 -0.6624
18366TIP3    H276514   0.639   4.351  11.943 -0.7392 -0.0347  0.2347
18367TIP3   OH276515   0.090   5.555  12.700 -0.0326  0.1276  0.4222
18367TIP3    H176516   0.047   5.612  12.636 -0.5167  0.1317  0.7495
18367TIP3    H276517   0.174   5.597  12.716  1.1315 -1.0671 -1.9658
18368TIP3   OH276518   3.309   2.783   1.057  0.3596 -0.3095 -0.5388
18368TIP3    H176519   3.328   2.873   1.082 -2.9903  0.1435  0.9306
18368TIP3    H276520   3.348   2.773   0.970  2.6941  1.7886  0.1506
18369TIP3   OH276521   3.970   2.949  14.934 -0.2440  0.3512 -0.2136
18369TIP3    H176522   3.993   2.909  14.851 -1.6250 -0.2807 -0.3265
18369TIP3    H276523   3.881   2.984  14.921  0.4133  2.3741  0.2727
18370TIP3   OH276524   5.251   1.483   2.214  0.2866  0.4593 -0.2914
18370TIP3    H176525   5.265   1.448   2.302 -2.4123 -0.3060 -0.0671
18370TIP3    H276526   5.225   1.574   2.228  3.5225  1.5823 -0.6448
18371TIP3   OH276527   3.333   6.374  11.198 -0.6469 -0.1752 -0.4127
18371TIP3    H176528   3.286   6.457  11.211  1.5021  1.1608 -0.7013
18371TIP3    H276529   3.267   6.306  11.215 -2.2970  1.5728  0.5377
18372TIP3   OH276530   2.184   4.401  12.952 -0.1089  0.0103  0.0684
18372TIP3    H176531   2.178   4.319  13.000  1.1920  0.1210  0.4601
18372TIP3    H276532   2.114   4.456  12.988  0.3835 -0.1716  1.3143
18373TIP3   OH276533   3.057   6.292   0.994 -0.4561 -1.0072 -0.7422
18373TIP3    H176534   3.076   6.386   0.985 -0.2711 -0.9164  0.4502
18373TIP3    H276535   3.124   6.249   0.940  1.2006 -0.5436  0.8453
18374TIP3   OH276536   6.699   1.579  12.803 -0.0735  0.1755  0.3988
18374TIP3    H176537   6.740   1.525  12.870  1.5391  0.1964 -0.5150
18374TIP3    H276538   6.748   1.560  12.723 -0.0709  2.2626 -0.1553
18375TIP3   OH276539   2.564   1.122   3.125 -0.3263  0.3572  0.3316
18375TIP3    H176540   2.515   1.165   3.196  0.0304  0.3398  0.5906
18375TIP3    H276541   2.552   1.179   3.050 -0.2875  0.6403  0.5397
18376TIP3   OH276542   1.781   0.106   0.611  0.0224 -0.4234 -0.4247
18376TIP3    H176543   1.790   0.029   0.666  1.5024 -1.1497 -1.5983
18376TIP3    H276544   1.841   0.170   0.649  0.6165 -0.7253 -0.8345
18377TIP3   OH276545   1.931   2.772   4.075 -0.0400  0.0717 -0.3144
18377TIP3    H176546   2.013   2.725   4.062 -0.0791 -0.0384 -0.1654
18377TIP3    H276547   1.926   2.832   4.001  0.8684  1.0897  0.4073
18378TIP3   OH276548   3.108   1.171  11.012  0.7843  0.1676  0.2921
18378TIP3    H176549   3.125   1.241  10.950  0.6912 -0.3284 -0.3020
18378TIP3    H276550   3.089   1.095  10.958 -0.3636 -0.0181  0.9287
18379TIP3   OH276551   6.297   3.326   3.895 -0.4494 -0.3021  0.1042
18379TIP3    H176552   6.259   3.239   3.899 -2.2102  0.2754 -2.1625
18379TIP3    H276553   6.341   3.330   3.810  0.0449  0.8502  0.3832
18380TIP3   OH276554   3.943   1.303  16.075 -0.5058 -0.3861  0.8829
18380TIP3    H176555   3.952   1.274  15.984  1.2159 -1.2428  1.2747
18380TIP3    H276556   3.880   1.242  16.113 -0.8364 -0.3559  0.3865
18381TIP3   OH276557   4.644   1.036  11.111 -0.3782  0.0312 -0.4334
18381TIP3    H176558   4.560   1.082  11.111 -0.9376 -0.9616  0.0105
18381TIP3    H276559   4.709   1.106  11.116 -1.1521  0.8407 -1.1486
18382TIP3   OH276560   0.903   5.673  15.210 -0.2650 -0.0148  0.4468
18382TIP3    H176561   0.937   5.762  15.223  1.1805 -0.4329 -0.2935
18382TIP3    H276562   0.825   5.670  15.265  0.4179  1.2720  1.5723
18383TIP3   OH276563   2.938   3.230   0.184 -0.0729  0.3084 -0.1405
18383TIP3    H176564   2.909   3.139   0.188 -0.9690  0.5794 -0.2048
18383TIP3    H276565   2.939   3.252   0.091 -3.2711  1.3802 -0.0253
18384TIP3   OH276566   0.088   5.130   3.213  0.3381 -0.1157 -0.2752
18384TIP3    H176567   0.152   5.091   3.273  0.4023 -1.6468 -1.2995
18384TIP3    H276568   0.005   5.127   3.260  0.1987 -2.1993 -0.6011
18385TIP3   OH276569   5.459   2.267   6.433  0.1460 -0.5849  0.4278
18385TIP3    H176570   5.419   2.214   6.502 -0.1289 -0.8544  0.0709
18385TIP3    H276571   5.384   2.305   6.387  0.3461  0.3399  0.8507
18386TIP3   OH276572   1.335   2.151  14.241 -0.7344  0.4643 -0.0940
18386TIP3    H176573   1.369   2.202  14.168 -0.4697  0.1736 -0.1750
18386TIP3    H276574   1.377   2.188  14.318  0.8057 -0.7438 -0.3150
18387TIP3   OH276575   3.184   5.600   6.581  0.3915  0.1012 -0.3592
18387TIP3    H176576   3.210   5.692   6.572  1.7914 -0.2355  0.0112
18387TIP3    H276577   3.144   5.595   6.667 -0.6420  0.5530 -0.7909
18388TIP3   OH276578   5.258   1.555  16.412 -0.1124 -0.3465  0.0478
18388TIP3    H176579   5.341   1.510  16.427  1.2410  1.9431 -0.0761
18388TIP3    H276580   5.229   1.582  16.499 -0.0039  0.0326 -0.0301
18389TIP3   OH276581   5.756   1.141   3.894  0.3616 -0.3572  0.5883
18389TIP3    H176582   5.688   1.160   3.958 -2.4710 -0.5799 -2.1249
18389TIP3    H276583   5.791   1.227   3.870  1.0944 -0.2391  1.9674
18390TIP3   OH276584   5.051   2.008  14.933 -0.4088 -0.4361  0.1584
18390TIP3    H176585   5.102   1.971  14.861  0.6127 -0.9688  1.1218
18390TIP3    H276586   5.112   2.066  14.978 -1.2992  0.5882  0.0859
18391TIP3   OH276587   6.141   0.402  13.402  0.1214  0.6028  0.4464
18391TIP3    H176588   6.116   0.389  13.310 -1.4281 -0.8928  1.0112
18391TIP3    H276589   6.160   0.495  13.409  1.9810  0.4871 -1.7524
18392TIP3   OH276590   4.804   6.225   4.817 -0.2633 -0.6754 -0.0627
18392TIP3    H176591   4.818   6.133   4.794 -0.1263 -0.5678 -0.4129
18392TIP3    H276592   4.724   6.225   4.869 -1.2061 -0.7832 -1.4889
18393TIP3   OH276593   5.669   5.819  11.005  0.3262 -0.3856  0.2842
18393TIP3    H176594   5.606   5.810  10.934 -0.4780 -0.8989  1.0438
18393TIP3    H276595   5.657   5.909  11.037  0.7169 -0.1404 -0.2342
18394TIP3   OH276596   5.727   5.415   4.970  0.1392 -0.3680  0.0742
18394TIP3    H176597   5.723   5.479   5.042  1.9951 -0.2492  0.1201
18394TIP3    H276598   5.728   5.330   5.013  0.8664 -0.3094  0.1784
18395TIP3   OH276599   1.592   5.032  12.320  0.4862 -0.2709  0.0110
18395TIP3    H176600   1.667   5.027  12.260  1.1127  0.0810  0.7553
18395TIP3    H276601   1.582   5.125  12.338  0.9018 -0.4357  1.1817
18396TIP3   OH276602   4.949   1.486  16.600  0.7829  0.7034  0.8821
18396TIP3    H176603   4.877   1.544  16.577 -0.1206 -1.5546 -2.6669
18396TIP3    H276604   4.910   1.419  16.656  0.4253  0.3282  0.1988
18397TIP3   OH276605   5.671   2.741  15.980  0.1651 -0.3136  0.0502
18397TIP3    H176606   5.714   2.757  16.064 -0.2130  0.2847  0.1394
18397TIP3    H276607   5.583   2.712  16.004 -0.8907  2.4323 -0.0839
18398TIP3   OH276608   4.979   1.434   4.403 -0.7397  0.5487 -0.0243
18398TIP3    H176609   4.912   1.444   4.335  0.7663  0.3436 -1.5960
18398TIP3    H276610   4.951   1.492   4.473 -2.0359  1.2267 -1.0642
18399TIP3   OH276611   1.311   5.996  11.310  0.0367  0.3059 -0.7549
18399TIP3    H176612   1.223   6.010  11.346 -0.4085 -0.7285 -1.3849
18399TIP3    H276613   1.322   6.069  11.248 -0.7941 -0.0761 -1.3877
18400TIP3   OH276614   2.361   0.637   2.753 -0.3097  0.0503 -0.0442
18400TIP3    H176615   2.281   0.673   2.791 -1.3273 -1.7550 -0.3654
18400TIP3    H276616   2.422   0.710   2.752 -1.4023  1.0594  1.7618
18401TIP3   OH276617   5.116   3.388  11.243 -0.0754  0.0411  0.8117
18401TIP3    H176618   5.104   3.299  11.209  1.2756  0.4836 -1.0089
18401TIP3    H276619   5.053   3.441  11.194  1.3213  0.5546 -0.5095
18402TIP3   OH276620   5.693   5.971   2.624  0.5027  0.6491 -0.1156
18402TIP3    H176621   5.680   5.909   2.552 -0.6735  2.0562 -1.1581
18402TIP3    H276622   5.759   6.032   2.591  0.3286  1.0093  0.2066
18403TIP3   OH276623   1.122   2.213   2.961  0.6327 -0.1460  0.3089
18403TIP3    H176624   1.189   2.217   2.893 -0.9219 -0.0506 -1.2962
18403TIP3    H276625   1.098   2.121   2.965 -0.4273  0.0785 -0.4822
18404TIP3   OH276626   6.416   2.761  10.674  0.3265  0.4774 -0.2727
18404TIP3    H176627   6.487   2.753  10.738  1.0673 -1.1168 -1.2381
18404TIP3    H276628   6.339   2.728  10.720  0.8328 -0.5852 -0.1469
18405TIP3   OH276629   3.250   0.621   1.383  0.0801 -0.0334 -0.2465
18405TIP3    H176630   3.158   0.595   1.372 -0.4793  1.5582  0.4150
18405TIP3    H276631   3.295   0.540   1.408 -1.2177 -0.7492 -0.1400
18406TIP3   OH276632   4.882   2.880  13.914 -0.0391  0.2171  0.4568
18406TIP3    H176633   4.972   2.847  13.922 -0.2164 -0.0617  1.4543
18406TIP3    H276634   4.876   2.910  13.823  1.8295  2.4769  0.9625
18407TIP3   OH276635   2.433   3.024  12.416  0.7512  0.4211 -0.5327
18407TIP3    H176636   2.411   3.100  12.362  1.2348  0.9672  0.0145
18407TIP3    H276637   2.432   3.057  12.506 -0.2982 -0.5386 -0.1768
18408TIP3   OH276638   5.755   5.272  15.900 -0.1154 -0.0248 -0.7306
18408TIP3    H176639   5.775   5.179  15.893  0.0253  0.0362 -1.2210
18408TIP3    H276640   5.676   5.276  15.954  0.6944 -0.3256  0.5267
18409TIP3   OH276641   0.046   4.910  13.154 -0.3756 -0.1501 -0.4128
18409TIP3    H176642  -0.019   4.979  13.170  0.6010  1.1029 -1.6049
18409TIP3    H276643   0.128   4.946  13.187 -0.0007 -1.1552 -0.1947
18410TIP3   OH276644   1.947   3.302  11.373 -0.1548  0.3971 -0.2230
18410TIP3    H176645   1.954   3.349  11.290  0.6337  0.7519  0.0407
18410TIP3    H276646   2.033   3.309  11.412 -0.0512 -1.1496 -0.1005
18411TIP3   OH276647   2.236   3.497  16.925 -1.0735 -0.5196 -0.7955
18411TIP3    H176648   2.198   3.483  17.012 -1.9653 -2.2931 -1.4269
18411TIP3    H276649   2.200   3.426  16.871 -0.4425  0.4573 -2.5900
18412TIP3   OH276650   6.562   2.668  17.250  0.3792  0.2545  1.0321
18412TIP3    H176651   6.560   2.758  17.218  1.9846 -0.1456 -0.3636
18412TIP3    H276652   6.518   2.672  17.335  0.1549  2.2907  0.8823
18413TIP3   OH276653   5.256   1.153   3.248  0.2449 -0.1116 -0.1132
18413TIP3    H176654   5.222   1.177   3.334 -0.3053 -1.0863 -0.0361
18413TIP3    H276655   5.180   1.158   3.190  1.0473  2.6826 -1.0393
18414TIP3   OH276656   2.867   6.010   3.524  0.0026 -0.4656 -0.5963
18414TIP3    H176657   2.915   5.928   3.538  1.0219  0.5596  3.2583
18414TIP3    H276658   2.932   6.078   3.542 -0.6407  1.3644 -4.3011
18415TIP3   OH276659   6.161   4.796  12.114  0.0626 -0.1989  0.2241
18415TIP3    H176660   6.220   4.818  12.042 -0.0244 -4.4036 -1.3783
18415TIP3    H276661   6.134   4.881  12.150  2.7571  1.9914 -2.4759
18416TIP3   OH276662   1.539   0.182  16.891  0.1369  0.8930  0.2109
18416TIP3    H176663   1.575   0.150  16.808 -0.2414  1.5640 -0.2165
18416TIP3    H276664   1.546   0.277  16.886 -2.0582  1.0863 -0.0567
18417TIP3   OH276665   5.837   3.679   3.258  0.1465 -0.6601 -0.3141
18417TIP3    H176666   5.919   3.707   3.297  1.0430 -3.3639 -0.0242
18417TIP3    H276667   5.860   3.651   3.169 -0.6899 -0.3808 -0.6326
18418TIP3   OH276668   1.015   3.101  12.832 -0.0945  0.6082 -0.2519
18418TIP3    H176669   0.984   3.035  12.770 -0.2009 -3.4418  3.5930
18418TIP3    H276670   1.107   3.112  12.812 -0.4424  0.5646 -1.9947
18419TIP3   OH276671   5.721   3.827  13.513  0.6559  0.2346 -0.2004
18419TIP3    H176672   5.807   3.806  13.477 -0.0187 -1.1627 -1.1045
18419TIP3    H276673   5.660   3.772  13.463 -0.5672 -0.1116  1.5558
18420TIP3   OH276674   0.271   4.605   3.515  0.0113  0.1537 -0.3397
18420TIP3    H176675   0.365   4.608   3.533 -0.0309 -1.2994  0.3338
18420TIP3    H276676   0.262   4.532   3.453 -0.8224 -0.7738  0.8445
18421TIP3   OH276677   0.410   3.742   3.043  0.1739 -0.2270 -0.0597
18421TIP3    H176678   0.471   3.801   3.086 -1.0144  0.0359  1.3451
18421TIP3    H276679   0.412   3.768   2.950  0.0169  1.7349  0.4479
18422TIP3   OH276680   0.954   5.694   5.434 -0.1268 -0.2124  0.5382
18422TIP3    H176681   0.914   5.618   5.391  0.8841 -0.4840  0.0612
18422TIP3    H276682   0.959   5.669   5.526 -1.0847 -0.1537  0.6204
18423TIP3   OH276683   1.006   4.314   1.376 -0.0442 -0.1906 -0.5008
18423TIP3    H176684   1.101   4.309   1.381  0.0307 -1.4748 -2.3683
18423TIP3    H276685   0.988   4.404   1.349  0.6439 -0.0356 -0.4628
18424TIP3   OH276686   5.104   1.054  16.481 -0.4985 -0.1331 -0.1333
18424TIP3    H176687   5.053   0.980  16.448  0.0895  0.1837 -1.8571
18424TIP3    H276688   5.112   1.038  16.575 -3.1837 -0.5241  0.1017
18425TIP3   OH276689   1.785   6.166  16.408 -0.0830 -0.3983 -0.2091
18425TIP3    H176690   1.863   6.222  16.411  0.6676 -1.3825 -0.6597
18425TIP3    H276691   1.715   6.224  16.379  0.3089  0.6748  0.9098
18426TIP3   OH276692   1.005   2.686   2.691  0.3649  0.3660 -0.1317
18426TIP3    H176693   0.971   2.702   2.603 -0.6318 -0.6473  0.0405
18426TIP3    H276694   1.002   2.590   2.700  2.5922  0.2687  0.1798
18427TIP3   OH276695   4.462   2.841   1.856 -0.0800 -0.0867 -0.3024
18427TIP3    H176696   4.381   2.791   1.868 -1.3937  1.7712 -0.8985
18427TIP3    H276697   4.493   2.858   1.945 -1.4113  0.7333  0.0498
18428TIP3   OH276698   3.997   3.306  12.818  0.1366 -0.0108 -0.3530
18428TIP3    H176699   4.064   3.365  12.784  0.0232  1.1120  1.2418
18428TIP3    H276700   4.043   3.224  12.834  1.1510  0.7150  0.6442
18429TIP3   OH276701   1.583   5.127   2.710  0.6545 -0.0692 -0.0010
18429TIP3    H176702   1.625   5.080   2.639  1.0628  0.6380 -0.2362
18429TIP3    H276703   1.579   5.218   2.680  0.1665  0.1059  0.5711
18430TIP3   OH276704   4.195   1.211  15.933  0.2997  0.1524 -0.1764
18430TIP3    H176705   4.129   1.212  16.003  0.2085 -0.6562 -0.2442
18430TIP3    H276706   4.267   1.159  15.969 -0.3017 -1.4336 -1.1608
18431TIP3   OH276707   0.149   4.807  14.551  0.3073 -0.5183  0.1843
18431TIP3    H176708   0.098   4.887  14.564  0.6221 -0.2535 -0.1909
18431TIP3    H276709   0.089   4.736  14.576 -0.2791 -0.2196 -0.3588
18432TIP3   OH276710   6.142   5.635  15.244 -0.1923  0.8704 -0.1341
18432TIP3    H176711   6.230   5.660  15.216 -0.3404  0.4474 -1.0105
18432TIP3    H276712   6.153   5.550  15.286 -0.4461 -0.2046 -2.1298
18433TIP3   OH276713   4.893   2.890   3.249 -0.3046  0.0620  0.4090
18433TIP3    H176714   4.862   2.812   3.295  1.6607 -0.3878  1.0809
18433TIP3    H276715   4.970   2.860   3.201 -1.9799  0.6396 -2.8890
18434TIP3   OH276716   2.437   0.937   0.476 -0.2239  0.0773 -0.5184
18434TIP3    H176717   2.506   0.984   0.430  0.3766  0.6614  0.9348
18434TIP3    H276718   2.482   0.866   0.522 -0.7375 -0.1405 -0.3416
18435TIP3   OH276719   6.068   5.607  16.301 -0.4454 -0.0313  0.5271
18435TIP3    H176720   6.075   5.683  16.358  2.1450  0.9473 -0.8819
18435TIP3    H276721   5.990   5.623  16.248 -1.4894  0.2210  2.0785
18436TIP3   OH276722   6.725   2.691   3.526 -0.4127 -0.6558  0.3651
18436TIP3    H176723   6.734   2.786   3.531 -3.1091 -0.3379  0.9625
18436TIP3    H276724   6.748   2.670   3.436 -0.4566  0.6664  0.0163
18437TIP3   OH276725   5.681   2.152  13.318  0.5249  0.0285 -0.2125
18437TIP3    H176726   5.705   2.059  13.315  0.5546  0.0243  0.1885
18437TIP3    H276727   5.765   2.198  13.316  0.5361  0.0319  0.2873
18438TIP3   OH276728   2.901   5.000  16.479  0.2574  0.2660  0.0683
18438TIP3    H176729   2.924   5.064  16.412  1.2629 -0.2268 -0.0877
18438TIP3    H276730   2.986   4.972  16.514 -0.2018 -0.4468  0.6250
18439TIP3   OH276731   4.488   1.760   4.552 -0.0597 -0.3613 -0.2479
18439TIP3    H176732   4.584   1.751   4.556  0.2730  1.4545 -2.3130
18439TIP3    H276733   4.473   1.824   4.484 -2.8425 -1.3936 -0.7307
18440TIP3   OH276734   0.092   3.275   3.994  0.1080 -0.8477  0.4683
18440TIP3    H176735   0.171   3.313   3.956 -0.2944  0.8084  1.2131
18440TIP3    H276736   0.020   3.325   3.957 -0.3312  0.5869  2.9854
18441TIP3   OH276737   1.971   3.524  14.653 -0.1301 -0.0507 -0.2505
18441TIP3    H176738   1.902   3.463  14.678 -0.7527  0.1286 -1.4460
18441TIP3    H276739   2.049   3.493  14.700 -1.0010 -0.2604  1.1080
18442TIP3   OH276740   0.802   1.213  12.379 -0.6068  0.1935 -0.6513
18442TIP3    H176741   0.869   1.157  12.339 -0.5681 -0.9986  0.9789
18442TIP3    H276742   0.744   1.152  12.425 -0.3966  1.4768  1.4527
18443TIP3   OH276743   1.451   5.095  16.452 -0.1373 -0.0148  0.9032
18443TIP3    H176744   1.479   5.028  16.389  0.4223  0.4811  0.6179
18443TIP3    H276745   1.445   5.175  16.401 -1.2218  0.0817  1.1536
18444TIP3   OH276746   3.191   4.034   3.374 -0.2426  0.0593  0.1112
18444TIP3    H176747   3.174   3.996   3.460  1.4854  3.5724  2.2504
18444TIP3    H276748   3.284   4.019   3.358 -0.2494  0.5894 -0.4847
18445TIP3   OH276749   2.860   0.474   5.640 -0.0051 -0.2058 -1.0563
18445TIP3    H176750   2.877   0.389   5.681 -0.0268  0.7692  1.0682
18445TIP3    H276751   2.873   0.538   5.710 -3.7609  1.2933 -1.5223
18446TIP3   OH276752   1.069   6.622  14.595  0.1242 -0.4679  0.0245
18446TIP3    H176753   1.095   6.686  14.662 -2.6472  1.4167 -0.5504
18446TIP3    H276754   1.026   6.674  14.527 -1.6040 -2.8571 -0.8573
18447TIP3   OH276755   1.273   3.143   4.962  0.4467  0.3252  0.0978
18447TIP3    H176756   1.181   3.128   4.983  0.3716 -0.6701 -0.8778
18447TIP3    H276757   1.275   3.232   4.925  0.1030  0.8653  1.3485
18448TIP3   OH276758   1.756   5.394  13.390  0.5571  0.0306 -0.0636
18448TIP3    H176759   1.691   5.326  13.410 -0.0089 -0.0920 -2.0074
18448TIP3    H276760   1.826   5.347  13.345  1.4942  0.3433  1.0239
18449TIP3   OH276761   2.053   4.519   0.160 -0.1002  0.3107  0.1010
18449TIP3    H176762   2.025   4.588   0.219 -0.4014  0.9369 -0.7574
18449TIP3    H276763   2.097   4.456   0.217  0.3138  1.2702  0.8838
18450TIP3   OH276764   3.642   2.073   2.601 -0.7548  0.3195  0.2632
18450TIP3    H176765   3.593   2.094   2.681 -0.4505  3.5331 -0.2790
18450TIP3    H276766   3.704   2.005   2.628 -2.8122 -1.0501  1.9090
18451TIP3   OH276767   5.199   4.433   3.264 -0.6364 -0.5253  0.2025
18451TIP3    H176768   5.174   4.418   3.355 -0.5457 -0.2217  0.2761
18451TIP3    H276769   5.121   4.472   3.224 -0.1675  0.7836  0.5244
18452TIP3   OH276770   0.178   2.465  15.965 -0.2987 -0.5408  0.2557
18452TIP3    H176771   0.107   2.415  16.006 -0.3076 -1.1914 -0.5233
18452TIP3    H276772   0.243   2.400  15.940  0.8493  0.0984  1.4271
18453TIP3   OH276773   4.362   0.469   5.498  0.2511  0.1360  0.0018
18453TIP3    H176774   4.348   0.376   5.477 -0.2822  0.0207  0.8399
18453TIP3    H276775   4.448   0.489   5.461  0.5072 -0.7765  0.0789
18454TIP3   OH276776   1.459   3.888   3.454  0.0701  0.2651  0.1342
18454TIP3    H176777   1.398   3.939   3.507 -1.7655 -0.2164 -1.3841
18454TIP3    H276778   1.436   3.910   3.363  0.7018 -1.5575 -0.5166
18455TIP3   OH276779   1.882   1.514  12.743 -0.3231 -0.1020 -0.6465
18455TIP3    H176780   1.894   1.420  12.726 -1.5345 -0.3320 -0.2826
18455TIP3    H276781   1.793   1.522  12.777 -0.2644  1.1988 -0.7380
18456TIP3   OH276782   0.245   6.009   1.868  0.4464  0.6720 -0.4844
18456TIP3    H176783   0.285   6.053   1.944  0.4895 -2.2769  1.3482
18456TIP3    H276784   0.319   5.989   1.811  1.2952 -1.7400  1.2939
18457TIP3   OH276785   0.868   3.276  15.888  0.1796 -0.0918 -0.2062
18457TIP3    H176786   0.866   3.314  15.976  1.3384 -1.9702  0.7036
18457TIP3    H276787   0.958   3.247  15.876 -0.3947 -1.6212 -1.2076
18458TIP3   OH276788   5.601   3.444  12.898 -0.9280  0.1620  0.5465
18458TIP3    H176789   5.676   3.457  12.956 -1.3149 -0.2173  1.1481
18458TIP3    H276790   5.588   3.529  12.856  2.1408 -0.6756 -2.4680
18459TIP3   OH276791   5.270   0.537   2.099  0.0723  0.0376  0.1157
18459TIP3    H176792   5.334   0.535   2.028 -0.3266  0.9170 -0.2863
18459TIP3    H276793   5.321   0.519   2.178  0.5817 -0.5808 -0.3533
18460TIP3   OH276794   0.090   6.731  15.685  0.1308 -0.1126 -0.4893
18460TIP3    H176795   0.096   6.823  15.711  1.1942 -0.5715  1.0156
18460TIP3    H276796   0.171   6.714  15.637 -0.2164 -0.1804 -1.0540
18461TIP3   OH276797   6.529   5.966   2.405 -0.3331  0.1075 -0.0160
18461TIP3    H176798   6.514   6.045   2.353 -2.2046 -0.6146 -0.6553
18461TIP3    H276799   6.624   5.960   2.413 -0.0780  1.2525 -1.7738
18462TIP3   OH276800   4.642   3.203  13.243 -0.1215  0.3999  0.2666
18462TIP3    H176801   4.691   3.205  13.325 -1.2028 -1.2773  1.0205
18462TIP3    H276802   4.678   3.128  13.196 -1.5009 -0.4958  0.5779
18463TIP3   OH276803   6.357   1.872  13.110  0.2640  0.1195  0.1720
18463TIP3    H176804   6.413   1.939  13.071 -1.2151  0.7226 -1.0387
18463TIP3    H276805   6.297   1.921  13.166 -0.9475 -0.1418 -0.8579
18464TIP3   OH276806   0.616   1.268   2.064  0.4736  0.4925 -0.0797
18464TIP3    H176807   0.549   1.200   2.061  0.0749  0.8698  0.1634
18464TIP3    H276808   0.658   1.256   2.149 -0.1534  1.0711  0.3183
18465TIP3   OH276809   3.028   4.320   3.800 -0.2585 -0.0254  0.2953
18465TIP3    H176810   3.068   4.318   3.713 -1.2124  0.1355 -0.1612
18465TIP3    H276811   2.941   4.281   3.787 -0.0607 -0.8582  1.3729
18466TIP3   OH276812   1.422   0.454   5.870  0.4892  0.4812  0.2136
18466TIP3    H176813   1.412   0.532   5.816  1.4126  0.4729 -0.0036
18466TIP3    H276814   1.430   0.486   5.959  2.1922  0.7704 -0.0025
18467TIP3   OH276815   3.675   4.252   4.557  0.7841  0.2847  0.0422
18467TIP3    H176816   3.745   4.197   4.521  1.1402  2.1323 -2.3813
18467TIP3    H276817   3.613   4.262   4.484 -0.1767  1.5726  0.9818
18468TIP3   OH276818   4.525   5.404  16.995 -0.4402  0.3341  0.5306
18468TIP3    H176819   4.612   5.365  17.007 -0.1206  1.4807  2.2569
18468TIP3    H276820   4.489   5.359  16.918  1.4423 -0.5646  0.1172
18469TIP3   OH276821   2.759   4.477  15.740  0.1646 -0.5316 -0.2972
18469TIP3    H176822   2.667   4.502  15.751  0.4120  0.4679 -0.4587
18469TIP3    H276823   2.760   4.426  15.658  0.0019  0.8499 -1.1917
18470TIP3   OH276824   6.077   3.648  13.534  0.0420  0.3784  0.1071
18470TIP3    H176825   6.062   3.558  13.563  0.6877  0.5801  1.1206
18470TIP3    H276826   6.028   3.655  13.452  0.1034 -0.9358 -0.0701
18471TIP3   OH276827   2.845   0.125   5.352 -0.4971  0.6021 -0.1931
18471TIP3    H176828   2.897   0.076   5.416 -0.4796  0.9158  0.0336
18471TIP3    H276829   2.902   0.197   5.325  0.4179 -0.8483 -2.3339
18472TIP3   OH276830   1.769   2.664   2.320 -0.6343  0.4404  0.2647
18472TIP3    H176831   1.791   2.581   2.277 -3.3554  0.1410 -0.7837
18472TIP3    H276832   1.845   2.720   2.306 -0.0241 -0.8274 -1.8588
18473TIP3   OH276833   6.195   2.603  13.911 -0.0421  0.3829  0.6181
18473TIP3    H176834   6.274   2.557  13.940  0.0729 -0.2396 -0.6258
18473TIP3    H276835   6.156   2.637  13.992 -0.0725 -1.7781  1.5742
18474TIP3   OH276836   5.932   5.009   4.494 -0.2044 -0.3539  0.0941
18474TIP3    H176837   6.014   5.056   4.508 -1.0470  1.1139  0.3291
18474TIP3    H276838   5.918   5.012   4.399  0.2247 -1.0078  0.0032
18475TIP3   OH276839   1.670   2.772   6.160  0.3786 -0.2884 -0.3342
18475TIP3    H176840   1.624   2.728   6.232  3.5566 -2.1234  0.7687
18475TIP3    H276841   1.656   2.715   6.084 -2.0658  1.0919 -1.0476
18476TIP3   OH276842   4.533   3.083  12.213 -0.3668 -0.5694  0.2966
18476TIP3    H176843   4.583   3.142  12.158  0.1093 -0.1174  1.1937
18476TIP3    H276844   4.442   3.106  12.197 -0.1861  0.4441  0.6586
18477TIP3   OH276845   2.141   2.685   2.806  0.3243 -0.3676 -0.1054
18477TIP3    H176846   2.047   2.677   2.821  0.3174  0.7423  0.5194
18477TIP3    H276847   2.159   2.625   2.733 -0.8364 -0.6824 -0.1461
18478TIP3   OH276848   5.641   3.045  11.702  0.8738 -0.1557  0.2489
18478TIP3    H176849   5.622   3.099  11.778  1.7266 -0.3134  0.5845
18478TIP3    H276850   5.566   3.058  11.644  1.1655  1.5889  0.2018
18479TIP3   OH276851   5.325   5.642   4.940  0.9997 -0.8486 -0.0082
18479TIP3    H176852   5.323   5.547   4.931 -1.0482 -0.8045 -0.6123
18479TIP3    H276853   5.405   5.669   4.894  0.6755 -2.1520 -1.4151
18480TIP3   OH276854   6.699   2.139   2.504 -0.3406 -0.3115  0.3610
18480TIP3    H176855   6.726   2.222   2.465 -1.8455 -0.4666 -1.1664
18480TIP3    H276856   6.721   2.074   2.437 -2.2558 -0.6974  0.0540
18481TIP3   OH276857   4.359   4.028   2.093  0.7983 -0.0199  0.1310
18481TIP3    H176858   4.310   3.995   2.018  1.3232 -1.3800  0.3490
18481TIP3    H276859   4.380   4.119   2.070  0.7632 -0.3390 -1.2793
18482TIP3   OH276860   5.790   5.270   4.677 -0.2876 -0.1669  0.6863
18482TIP3    H176861   5.790   5.331   4.751  0.4240 -0.7620  1.1958
18482TIP3    H276862   5.823   5.188   4.714  2.9909  0.2930 -0.9246
18483TIP3   OH276863   4.977   3.965   2.818  0.1938  0.1500 -0.5585
18483TIP3    H176864   5.000   3.906   2.745 -1.0826 -1.1260  0.0193
18483TIP3    H276865   4.909   3.918   2.866  0.3635  1.3661  0.9503
18484TIP3   OH276866   3.266   3.641   5.498 -0.1995 -0.0021 -0.0852
18484TIP3    H176867   3.303   3.671   5.415  0.1365 -2.5052 -0.9174
18484TIP3    H276868   3.322   3.681   5.565 -0.4685  2.0571 -0.9903
18485TIP3   OH276869   6.115   4.559  12.192  0.2472  0.1191 -0.1774
18485TIP3    H176870   6.145   4.648  12.177  2.0152 -0.5339 -0.7019
18485TIP3    H276871   6.192   4.512  12.223 -0.6089 -1.2717 -0.0659
18486TIP3   OH276872   3.938   3.063   0.067  0.2565  0.7113  0.4983
18486TIP3    H176873   3.876   3.014   0.121  0.5449 -0.4513 -0.2065
18486TIP3    H276874   3.918   3.155   0.086  0.2251  0.3564  2.4378
18487TIP3   OH276875   3.583   4.888  11.650  0.3998 -0.0978 -0.0039
18487TIP3    H176876   3.495   4.906  11.618  0.4123  0.9298  0.4970
18487TIP3    H276877   3.596   4.950  11.722  0.4366 -2.2048  1.9134
18488TIP3   OH276878   1.169   0.602  16.219  0.2042 -0.0225 -0.8533
18488TIP3    H176879   1.085   0.647  16.210  0.9404  1.7626  0.4919
18488TIP3    H276880   1.224   0.638  16.149  1.0235  1.8648  0.6667
18489TIP3   OH276881   2.281   3.799   2.923 -0.3541 -0.4859  0.8507
18489TIP3    H176882   2.236   3.716   2.940  1.5470 -1.6908  0.3625
18489TIP3    H276883   2.374   3.778   2.933  0.2068  1.5219  0.3483
18490TIP3   OH276884   1.504   3.782   3.828  0.5288 -0.1837  0.3019
18490TIP3    H176885   1.498   3.842   3.902 -0.0530  0.4439 -0.2313
18490TIP3    H276886   1.570   3.822   3.770 -1.0994  0.9131 -0.8788
18491TIP3   OH276887   6.663   3.804  12.211 -0.4207  0.0650 -0.2485
18491TIP3    H176888   6.675   3.884  12.261  2.7581 -0.3805 -0.1221
18491TIP3    H276889   6.746   3.791  12.165 -1.5030 -2.1521 -1.7810
18492TIP3   OH276890   1.172   2.895  17.027 -0.3577  0.1998 -0.3188
18492TIP3    H176891   1.255   2.876  17.070 -1.0748  0.2353  1.1115
18492TIP3    H276892   1.125   2.812  17.026 -0.7296  0.4072 -0.1919
18493TIP3   OH276893   6.662   2.485  13.690  0.1709 -0.0353 -0.1225
18493TIP3    H176894   6.722   2.450  13.624 -1.7467  0.0522 -1.9833
18493TIP3    H276895   6.600   2.414  13.706  0.9983 -0.3369  2.2267
18494TIP3   OH276896   1.047   2.718  11.505  0.6217 -0.0784  0.2975
18494TIP3    H176897   0.994   2.792  11.533 -1.2060 -1.0360 -0.4819
18494TIP3    H276898   0.994   2.641  11.524  1.5696 -1.0630 -0.8655
18495TIP3   OH276899   6.153   2.766  14.122 -0.0740 -0.3878 -0.1740
18495TIP3    H176900   6.223   2.811  14.170 -0.9515  1.6044 -0.6643
18495TIP3    H276901   6.081   2.760  14.185 -0.6893  0.8565 -0.7163
18496TIP3   OH276902   1.496   6.391  14.643  0.9455  0.6630  0.4123
18496TIP3    H176903   1.522   6.483  14.648 -0.1718  1.0663 -0.6165
18496TIP3    H276904   1.406   6.389  14.673  0.6224  0.0849 -0.5303
18497TIP3   OH276905   1.754   4.238  17.116  0.2052 -0.2831 -0.5229
18497TIP3    H176906   1.797   4.323  17.128 -0.1415 -0.1455 -0.2495
18497TIP3    H276907   1.757   4.197  17.203 -1.1770  0.1788 -0.2314
18498TIP3   OH276908   0.157   1.075   3.737 -0.2710 -0.1874  0.1589
18498TIP3    H176909   0.204   1.114   3.664 -0.3271  0.4448  0.4578
18498TIP3    H276910   0.180   1.129   3.813 -1.4960  0.1481  0.3073
18499TIP3   OH276911   5.486   4.326  15.971  0.0119  0.4363  0.2744
18499TIP3    H176912   5.574   4.364  15.976 -1.2401  3.6389  0.0687
18499TIP3    H276913   5.440   4.380  15.907 -2.1909 -1.0067  0.5305
18500TIP3   OH276914   1.737   2.588   4.342 -0.5690 -0.4260  0.4345
18500TIP3    H176915   1.777   2.524   4.284 -0.2274 -0.1323  0.3399
18500TIP3    H276916   1.683   2.536   4.402  0.1229 -0.8503  0.7039
18501TIP3   OH276917   6.078   5.567   5.615  0.2556  0.1632  0.0542
18501TIP3    H176918   6.060   5.660   5.628  0.7783  0.6859 -2.4289
18501TIP3    H276919   6.158   5.551   5.666  1.0297  1.4785 -0.6796
18502TIP3   OH276920   3.547   2.465   1.694 -0.4811  0.5169 -0.0644
18502TIP3    H176921   3.638   2.463   1.721  0.1403 -1.3657 -2.0529
18502TIP3    H276922   3.509   2.538   1.744  2.1546  1.5786  0.5537
18503TIP3   OH276923   0.025   3.117   2.592 -0.0227  0.1613 -0.4357
18503TIP3    H176924   0.115   3.142   2.575  0.7684 -1.6448  0.8030
18503TIP3    H276925   0.021   3.102   2.687 -1.2708 -1.0170 -0.6292
18504TIP3   OH276926   3.273   5.119   1.356  0.5003 -0.3521  0.5708
18504TIP3    H176927   3.279   5.157   1.269  0.2836 -0.4372  0.5193
18504TIP3    H276928   3.314   5.184   1.413 -2.4499  1.3761  0.9169
18505TIP3   OH276929   1.518   5.588  12.115  0.1598 -0.3843  0.0091
18505TIP3    H176930   1.598   5.632  12.144  0.0824 -0.4241  0.2912
18505TIP3    H276931   1.495   5.632  12.033 -0.4648  0.7954  0.7784
18506TIP3   OH276932   2.130   0.562  14.054 -0.0992 -0.3859 -0.1542
18506TIP3    H176933   2.151   0.629  14.119 -0.0785 -1.1762  0.6887
18506TIP3    H276934   2.069   0.604  13.995  1.0320  0.8277 -0.5183
18507TIP3   OH276935   1.544   0.653   4.548  0.2333 -0.0765 -0.3188
18507TIP3    H176936   1.572   0.721   4.609 -0.5835  1.5873 -1.7132
18507TIP3    H276937   1.484   0.698   4.488 -0.1571 -1.9864 -1.4321
18508TIP3   OH276938   0.058   3.523  13.970  0.2599  0.0645  0.1079
18508TIP3    H176939  -0.010   3.590  13.974 -1.1530 -1.0444 -2.6236
18508TIP3    H276940   0.051   3.476  14.054 -1.7168  0.5855  0.2753
18509TIP3   OH276941   1.129   2.049  13.290  0.2191 -0.1029  0.1476
18509TIP3    H176942   1.157   1.984  13.225 -1.9750 -0.7555 -0.2024
18509TIP3    H276943   1.142   2.133  13.248  0.9447 -0.4077 -0.2564
18510TIP3   OH276944   6.053   6.692  13.494  0.2741  0.3536 -0.0513
18510TIP3    H176945   5.977   6.750  13.495  0.3284  0.4523  1.4838
18510TIP3    H276946   6.097   6.710  13.577  1.5877 -0.2162 -0.6013
18511TIP3   OH276947   1.037   1.842  13.779 -0.5600  0.7107 -0.2112
18511TIP3    H176948   1.013   1.819  13.869 -1.2003  0.6065 -0.4096
18511TIP3    H276949   0.959   1.825  13.728  0.3382 -1.0341 -1.1003
18512TIP3   OH276950   4.714   3.598  17.123  0.0107 -0.0910  0.2294
18512TIP3    H176951   4.790   3.594  17.066 -1.4943 -2.0570 -1.8331
18512TIP3    H276952   4.662   3.522  17.098 -3.5277  2.1186  0.1971
18513TIP3   OH276953   4.604   6.579  11.622  0.1366  0.0393  0.1691
18513TIP3    H176954   4.662   6.602  11.548  0.7710  1.0861  0.9625
18513TIP3    H276955   4.566   6.495  11.597  0.4573  0.2957 -1.2861
18514TIP3   OH276956   5.964   6.265  12.762 -0.3363  0.4507  0.3742
18514TIP3    H176957   6.006   6.336  12.713  0.6400 -1.2376 -1.4163
18514TIP3    H276958   5.879   6.255  12.720  0.5872 -1.1444 -1.2840
18515TIP3   OH276959   6.442   4.907  11.000 -0.8501  0.2072 -0.1066
18515TIP3    H176960   6.419   4.991  11.039 -1.1026  0.1615 -0.1529
18515TIP3    H276961   6.396   4.906  10.915 -2.7039 -0.8917  0.8289
18516TIP3   OH276962   3.083   5.056  15.972 -0.2112  0.8573  0.2955
18516TIP3    H176963   3.098   4.963  15.954 -1.7138  0.7242 -0.4328
18516TIP3    H276964   3.114   5.102  15.894 -2.9572  0.6092 -1.0601
18517TIP3   OH276965   1.744   1.805   0.287  0.6750  0.1083 -0.3931
18517TIP3    H176966   1.725   1.711   0.286 -1.5604  0.4741 -2.8218
18517TIP3    H276967   1.794   1.821   0.207  1.1136  1.0072  0.0372
18518TIP3   OH276968   1.592   0.429  16.519  0.2149  0.1908 -0.0948
18518TIP3    H176969   1.504   0.456  16.494  0.5936  1.4028 -0.1660
18518TIP3    H276970   1.593   0.435  16.615 -0.1521 -1.0700  0.0163
18519TIP3   OH276971   1.819   6.063   2.548  0.0248  0.2218  0.5025
18519TIP3    H176972   1.887   6.033   2.488  1.0898 -0.9388  2.2115
18519TIP3    H276973   1.769   6.127   2.497  2.0004  0.6629 -1.0121
18520TIP3   OH276974   2.877   4.757   4.830 -0.2528  0.0184  0.2199
18520TIP3    H176975   2.893   4.848   4.854 -1.9064  0.6775 -0.9621
18520TIP3    H276976   2.943   4.738   4.763  0.2482  0.2641  0.6382
18521TIP3   OH276977   3.508   6.723   4.320 -0.0833  0.6177 -0.0083
18521TIP3    H176978   3.477   6.633   4.305  0.5215  0.5298 -0.8048
18521TIP3    H276979   3.548   6.748   4.237  0.5213  1.3126  0.4861
18522TIP3   OH276980   1.669   4.655  14.108  0.1688  0.4989 -0.1752
18522TIP3    H176981   1.627   4.569  14.097 -0.9456  1.0245 -0.0951
18522TIP3    H276982   1.722   4.645  14.188  1.4041 -0.6249 -1.0877
18523TIP3   OH276983   0.720   4.582   5.303  0.1653 -0.9495 -0.2670
18523TIP3    H176984   0.697   4.491   5.324 -0.0274 -0.6694  0.7984
18523TIP3    H276985   0.815   4.583   5.299  0.1684 -1.1909 -0.2574
18524TIP3   OH276986   6.591   5.245  13.450 -0.6540 -0.1440 -0.1339
18524TIP3    H176987   6.503   5.229  13.416 -0.1030 -0.9385 -1.2605
18524TIP3    H276988   6.615   5.332  13.417 -0.5147 -0.4865 -0.9543
18525TIP3   OH276989   2.366   5.650  13.568  0.7764 -0.1553  0.7653
18525TIP3    H176990   2.281   5.625  13.605  0.7082  0.0890  0.7734
18525TIP3    H276991   2.403   5.710  13.632  0.6436  0.2942  0.4225
18526TIP3   OH276992   3.938   6.415   4.359  0.7381 -0.3170 -0.2192
18526TIP3    H176993   3.844   6.400   4.353  0.9314 -1.2504 -1.2544
18526TIP3    H276994   3.968   6.417   4.268  1.6797  0.2963  0.0881
18527TIP3   OH276995   0.524   3.691  11.607 -0.0723  0.1804 -0.0949
18527TIP3    H176996   0.493   3.655  11.524  0.8729  1.1563 -0.9103
18527TIP3    H276997   0.606   3.645  11.624 -1.2930 -1.5347  1.4268
18528TIP3   OH276998   1.703   0.435  10.837  0.5069 -1.4609 -0.1885
18528TIP3    H176999   1.759   0.492  10.889  1.1203 -0.4684 -1.8490
18528TIP3    H277000   1.765   0.383  10.785 -0.0106  0.4369 -2.8866
18529TIP3   OH277001   3.896   1.023  11.450  0.2619 -0.0524  0.4953
18529TIP3    H177002   3.902   1.043  11.544 -1.3602  0.0697  0.5974
18529TIP3    H277003   3.908   1.107  11.407 -1.1812  0.2859  0.7061
18530TIP3   OH277004   2.707   6.449  17.184 -0.5075 -0.0508  0.1433
18530TIP3    H177005   2.613   6.447  17.201 -0.9986  0.6887 -2.2169
18530TIP3    H277006   2.734   6.539  17.206 -0.6433  0.1605 -0.5446
18531TIP3   OH277007   3.566   3.314   0.255 -0.0146  0.0679 -0.0076
18531TIP3    H177008   3.629   3.361   0.309 -1.1393  1.6230  0.0159
18531TIP3    H277009   3.555   3.367   0.177 -1.0516 -0.3225 -0.1555
18532TIP3   OH277010   4.521   5.568   3.268 -0.0773 -0.6554 -0.0362
18532TIP3    H177011   4.558   5.484   3.243  0.1652 -0.3594 -0.6870
18532TIP3    H277012   4.595   5.629   3.263 -0.4139 -0.2650 -0.3046
18533TIP3   OH277013   4.259   4.182   3.659  0.4838 -0.6556 -0.1809
18533TIP3    H177014   4.273   4.234   3.580 -3.8959 -0.5172 -1.1342
18533TIP3    H277015   4.264   4.091   3.629 -1.9072 -0.6077 -0.9403
18534TIP3   OH277016   3.485   0.589  13.652  0.4344 -0.0960  0.0461
18534TIP3    H177017   3.437   0.660  13.695 -1.1138 -0.5235 -0.9069
18534TIP3    H277018   3.470   0.603  13.559  0.1363 -1.6321 -0.1584
18535TIP3   OH277019   2.379   5.016  16.777 -0.1028 -0.0156  0.8189
18535TIP3    H177020   2.419   4.969  16.850  0.6623 -0.7918 -0.0732
18535TIP3    H277021   2.400   5.108  16.793  2.9946 -0.4516 -0.1324
18536TIP3   OH277022   0.131   5.372   1.171 -0.3474 -0.0558 -0.0189
18536TIP3    H177023   0.163   5.404   1.255  1.1611  0.7061 -0.8535
18536TIP3    H277024   0.142   5.277   1.175 -0.8819 -0.0871  0.8685
18537TIP3   OH277025   5.560   1.221   2.061 -0.2158 -0.1645 -0.2896
18537TIP3    H177026   5.639   1.242   2.110 -0.2035  0.7939 -0.6918
18537TIP3    H277027   5.542   1.129   2.081  0.7731 -0.2755  0.1110
18538TIP3   OH277028   2.381   4.505   3.675  0.0559 -0.5224  0.0236
18538TIP3    H177029   2.351   4.596   3.670  0.0609 -0.5595 -0.7453
18538TIP3    H277030   2.447   4.506   3.745 -0.7926 -0.1854  0.8393
18539TIP3   OH277031   3.695   1.074  14.867  0.5869 -0.2157 -0.5265
18539TIP3    H177032   3.607   1.040  14.852 -0.9531  2.0390  2.2822
18539TIP3    H277033   3.731   1.019  14.937  1.0173 -0.4705 -0.9398
18540TIP3   OH277034   2.633   3.817   2.324  0.3653 -0.1470 -0.5250
18540TIP3    H177035   2.612   3.729   2.354 -2.2107  0.8592  0.9627
18540TIP3    H277036   2.726   3.814   2.305  0.3174 -3.2379 -0.7865
18541TIP3   OH277037   3.422   4.720   4.103 -0.3200 -0.0922 -0.1067
18541TIP3    H177038   3.329   4.717   4.125 -0.5170  0.2356 -0.8659
18541TIP3    H277039   3.426   4.777   4.026  0.4333 -0.6027 -0.4497
18542TIP3   OH277040   6.673   3.657  16.865 -0.0014 -0.4428 -0.2408
18542TIP3    H177041   6.692   3.563  16.870 -0.7428 -0.6327 -0.8060
18542TIP3    H277042   6.691   3.681  16.775 -0.9611 -0.3153 -0.4160
18543TIP3   OH277043   2.070   4.546   1.312 -0.5846  0.0348 -0.5924
18543TIP3    H177044   1.982   4.513   1.292 -0.5776  0.7676 -1.9775
18543TIP3    H277045   2.128   4.495   1.257  0.0542 -1.3129  1.2268
18544TIP3   OH277046   2.353   4.391  15.656 -0.3085  0.4961 -0.6716
18544TIP3    H177047   2.404   4.472  15.659  0.8989 -0.2068 -1.3080
18544TIP3    H277048   2.394   4.340  15.586 -1.6635 -0.2686 -0.9358
18545TIP3   OH277049   5.648   1.227   6.351 -0.1686 -0.3518  0.2197
18545TIP3    H177050   5.703   1.150   6.363  1.5877  0.6308 -1.0109
18545TIP3    H277051   5.593   1.205   6.276  0.9387 -0.1258 -0.6841
18546TIP3   OH277052   4.489   6.457  12.198  0.5154 -0.0684  0.2353
18546TIP3    H177053   4.572   6.501  12.214  0.4424  0.2058 -0.1262
18546TIP3    H277054   4.498   6.372  12.242  1.7075 -0.8303 -1.3474
18547TIP3   OH277055   1.990   4.747   2.092 -0.3706  0.8157  0.0419
18547TIP3    H177056   1.937   4.682   2.046 -1.9431  2.4221 -0.5327
18547TIP3    H277057   2.076   4.742   2.050 -0.2868 -1.1861  0.3466
18548TIP3   OH277058   0.353   5.477  15.097 -1.1715 -0.4622  0.4088
18548TIP3    H177059   0.378   5.385  15.087  0.0085 -0.2945  1.5245
18548TIP3    H277060   0.418   5.525  15.046 -1.7205 -0.2398 -0.0820
18549TIP3   OH277061   0.454   3.813  14.442  0.2985  0.2347 -0.1128
18549TIP3    H177062   0.388   3.823  14.511  2.2620  1.1025  1.7825
18549TIP3    H277063   0.484   3.902  14.425 -0.6361  0.1240 -2.6991
18550TIP3   OH277064   5.697   6.085  10.998  0.0154 -0.3337  0.0874
18550TIP3    H177065   5.666   6.154  10.939  1.8950 -0.4819 -1.1408
18550TIP3    H277066   5.765   6.127  11.051 -1.8755 -0.1032  2.4946
18551TIP3   OH277067   0.512   1.473   2.886 -1.3205  0.6338 -0.2442
18551TIP3    H177068   0.567   1.551   2.887 -1.2169  0.5644 -0.4149
18551TIP3    H277069   0.516   1.443   2.795  0.9576 -1.2110  0.3516
18552TIP3   OH277070   5.052   1.223  13.108 -0.4528  0.3654  0.9627
18552TIP3    H177071   4.982   1.158  13.111  0.0428 -0.1519  1.8439
18552TIP3    H277072   5.047   1.268  13.193  0.3923  0.1849  1.1220
18553TIP3   OH277073   4.292   0.146   0.179  0.1830  0.3907 -0.2267
18553TIP3    H177074   4.386   0.131   0.169 -0.0105 -0.2664 -1.1966
18553TIP3    H277075   4.252   0.097   0.107 -0.7940  2.0292 -0.8529
18554TIP3   OH277076   6.193   6.021  11.279 -0.2563  0.1662  0.3125
18554TIP3    H177077   6.254   6.093  11.299 -0.0229  0.2862 -0.7743
18554TIP3    H277078   6.215   5.995  11.190 -0.9804 -0.6246  0.3542
18555TIP3   OH277079   3.577   4.941  14.543  0.6536  0.3766  0.1099
18555TIP3    H177080   3.516   4.898  14.485  0.7690  0.0713  0.2143
18555TIP3    H277081   3.539   5.028  14.558 -1.3409 -0.8060  2.5922
18556TIP3   OH277082   1.394   2.860   6.322  0.2550 -0.6330 -0.4418
18556TIP3    H177083   1.433   2.941   6.357 -2.2903 -0.1065  1.5806
18556TIP3    H277084   1.321   2.891   6.268  0.3435 -1.5756 -1.1084
18557TIP3   OH277085   1.913   0.765  15.052  0.1798  0.4903  0.3907
18557TIP3    H177086   1.979   0.782  15.119 -0.0047 -1.3710  1.0992
18557TIP3    H277087   1.963   0.743  14.973  0.4597 -0.8605  0.9122
18558TIP3   OH277088   6.145   0.572  15.704  0.1228 -0.1156  0.3432
18558TIP3    H177089   6.103   0.567  15.790 -0.7070 -0.5442 -0.0768
18558TIP3    H277090   6.090   0.632  15.654 -0.4532 -1.2694 -0.4527
18559TIP3   OH277091   5.362   1.158  15.765  0.5765 -0.6652 -0.8418
18559TIP3    H177092   5.332   1.082  15.716 -0.4506  0.1121 -1.4602
18559TIP3    H277093   5.341   1.233  15.709  2.5743  0.0312 -0.7460
18560TIP3   OH277094   3.245   5.722   0.016  0.5286  0.2829  0.7855
18560TIP3    H177095   3.208   5.807  -0.008  0.2510 -0.5312 -2.0583
18560TIP3    H277096   3.254   5.676  -0.068  0.9319 -2.3907  2.2086
18561TIP3   OH277097   0.913   2.217   3.803 -0.8144 -0.0646 -0.3809
18561TIP3    H177098   0.842   2.183   3.748 -0.3432 -2.4653  0.3792
18561TIP3    H277099   0.972   2.260   3.742 -1.7392 -0.1185 -1.3492
18562TIP3   OH277100   1.965   4.442  15.971  0.1622 -0.4372 -0.0579
18562TIP3    H177101   2.012   4.367  15.934  0.1451 -1.1179  1.2393
18562TIP3    H277102   1.876   4.434  15.938  0.5151 -0.1299 -1.1211
18563TIP3   OH277103   5.905   0.258   3.596  0.0012  0.0133 -0.1301
18563TIP3    H177104   5.903   0.346   3.558 -0.1767  0.0215 -0.1067
18563TIP3    H277105   5.906   0.199   3.521  0.3903  0.0385 -0.1451
18564TIP3   OH277106   1.291   0.172   0.552 -0.1545  0.1487  0.3875
18564TIP3    H177107   1.260   0.096   0.603 -0.8283  0.8752  1.1059
18564TIP3    H277108   1.246   0.164   0.468  2.1932 -1.9475 -0.7927
18565TIP3   OH277109   6.104   6.377   3.138 -0.1495  0.2678 -0.2802
18565TIP3    H177110   6.101   6.458   3.190 -1.2463  1.3696 -1.9434
18565TIP3    H277111   6.152   6.402   3.059 -2.1670 -0.0971 -1.6907
18566TIP3   OH277112   6.328   6.396   0.604  0.0860 -0.0607 -0.4428
18566TIP3    H177113   6.399   6.419   0.664  1.7689 -2.9554 -1.1663
18566TIP3    H277114   6.249   6.398   0.658  1.2481 -0.4430  1.3406
18567TIP3   OH277115   5.856   6.494  14.350  0.1906 -0.5667 -0.4462
18567TIP3    H177116   5.885   6.502  14.441 -1.2925 -0.6619  0.0626
18567TIP3    H277117   5.834   6.583  14.324  2.1701 -0.2832 -1.2903
18568TIP3   OH277118   6.396   2.715  15.495 -0.2059 -0.3708  0.1084
18568TIP3    H177119   6.356   2.653  15.556 -2.0926 -1.0820 -1.6933
18568TIP3    H277120   6.446   2.660  15.435  2.3962  0.3911  1.4247
18569TIP3   OH277121   0.064   3.920   0.875  0.8236 -0.4656  0.6026
18569TIP3    H177122   0.103   3.958   0.954 -1.1507 -2.0566  2.4498
18569TIP3    H277123  -0.022   3.962   0.868  0.4786 -1.2502  0.0348
18570TIP3   OH277124   1.247   4.425   4.659  0.2152 -0.2384  0.2492
18570TIP3    H177125   1.321   4.467   4.703  1.4194 -0.4211 -1.4985
18570TIP3    H277126   1.242   4.338   4.699 -0.4520  0.4738  1.8438
18571TIP3   OH277127   5.345   4.825  12.230 -0.7276  0.2432 -0.8700
18571TIP3    H177128   5.395   4.906  12.242 -0.0337 -0.4989  2.0530
18571TIP3    H277129   5.385   4.783  12.154  0.7987  1.2978 -0.6897
18572TIP3   OH277130   0.471   1.456  13.305 -0.0765 -0.2167 -0.3888
18572TIP3    H177131   0.499   1.481  13.393 -1.1544  0.6083 -0.2568
18572TIP3    H277132   0.530   1.504  13.247 -0.7866  1.0339 -0.1142
18573TIP3   OH277133   5.766   4.713   6.349 -0.1992 -0.4258 -0.5477
18573TIP3    H177134   5.727   4.800   6.363  0.7772  0.3288 -2.1957
18573TIP3    H277135   5.771   4.704   6.254  1.8717 -1.2896 -0.4044
18574TIP3   OH277136   1.518   1.482  13.392 -0.4706 -0.0384 -0.0540
18574TIP3    H177137   1.494   1.430  13.469 -1.1610 -0.2082 -0.3836
18574TIP3    H277138   1.525   1.572  13.426  0.4873 -0.2931  0.4612
18575TIP3   OH277139   4.737   6.671   1.188  0.4378 -0.2178  0.1970
18575TIP3    H177140   4.758   6.579   1.177  1.3800 -0.1037  0.9189
18575TIP3    H277141   4.821   6.714   1.203  0.3903  1.2018 -2.7622
18576TIP3   OH277142   3.569   1.013  17.232 -0.3103  0.3511 -0.3636
18576TIP3    H177143   3.598   1.091  17.279 -0.6174  0.4677 -0.3659
18576TIP3    H277144   3.508   1.046  17.166 -0.2714  0.1333 -0.5109
18577TIP3   OH277145   4.910   2.986  17.047  0.0514  0.4164  0.0757
18577TIP3    H177146   4.974   2.930  17.093 -0.8786 -0.3931  0.4213
18577TIP3    H277147   4.852   3.018  17.116  0.2124  1.3336 -0.2067
18578TIP3   OH277148   3.967   1.118   1.112  0.1129 -0.4220  0.5183
18578TIP3    H177149   3.954   1.025   1.094 -0.9455 -0.1210 -0.3987
18578TIP3    H277150   4.052   1.138   1.073 -0.4753 -0.6224 -0.9357
18579TIP3   OH277151   1.539   0.953   6.461  0.2161 -0.1837  0.0118
18579TIP3    H177152   1.527   0.950   6.366  0.0810  0.3795  0.0071
18579TIP3    H277153   1.474   1.016   6.491  1.2710  0.7907  0.3084
18580TIP3   OH277154   1.729   4.647   1.758 -0.4648 -0.1293 -0.9069
18580TIP3    H177155   1.686   4.719   1.805  1.1019 -0.4085  1.0718
18580TIP3    H277156   1.690   4.568   1.794 -0.6899 -0.3347 -1.5791
18581TIP3   OH277157   3.890   0.934  17.416 -0.3477  0.0911  0.3693
18581TIP3    H177158   3.818   0.894  17.367  0.8342 -0.3612 -1.0907
18581TIP3    H277159   3.903   1.019  17.374  0.4734 -0.1661  0.0728
18582TIP3   OH277160   2.487   6.628   2.089  0.1241 -0.4225 -0.1917
18582TIP3    H177161   2.535   6.652   2.010 -0.6709  1.2207 -0.2085
18582TIP3    H277162   2.396   6.620   2.060 -0.3056  1.0184  0.6859
18583TIP3   OH277163   2.944   1.292  11.896 -0.1045 -0.2752 -0.5720
18583TIP3    H177164   3.028   1.331  11.918 -1.5009  1.7468  1.6999
18583TIP3    H277165   2.942   1.291  11.800  2.4076 -0.2990 -0.6873
18584TIP3   OH277166   2.691   5.718   1.522  0.2925  0.0872 -0.2885
18584TIP3    H177167   2.687   5.741   1.429 -2.3936 -0.5524 -0.4262
18584TIP3    H277168   2.685   5.622   1.523 -2.1320  0.1616  0.4922
18585TIP3   OH277169   5.478   5.213  12.253  0.0468  1.1209  0.0464
18585TIP3    H177170   5.522   5.130  12.270 -2.4774 -0.0810  1.2058
18585TIP3    H277171   5.450   5.207  12.161 -1.8220 -0.2610  0.6393
18586TIP3   OH277172   4.520   4.522   2.687 -0.2809  0.1376 -0.5756
18586TIP3    H177173   4.601   4.529   2.738 -0.7317  0.7215  0.0806
18586TIP3    H277174   4.549   4.521   2.596  0.3749  3.6893 -0.5664
18587TIP3   OH277175   6.187   0.305  15.054  0.1333 -0.2786  0.6134
18587TIP3    H177176   6.220   0.394  15.066  0.0663 -0.1904  0.1619
18587TIP3    H277177   6.121   0.295  15.122  0.4468 -0.1361  0.9415
18588TIP3   OH277178   1.415   5.427   3.292  0.0524 -0.0080 -0.3024
18588TIP3    H177179   1.453   5.400   3.376  0.0879  0.9727  0.0034
18588TIP3    H277180   1.427   5.351   3.235 -0.6800 -0.9853  0.7949
18589TIP3   OH277181   5.652   3.212   3.451 -0.0244 -0.0667  0.1949
18589TIP3    H177182   5.676   3.252   3.368 -1.8254  2.5665  0.8139
18589TIP3    H277183   5.708   3.255   3.516 -0.1662 -0.4919  0.6066
18590TIP3   OH277184   2.298   6.091   6.773 -0.1996  0.2974  0.0380
18590TIP3    H177185   2.245   6.023   6.731  0.4075 -0.2522  0.1543
18590TIP3    H277186   2.270   6.091   6.865  1.0974 -1.1075  0.4727
18591TIP3   OH277187   5.547   1.574   0.301  0.0331 -0.3048  0.3186
18591TIP3    H177188   5.472   1.586   0.242  0.0801 -1.6287 -0.0439
18591TIP3    H277189   5.543   1.482   0.325  1.2089 -0.2459  0.7774
18592TIP3   OH277190   0.223   3.180   4.867 -0.4142  0.0439 -0.5844
18592TIP3    H177191   0.262   3.099   4.835 -0.5279  0.3366 -1.4678
18592TIP3    H277192   0.277   3.250   4.829  0.1098  0.3919  0.7146
18593TIP3   OH277193   5.741   3.510  12.005 -0.0627  0.3932  0.1414
18593TIP3    H177194   5.749   3.587  11.949 -0.6493  0.7352  0.5241
18593TIP3    H277195   5.656   3.519  12.047  0.7555  0.6220  1.8060
18594TIP3   OH277196   4.178   4.765  11.287  0.0329 -0.6650 -0.7019
18594TIP3    H177197   4.149   4.855  11.299  1.4655 -0.0267 -1.7595
18594TIP3    H277198   4.098   4.712  11.295 -0.9041  0.7396 -0.5672
18595TIP3   OH277199   5.420   4.776   4.331  0.3048  0.0804  0.1927
18595TIP3    H177200   5.507   4.768   4.370  0.4716 -0.2749 -0.2478
18595TIP3    H277201   5.364   4.720   4.385  0.2384  0.6885  0.7771
18596TIP3   OH277202   2.914   1.022   4.800 -0.0806  0.0625  0.1432
18596TIP3    H177203   2.878   1.002   4.714  0.8575  1.8022 -0.7016
18596TIP3    H277204   2.967   0.946   4.823 -0.4034 -0.4526 -0.7900
18597TIP3   OH277205   2.545   0.190   4.605  0.6373 -0.0395  0.0010
18597TIP3    H177206   2.574   0.259   4.546  1.7388  0.6035  1.2491
18597TIP3    H277207   2.462   0.221   4.640  1.4412  1.0030  1.0586
18598TIP3   OH277208   5.258   2.563  17.029 -0.3754  0.2612 -0.6297
18598TIP3    H177209   5.267   2.543  17.122  0.0631  1.5941 -0.3725
18598TIP3    H277210   5.283   2.655  17.021 -2.0212  0.6583 -1.8024
18599TIP3   OH277211   0.352   1.151   1.080 -0.0250 -0.1168  0.1617
18599TIP3    H177212   0.356   1.118   1.170 -0.4037  2.6190  1.2624
18599TIP3    H277213   0.267   1.123   1.048 -0.1284 -0.6360  0.8619
18600TIP3   OH277214   6.244   5.271   0.279  0.1105  0.0921 -0.0009
18600TIP3    H177215   6.170   5.217   0.307  0.2909 -0.1422  0.0270
18600TIP3    H277216   6.222   5.295   0.189 -0.2131  0.3997  0.1587
18601TIP3   OH277217   1.035   4.669   3.515  0.3881 -0.3198  0.0701
18601TIP3    H177218   0.963   4.630   3.563 -0.2171  2.0667  1.2950
18601TIP3    H277219   0.998   4.692   3.429  0.0595 -0.3165  0.2113
18602TIP3   OH277220   2.223   6.582   4.962 -0.0573  0.1277 -0.2215
18602TIP3    H177221   2.239   6.504   4.909  0.0519  0.1163 -0.1719
18602TIP3    H277222   2.305   6.595   5.010 -0.3369 -0.1677  0.3400
18603TIP3   OH277223   0.724   1.448   6.131  0.4106 -0.4840  0.0398
18603TIP3    H177224   0.649   1.466   6.188 -1.0579 -0.4960 -1.7518
18603TIP3    H277225   0.757   1.534   6.106 -0.4425 -0.3936 -0.8751
18604TIP3   OH277226   4.360   6.290   5.531 -0.3225 -0.0403 -0.3243
18604TIP3    H177227   4.315   6.363   5.574 -1.0712  0.7095 -2.2482
18604TIP3    H277228   4.293   6.223   5.521  0.5055 -1.3303  1.9653
18605TIP3   OH277229   3.017   3.098  15.559  0.1118  0.4104  0.1509
18605TIP3    H177230   2.985   3.188  15.558  1.9460  1.1403  1.1506
18605TIP3    H277231   2.941   3.044  15.537 -1.5444  2.0637  1.5634
18606TIP3   OH277232   3.902   0.745  14.453 -0.4950 -0.2532 -0.5831
18606TIP3    H177233   3.918   0.659  14.493  1.3552  1.2311  2.2413
18606TIP3    H277234   3.833   0.784  14.507  0.1251  0.7916 -0.5152
18607TIP3   OH277235   1.848   2.413   2.190 -0.1288  0.1071  0.0231
18607TIP3    H177236   1.842   2.416   2.094  1.6144 -0.7706 -0.1679
18607TIP3    H277237   1.769   2.369   2.219 -0.5038  0.0614 -1.0492
18608TIP3   OH277238   4.730   6.214  14.373  0.1670 -0.0743  0.4124
18608TIP3    H177239   4.746   6.218  14.279  0.9268 -1.1556  0.4808
18608TIP3    H277240   4.794   6.151  14.406 -0.7888 -0.5215  1.5030
18609TIP3   OH277241   1.793   0.163  12.211  0.9010 -0.6076  0.1470
18609TIP3    H177242   1.858   0.160  12.141  2.0740 -1.3767  1.2237
18609TIP3    H277243   1.734   0.090  12.192  1.6850 -1.3255  0.3585
18610TIP3   OH277244   2.806   4.672  11.366 -0.6117 -0.0599  0.3891
18610TIP3    H177245   2.731   4.658  11.309 -0.5842  0.1154  0.3080
18610TIP3    H277246   2.786   4.623  11.446  0.2719 -2.0539 -0.5403
18611TIP3   OH277247   3.778   1.855  17.325 -0.4228  0.1439 -0.5720
18611TIP3    H177248   3.736   1.926  17.277 -0.8703 -1.1527 -2.2308
18611TIP3    H277249   3.707   1.816  17.377 -1.0966 -1.2286 -2.3788
18612TIP3   OH277250   6.086   0.447  15.966  0.0127 -0.0017  0.1266
18612TIP3    H177251   6.143   0.384  15.922  0.4660 -0.4821  1.3703
18612TIP3    H277252   6.084   0.418  16.057  0.0027  1.6211  0.6659
18613TIP3   OH277253   1.028   4.691   4.680  0.1010  0.2594  0.2746
18613TIP3    H177254   0.932   4.690   4.686  0.0482  2.8488  0.7214
18613TIP3    H277255   1.046   4.734   4.597  0.8963  0.4214  0.5268
18614TIP3   OH277256   5.551   4.132  15.024 -0.8450  0.5607  0.1254
18614TIP3    H177257   5.481   4.106  15.084  0.5010 -0.7114  1.2174
18614TIP3    H277258   5.547   4.068  14.953 -2.2048  1.8534 -1.0445
18615TIP3   OH277259   1.335   3.302   3.327 -0.1980 -0.1872  0.0477
18615TIP3    H177260   1.413   3.281   3.275  0.2673  2.4707 -0.4844
18615TIP3    H277261   1.330   3.233   3.393  1.5476 -1.4132 -1.0288
18616TIP3   OH277262   3.323   2.040  14.635  0.5134  0.4687 -0.1966
18616TIP3    H177263   3.340   1.955  14.596  0.8393  0.0754  0.7778
18616TIP3    H277264   3.384   2.046  14.708 -0.0553  1.1913  0.2356
18617TIP3   OH277265   3.973   2.818  14.416  0.1454 -0.0632 -0.3705
18617TIP3    H177266   3.959   2.898  14.365  0.5266 -0.0594 -0.4685
18617TIP3    H277267   3.957   2.747  14.353  0.1027 -0.0630 -0.3600
18618TIP3   OH277268   2.798   2.685  14.367 -0.0936 -0.2818 -0.6325
18618TIP3    H177269   2.778   2.672  14.274  0.2816 -0.3476 -0.7073
18618TIP3    H277270   2.717   2.719  14.405 -0.4997 -1.0095 -0.8236
18619TIP3   OH277271   5.743   6.272  16.648  0.5484 -0.0075  0.1760
18619TIP3    H177272   5.690   6.317  16.582 -0.5930 -1.0715  0.3286
18619TIP3    H277273   5.679   6.239  16.711  1.4114 -1.2022  0.4471
18620TIP3   OH277274   4.553   0.246   0.272  0.3637  0.1318 -0.3104
18620TIP3    H177275   4.504   0.306   0.216 -0.4038 -0.1147  0.0839
18620TIP3    H277276   4.542   0.280   0.360 -1.7380 -1.6172  0.1881
18621TIP3   OH277277   5.768   1.991  12.280 -0.1159 -0.1108  0.1449
18621TIP3    H177278   5.676   1.967  12.278 -0.7834  2.2298 -1.9566
18621TIP3    H277279   5.812   1.923  12.228 -0.4952 -1.5183  1.5809
18622TIP3   OH277280   5.937   2.825  14.286  0.1497 -0.4046  0.0400
18622TIP3    H177281   5.876   2.844  14.215  0.3999  0.1334 -0.0348
18622TIP3    H277282   5.975   2.910  14.309 -1.9917 -0.0319  2.7386
18623TIP3   OH277283   3.479   4.754  12.061  0.7047  0.1703 -0.5371
18623TIP3    H177284   3.521   4.680  12.016  0.6897  0.3879 -0.9084
18623TIP3    H277285   3.530   4.765  12.141 -0.3462 -1.3771  0.4021
18624TIP3   OH277286   0.162   3.225  13.677  0.0573  0.0719  0.3263
18624TIP3    H177287   0.229   3.194  13.615  0.2173 -0.4309  0.7420
18624TIP3    H277288   0.128   3.145  13.717 -0.1045  0.3858  0.8257
18625TIP3   OH277289   5.771   0.736  14.263  0.3365  0.1965 -0.3202
18625TIP3    H177290   5.739   0.708  14.178 -0.0272 -1.8210  0.4412
18625TIP3    H277291   5.767   0.832  14.260 -0.8090  0.1227 -2.1159
18626TIP3   OH277292   1.443   4.589  15.271  0.0550  0.1506  0.1275
18626TIP3    H177293   1.431   4.597  15.366 -0.6897  0.7751 -0.0023
18626TIP3    H277294   1.363   4.627  15.234  0.5897  0.4383 -0.7613
18627TIP3   OH277295   2.329   2.327   3.797  0.0552  0.3971  0.5679
18627TIP3    H177296   2.415   2.293   3.772 -0.6397 -0.6673 -0.4827
18627TIP3    H277297   2.269   2.288   3.733 -1.1198  1.6445  0.8872
18628TIP3   OH277298   0.405   6.278  13.328  0.1585  0.0057 -0.2059
18628TIP3    H177299   0.456   6.279  13.247  0.4626  0.3091 -0.0148
18628TIP3    H277300   0.420   6.365  13.367  1.5598 -0.7584  1.1169
18629TIP3   OH277301   5.904   1.060  15.483  0.8711 -0.1864 -0.0678
18629TIP3    H177302   5.883   1.050  15.576  0.4541 -1.3238 -0.2644
18629TIP3    H277303   5.972   1.127  15.481  0.9616 -0.2180  1.0614
18630TIP3   OH277304   3.155   4.300  12.903  0.4925  0.2278  0.0189
18630TIP3    H177305   3.098   4.349  12.963 -0.6604 -0.6605 -0.3155
18630TIP3    H277306   3.115   4.312  12.817  0.1930 -1.2735 -0.0720
18631TIP3   OH277307   2.706   0.039   0.983 -0.0386 -0.2789 -0.2087
18631TIP3    H177308   2.723   0.054   1.076  1.7666  1.4116 -0.7269
18631TIP3    H277309   2.695  -0.056   0.975  0.1746 -0.4906  1.6762
18632TIP3   OH277310   0.436   5.673   5.055  0.2184 -0.1546  0.2762
18632TIP3    H177311   0.343   5.654   5.070  0.5662 -1.3058  1.1472
18632TIP3    H277312   0.477   5.586   5.045  1.9824 -0.1280  4.8291
18633TIP3   OH277313   3.755   2.300  13.627  0.4942  0.0870 -0.3262
18633TIP3    H177314   3.777   2.229  13.566 -1.8601  0.1269 -1.2981
18633TIP3    H277315   3.711   2.256  13.700 -0.6673  0.4751 -0.7748
18634TIP3   OH277316   1.360   5.847  14.106  0.3261 -0.4096  0.0299
18634TIP3    H177317   1.359   5.769  14.161 -0.0763  0.4527  1.2938
18634TIP3    H277318   1.276   5.890  14.122 -0.0896 -0.4379 -1.7693
18635TIP3   OH277319   6.677   2.711   0.826 -0.0623  0.0915  0.6999
18635TIP3    H177320   6.585   2.730   0.809  0.3928  2.2752  0.4311
18635TIP3    H277321   6.702   2.772   0.896  1.3824  0.1291  0.1788
18636TIP3   OH277322   0.777   4.962  17.270  0.3544  0.2240  1.1676
18636TIP3    H177323   0.797   5.041  17.220 -0.1468 -0.9766 -1.0800
18636TIP3    H277324   0.706   4.988  17.329  2.4316  2.2612  2.9412
18637TIP3   OH277325   0.564   1.970  13.102  0.2304  0.3932  0.2250
18637TIP3    H177326   0.480   1.935  13.072  0.5679 -1.2274  1.0325
18637TIP3    H277327   0.579   2.047  13.048 -0.7754 -0.4821 -1.3845
18638TIP3   OH277328   4.197   5.104  17.068  0.0844 -0.3965  0.0031
18638TIP3    H177329   4.223   5.039  17.134 -2.5970 -0.9430  0.6314
18638TIP3    H277330   4.277   5.121  17.019  1.3341 -2.7170  1.0651
18639TIP3   OH277331   0.739   0.122  17.432 -0.1655 -0.7124  0.4155
18639TIP3    H177332   0.770   0.161  17.350  3.1235  1.1067  2.3383
18639TIP3    H277333   0.740   0.028  17.416  1.8947 -0.4743 -1.1956
18640TIP3   OH277334   0.609   1.497  15.280 -0.1762 -0.0613  0.5413
18640TIP3    H177335   0.554   1.437  15.229  0.3572 -2.0884  2.2249
18640TIP3    H277336   0.683   1.517  15.223 -0.7787 -0.3319 -0.3495
18641TIP3   OH277337   1.521   5.384   1.323 -0.4353  0.3132  0.9610
18641TIP3    H177338   1.578   5.310   1.345  0.9895  1.7100  2.1855
18641TIP3    H277339   1.437   5.361   1.363  0.0914 -0.4939  1.6515
18642TIP3   OH277340   6.324   2.678   0.966  0.0937 -0.4881  0.2388
18642TIP3    H177341   6.362   2.648   1.049  0.2247 -0.6817  0.1107
18642TIP3    H277342   6.293   2.767   0.984 -1.6841 -1.2430  1.0533
18643TIP3   OH277343   2.842   3.454  15.121  0.2315  0.0148  0.0943
18643TIP3    H177344   2.810   3.523  15.180  0.1283  1.3583 -1.4541
18643TIP3    H277345   2.929   3.483  15.094  1.6439 -2.1445  1.9292
18644TIP3   OH277346   5.306   5.685   4.240  0.6304  0.1766 -0.3318
18644TIP3    H177347   5.240   5.638   4.188 -0.1391 -0.3903  1.0884
18644TIP3    H277348   5.281   5.667   4.331  2.5685  0.2316  0.2462
18645TIP3   OH277349   2.854   3.922  13.776  0.2280 -0.0590  0.2000
18645TIP3    H177350   2.895   4.008  13.786  0.0281  0.1605 -0.7811
18645TIP3    H277351   2.905   3.865  13.834  0.3571  0.7136  0.8641
18646TIP3   OH277352   3.742   5.287  17.213 -0.0938  0.1367  0.3745
18646TIP3    H177353   3.835   5.266  17.220 -0.4652 -1.7790  0.0732
18646TIP3    H277354   3.707   5.272  17.301 -0.3078 -0.2545  0.2280
18647TIP3   OH277355   2.828   3.410   0.471 -0.5183  0.0609 -0.1198
18647TIP3    H177356   2.820   3.343   0.539 -0.1688 -0.0790 -0.2181
18647TIP3    H277357   2.915   3.397   0.433 -0.5602  0.3845 -0.3356
18648TIP3   OH277358   2.634   2.895   1.071  0.5293 -0.0600 -0.2411
18648TIP3    H177359   2.725   2.874   1.053  0.5564  0.2603 -0.4967
18648TIP3    H277360   2.627   2.893   1.167  0.4248 -1.5946 -0.2699
18649TIP3   OH277361   0.384   2.952   1.520 -0.6790  0.0231 -0.0961
18649TIP3    H177362   0.437   2.966   1.442 -0.4297  0.7916  0.2016
18649TIP3    H277363   0.367   3.040   1.554 -0.7625 -0.2969  0.7284
18650TIP3   OH277364   5.588   2.454   6.126 -0.7191 -0.1932 -0.3191
18650TIP3    H177365   5.654   2.466   6.194 -0.8577 -1.6235  0.1175
18650TIP3    H277366   5.537   2.535   6.127  0.2033  0.3979  0.2489
18651TIP3   OH277367   6.262   1.087   3.962  0.1228 -0.1342  0.0761
18651TIP3    H177368   6.223   1.009   4.002 -0.6694  0.3739  0.3250
18651TIP3    H277369   6.266   1.067   3.868 -0.3630 -0.3580  0.1016
18652TIP3   OH277370   6.033   5.913   1.930  0.5483  0.7531  1.2198
18652TIP3    H177371   6.059   5.982   1.991 -0.1328  1.1805  1.0351
18652TIP3    H277372   5.946   5.939   1.901 -0.6194 -1.2388  2.7039
18653TIP3   OH277373   3.690   6.604  13.975  0.6516 -0.4930  0.3465
18653TIP3    H177374   3.765   6.564  13.931  0.8735  1.4536 -1.1866
18653TIP3    H277375   3.684   6.692  13.937 -1.7179 -0.1873  1.2712
18654TIP3   OH277376   3.755   6.061  13.361 -0.3718 -1.1774 -0.3409
18654TIP3    H177377   3.761   6.077  13.455  1.8560  0.2096 -0.6507
18654TIP3    H277378   3.842   6.028  13.337 -0.0700  0.8269 -2.2679
18655TIP3   OH277379   2.743   5.320   4.827  0.0084 -0.3258  0.4890
18655TIP3    H177380   2.764   5.270   4.906 -0.9939  0.9172  1.5901
18655TIP3    H277381   2.671   5.272   4.787 -2.1062  1.0134  2.4483
18656TIP3   OH277382   5.880   0.391   3.106  0.4129  0.3104  0.6604
18656TIP3    H177383   5.894   0.327   3.175  1.8410  1.0900  1.1218
18656TIP3    H277384   5.942   0.366   3.037 -1.9054 -1.2726 -1.0004
18657TIP3   OH277385   3.808   6.703   5.353 -0.5003 -0.1465  0.1410
18657TIP3    H177386   3.807   6.613   5.385  0.3007 -0.7587 -1.4580
18657TIP3    H277387   3.853   6.698   5.268  0.1559  1.8569  0.3176
18658TIP3   OH277388   2.778   2.919  12.821  0.1393  0.0310  0.5156
18658TIP3    H177389   2.866   2.895  12.793  0.1527  1.6551 -1.0553
18658TIP3    H277390   2.791   2.971  12.900  0.5227 -0.4747  0.7826
18659TIP3   OH277391   0.574   4.289  14.978  0.0207  0.3045  0.3578
18659TIP3    H177392   0.513   4.309  15.048  0.5793  1.4799  0.5415
18659TIP3    H277393   0.554   4.353  14.909 -0.1296 -0.4494 -0.3114
18660TIP3   OH277394   4.802   2.894   6.282 -1.1311  0.4188 -0.4143
18660TIP3    H177395   4.770   2.804   6.278 -2.2775  0.8186 -0.5335
18660TIP3    H277396   4.808   2.922   6.191  0.7235 -0.0187 -0.4718
18661TIP3   OH277397   1.066   0.767   4.868 -0.4048 -0.4265 -0.2076
18661TIP3    H177398   1.129   0.758   4.939 -0.1645  2.3218  0.0204
18661TIP3    H277399   1.077   0.687   4.816  1.0071 -1.4454  1.5469
18662TIP3   OH277400   4.919   3.748   1.395 -0.3168 -0.0858  0.7344
18662TIP3    H177401   4.938   3.680   1.330  1.1862  0.2611  0.7574
18662TIP3    H277402   5.004   3.789   1.411 -1.5390  3.9740 -1.6695
18663TIP3   OH277403   2.366   1.475  15.367 -0.6514  0.8326 -0.3869
18663TIP3    H177404   2.342   1.500  15.456 -2.2214 -1.0248 -0.2326
18663TIP3    H277405   2.462   1.483  15.365 -0.6137  1.1447  1.3831
18664TIP3   OH277406   4.919   4.482   6.261 -0.2675 -0.2001  0.0481
18664TIP3    H177407   4.928   4.512   6.171 -1.2876 -0.2807 -0.0901
18664TIP3    H277408   4.835   4.519   6.290  0.0188 -0.2323  0.9374
18665TIP3   OH277409   3.357   6.054  14.187  0.6198  0.1653 -0.1596
18665TIP3    H177410   3.284   6.091  14.237  1.4149  0.4247  0.8582
18665TIP3    H277411   3.406   6.131  14.158  0.7914 -0.0217 -0.3593
18666TIP3   OH277412   2.381   0.631   1.740  0.1570 -0.6149 -0.0049
18666TIP3    H177413   2.319   0.634   1.667  0.0861 -0.7273  0.0496
18666TIP3    H277414   2.426   0.547   1.728  0.5028 -0.4029 -0.2110
18667TIP3   OH277415   2.927   4.749  14.518 -0.9695 -0.1202 -0.0935
18667TIP3    H177416   2.883   4.689  14.579  3.1916 -1.7339  1.6600
18667TIP3    H277417   2.925   4.702  14.434 -1.1675 -0.9078  0.3365
18668TIP3   OH277418   3.623   1.994  13.138  0.4149  0.2435  0.4320
18668TIP3    H177419   3.531   1.968  13.136  0.9523 -1.9090  1.4647
18668TIP3    H277420   3.629   2.055  13.212 -0.2750  0.8605 -0.0119
18669TIP3   OH277421   1.761   3.926   5.913  0.3996 -0.4141 -0.2781
18669TIP3    H177422   1.756   3.851   5.854 -0.3525 -0.2476 -0.4352
18669TIP3    H277423   1.823   3.986   5.872 -1.3637  0.4554 -1.7770
18670TIP3   OH277424   3.015   0.808  11.699 -0.4684 -0.3675  0.1633
18670TIP3    H177425   2.959   0.881  11.674 -1.5136 -1.1376  0.1911
18670TIP3    H277426   3.041   0.768  11.616  0.9010  0.5878  0.1003
18671TIP3   OH277427   0.533   4.205   4.409  0.1083 -0.6963  0.0058
18671TIP3    H177428   0.552   4.146   4.481  1.5262 -0.0183  0.2215
18671TIP3    H277429   0.613   4.204   4.355 -0.4090 -0.1410 -0.7977
18672TIP3   OH277430   0.060   5.927  11.426  0.2583  0.8132  0.2827
18672TIP3    H177431   0.015   5.976  11.495 -1.4168 -0.1765 -0.0492
18672TIP3    H277432   0.152   5.936  11.447 -0.0902  2.5359  1.2763
18673TIP3   OH277433   5.768   1.531   1.666 -0.9329 -0.1813  0.2865
18673TIP3    H177434   5.734   1.459   1.720 -0.1674  1.0434  2.5458
18673TIP3    H277435   5.698   1.549   1.603 -1.8081 -1.8054  0.7449
18674TIP3   OH277436   1.205   1.356   2.691 -0.5175  0.0091 -0.2201
18674TIP3    H177437   1.269   1.335   2.759 -0.6435 -0.8475 -0.3579
18674TIP3    H277438   1.121   1.358   2.737 -0.8619 -2.3734 -0.6149
18675TIP3   OH277439   3.155   0.787  15.593 -0.0530 -0.0658  0.3061
18675TIP3    H177440   3.111   0.872  15.596  1.5062  0.7693  0.4128
18675TIP3    H277441   3.178   0.774  15.501 -1.5052 -1.0592  0.0458
18676TIP3   OH277442   5.960   6.174  13.039 -0.6159  0.0925 -0.7917
18676TIP3    H177443   5.944   6.244  12.975 -1.2060  0.9384  0.2622
18676TIP3    H277444   5.924   6.096  12.997 -1.5297  0.7473 -1.2658
18677TIP3   OH277445   0.895   2.498  17.006  0.2843  0.3309  0.5031
18677TIP3    H177446   0.910   2.578  17.056  0.0186 -0.7352  2.3662
18677TIP3    H277447   0.823   2.520  16.947 -0.1181  1.3215  1.3454
18678TIP3   OH277448   4.697   3.524  17.398  0.1151  0.4295 -0.2949
18678TIP3    H177449   4.620   3.581  17.403  0.2673  0.5968  0.2077
18678TIP3    H277450   4.710   3.509  17.304  0.5328  1.8545 -0.4790
18679TIP3   OH277451   3.452   6.215   5.036 -0.0082 -0.0448 -0.2276
18679TIP3    H177452   3.473   6.220   4.943  1.4738 -1.9524 -0.0508
18679TIP3    H277453   3.409   6.130   5.047  1.1684 -0.5220  1.0304
18680TIP3   OH277454   2.890   4.698   5.415  0.0945  0.3479 -0.3735
18680TIP3    H177455   2.978   4.734   5.419  2.0221 -3.8552 -0.0750
18680TIP3    H277456   2.861   4.718   5.326  1.2263  1.9250 -0.4363
18681TIP3   OH277457   2.317   6.728   0.897  0.0481  0.2663 -0.3510
18681TIP3    H177458   2.410   6.717   0.878  0.2338  1.5604 -0.2577
18681TIP3    H277459   2.273   6.675   0.831  0.8453 -0.1486 -0.5568
18682TIP3   OH277460   5.078   4.729  12.104 -0.3206 -0.6586 -0.3745
18682TIP3    H177461   5.057   4.739  12.011 -1.5662  0.0511 -0.0358
18682TIP3    H277462   5.165   4.769  12.114 -1.6649  2.6005 -0.5947
18683TIP3   OH277463   3.521   2.467  17.240 -0.4849  0.0807 -0.1935
18683TIP3    H177464   3.491   2.538  17.184  0.2337  1.3610  0.9860
18683TIP3    H277465   3.456   2.463  17.311 -1.0615 -1.1292 -0.7447
18684TIP3   OH277466   4.957   3.862  16.205 -0.0226  0.4694 -0.4465
18684TIP3    H177467   5.009   3.886  16.128  0.4624 -0.3430 -0.3789
18684TIP3    H277468   4.983   3.925  16.272  1.8231 -0.6830 -0.0329
18685TIP3   OH277469   4.657   3.715   1.532  0.0112  0.3412  0.3457
18685TIP3    H177470   4.744   3.756   1.527  0.5758 -0.7775  0.7373
18685TIP3    H277471   4.596   3.788   1.520  0.9899  1.2818  0.8515
18686TIP3   OH277472   4.211   0.670   1.306  0.0581 -0.0334 -0.3853
18686TIP3    H177473   4.306   0.667   1.296  0.1747  0.1364  0.5954
18686TIP3    H277474   4.196   0.736   1.373 -0.7043 -0.6393  0.0520
18687TIP3   OH277475   3.811   3.403   4.308  0.0795  0.3057  0.0055
18687TIP3    H177476   3.807   3.439   4.397  0.4911 -0.5634  0.3810
18687TIP3    H277477   3.898   3.425   4.276  0.0227  0.3900 -0.0961
18688TIP3   OH277478   4.020   2.009  15.602 -0.9389  0.1357  0.1583
18688TIP3    H177479   3.957   1.941  15.627 -0.5403 -0.1604  0.3681
18688TIP3    H277480   4.104   1.976  15.632 -0.7957  0.9388  0.6787
18689TIP3   OH277481   3.488   5.665   3.863 -0.0607 -0.6240  0.0688
18689TIP3    H177482   3.568   5.686   3.815  0.1643 -0.6289  0.4402
18689TIP3    H277483   3.420   5.665   3.796  0.5241 -2.4600 -0.5910
18690TIP3   OH277484   6.287   2.811  12.921  0.0921  0.1312  0.1321
18690TIP3    H177485   6.307   2.728  12.964 -2.2420 -0.0602  0.9670
18690TIP3    H277486   6.236   2.860  12.986 -2.3005  0.4437 -1.8605
18691TIP3   OH277487   0.932   0.644   3.774  0.7275  1.0251  0.2782
18691TIP3    H177488   0.900   0.734   3.771  0.8281  1.0510 -0.2157
18691TIP3    H277489   0.941   0.624   3.867 -1.0376  0.8909  0.4457
18692TIP3   OH277490   2.617   5.389   0.412  0.0241  0.3519  0.6055
18692TIP3    H177491   2.637   5.479   0.386  1.1109  0.4802  1.8030
18692TIP3    H277492   2.703   5.346   0.414 -0.4740 -0.6868  0.1725
18693TIP3   OH277493   4.449   2.626   2.085  0.1983  0.1133 -0.0414
18693TIP3    H177494   4.403   2.710   2.094 -1.5931 -0.7261 -0.7382
18693TIP3    H277495   4.385   2.569   2.042  0.5536 -2.2150  2.2361
18694TIP3   OH277496   3.414   1.435   2.469  0.6041 -0.4875  0.1514
18694TIP3    H177497   3.502   1.420   2.433  0.8335  0.4929  0.2744
18694TIP3    H277498   3.357   1.377   2.418  1.0548  0.1876 -1.1625
18695TIP3   OH277499   1.004   3.720  12.133 -0.1632 -0.1356  0.5470
18695TIP3    H177500   1.053   3.667  12.196  0.3895  0.7681  0.9016
18695TIP3    H277501   0.978   3.797  12.182  1.0835  1.0312 -0.5438
18696TIP3   OH277502   3.440   1.288  15.327 -0.0696 -0.1296 -0.4600
18696TIP3    H177503   3.357   1.326  15.356 -1.6009 -1.4104 -2.7734
18696TIP3    H277504   3.450   1.320  15.237  1.0341 -1.3585 -0.8111
18697TIP3   OH277505   3.044   3.671  15.349 -0.6698  0.3474  0.1397
18697TIP3    H177506   3.083   3.751  15.383  0.2698 -1.1928  2.9756
18697TIP3    H277507   3.003   3.629  15.425 -1.6716 -1.5925 -1.3541
18698TIP3   OH277508   3.850   0.345  13.132  0.1398  0.3917 -0.1051
18698TIP3    H177509   3.786   0.416  13.138 -1.2629 -0.8049 -0.0932
18698TIP3    H277510   3.868   0.337  13.038 -1.3450 -0.5629 -0.3548
18699TIP3   OH277511   6.062   4.508  13.894  0.2459 -0.2886  0.1374
18699TIP3    H177512   6.033   4.478  13.807 -0.4213 -1.1116  0.6296
18699TIP3    H277513   6.154   4.533  13.881 -0.2696  1.0710 -1.1507
18700TIP3   OH277514   5.720   3.604  16.976 -0.0848  0.4554  0.4365
18700TIP3    H177515   5.672   3.681  16.945  0.6804  0.5501 -0.5733
18700TIP3    H277516   5.755   3.630  17.061 -0.0379  1.1310  0.2151
18701TIP3   OH277517   2.687   3.091   2.568  0.4337  0.4058 -0.6672
18701TIP3    H177518   2.627   3.080   2.641  1.1052 -0.8231 -0.2659
18701TIP3    H277519   2.636   3.066   2.491  0.9777 -3.0001 -0.1131
18702TIP3   OH277520   5.258   0.007  17.266 -0.5921  0.0702  0.0560
18702TIP3    H177521   5.168   0.020  17.236 -0.3778  0.4491 -0.4313
18702TIP3    H277522   5.263   0.057  17.348 -0.9920 -0.4358  0.3938
18703TIP3   OH277523   2.017   4.039   2.766 -0.0147 -0.0512 -0.2395
18703TIP3    H177524   2.105   4.034   2.728 -0.5805 -1.9971 -1.4925
18703TIP3    H277525   2.017   4.118   2.819  2.6344 -0.2506  0.1559
18704TIP3   OH277526   3.862   5.335  16.138 -0.2132 -0.4054 -0.2241
18704TIP3    H177527   3.877   5.390  16.215 -0.1461 -1.3840  0.4767
18704TIP3    H277528   3.768   5.323  16.135 -0.1476 -1.0442  0.1905
18705TIP3   OH277529   6.055   2.095  12.271 -0.1789  0.5781 -0.0376
18705TIP3    H177530   6.006   2.040  12.211  0.3018 -2.0542  1.7978
18705TIP3    H277531   6.002   2.097  12.351  0.8815  0.8676  0.6826
18706TIP3   OH277532   2.934   4.671  17.026 -0.4238  0.0424 -0.4357
18706TIP3    H177533   2.959   4.601  17.085 -2.2907  0.4697  0.9348
18706TIP3    H277534   2.863   4.717  17.071  1.1919  3.3025 -0.9022
18707TIP3   OH277535   1.140   0.379  11.281 -0.0714 -0.1537  0.0826
18707TIP3    H177536   1.157   0.379  11.375  0.3540  0.4505  0.0113
18707TIP3    H277537   1.066   0.319  11.270 -1.0181  0.8294  0.9561
18708TIP3   OH277538   0.483   2.840   5.653  0.3604  0.1179  0.4398
18708TIP3    H177539   0.577   2.860   5.657 -0.0348  2.2386  0.4116
18708TIP3    H277540   0.443   2.922   5.625 -1.3674 -1.2224 -1.2448
18709TIP3   OH277541   1.445   4.885  14.905 -0.3475 -0.3317  0.4554
18709TIP3    H177542   1.473   4.941  14.832 -3.5768  0.6730 -0.1743
18709TIP3    H277543   1.393   4.943  14.960 -0.4006 -1.8016  2.0087
18710TIP3   OH277544   2.751   3.494  11.633  0.3782  0.0449  0.1764
18710TIP3    H177545   2.819   3.559  11.649  0.2972  0.9663 -2.6259
18710TIP3    H277546   2.793   3.429  11.576 -1.1603  1.0439 -2.2759
18711TIP3   OH277547   6.545   5.602   4.355  0.4278  0.3891  0.1198
18711TIP3    H177548   6.639   5.615   4.374  0.6002  2.1015 -1.5775
18711TIP3    H277549   6.504   5.682   4.388  0.0142  0.9885 -1.7648
18712TIP3   OH277550   0.446   3.877   0.585 -0.0924 -0.3688 -0.6727
18712TIP3    H177551   0.478   3.902   0.672 -1.8736 -1.6764  0.4250
18712TIP3    H277552   0.422   3.960   0.544 -0.2155  0.1992  0.4966
18713TIP3   OH277553   3.397   2.145   4.862  0.3128 -0.4294  0.3350
18713TIP3    H177554   3.413   2.063   4.909  2.5964 -0.9839 -1.2219
18713TIP3    H277555   3.310   2.134   4.823  0.8996 -2.5317 -0.5475
18714TIP3   OH277556   2.148   5.636  16.107  0.9314  0.5893 -0.3352
18714TIP3    H177557   2.140   5.612  16.014  0.1702  2.0911 -0.6843
18714TIP3    H277558   2.076   5.696  16.123  0.4585 -0.4046  1.5168
18715TIP3   OH277559   4.317   5.130  14.752 -0.0727 -0.3934  0.2297
18715TIP3    H177560   4.388   5.070  14.727 -0.3642 -1.2075  1.2979
18715TIP3    H277561   4.237   5.080  14.740 -0.4465  0.3158 -0.3597
18716TIP3   OH277562   2.158   1.790   4.329 -0.4422  0.3300  0.5800
18716TIP3    H177563   2.253   1.802   4.336 -0.2690  0.7240 -1.8294
18716TIP3    H277564   2.127   1.865   4.278 -1.8208 -0.5985 -0.0206
18717TIP3   OH277565   1.073   5.722  17.395 -0.0007 -0.4163  0.0770
18717TIP3    H177566   1.107   5.789  17.454  1.6739 -0.9873 -0.1733
18717TIP3    H277567   1.095   5.639  17.437  0.2842 -0.8201 -0.8278
18718TIP3   OH277568   5.848   2.640  10.553 -0.1815  0.0446  0.1690
18718TIP3    H177569   5.864   2.656  10.646 -0.7353  0.7713  0.1402
18718TIP3    H277570   5.895   2.710  10.507  0.3174 -0.4643 -0.1238
18719TIP3   OH277571   3.679   3.514   0.402 -0.0242  0.1859  0.4154
18719TIP3    H177572   3.655   3.519   0.494 -0.2326  0.1733  0.3626
18719TIP3    H277573   3.673   3.605   0.371 -1.2416  0.0256  0.0978
18720TIP3   OH277574   3.079   0.494  13.572 -0.2353  0.5286  0.4379
18720TIP3    H177575   3.076   0.399  13.580 -0.3203  0.5688  0.9216
18720TIP3    H277576   3.164   0.511  13.531 -0.3606  0.2259  0.0552
18721TIP3   OH277577   2.857   4.337  13.344 -0.0538  0.4771  0.1129
18721TIP3    H177578   2.810   4.318  13.425  0.7271 -0.2540  0.4069
18721TIP3    H277579   2.804   4.295  13.276 -0.8541  1.3192  0.1864
18722TIP3   OH277580   0.561   2.734   5.356  0.1980 -0.4639 -0.3604
18722TIP3    H177581   0.477   2.778   5.366  0.3301 -0.1303 -0.6981
18722TIP3    H277582   0.541   2.641   5.372 -0.4525 -0.5412 -1.4689
18723TIP3   OH277583   0.163   0.104   4.269  0.3757  0.0096  1.2567
18723TIP3    H177584   0.123   0.161   4.204 -1.5779  0.6000  2.8997
18723TIP3    H277585   0.110   0.024   4.267  1.4280 -0.7123  0.8898
18724TIP3   OH277586   3.284   2.182   0.243 -0.6255 -0.3324  0.2064
18724TIP3    H177587   3.305   2.118   0.174 -1.1410  1.2116 -1.4786
18724TIP3    H277588   3.192   2.203   0.229 -0.7238  0.0660  1.3596
18725TIP3   OH277589   5.674   6.053   2.297 -0.0821  0.4191  0.1135
18725TIP3    H177590   5.645   6.137   2.263 -0.3827 -0.0105 -0.7359
18725TIP3    H277591   5.609   5.990   2.265  0.5672 -0.2445  0.0631
18726TIP3   OH277592   2.371   2.080   6.409  0.5960  0.0947  0.3718
18726TIP3    H177593   2.413   2.140   6.470  1.7888  0.4869 -0.7752
18726TIP3    H277594   2.320   2.136   6.351  0.4894 -0.1342  0.2426
18727TIP3   OH277595   5.174   0.893   5.050  0.3531 -0.0544 -0.1340
18727TIP3    H177596   5.131   0.813   5.021 -0.2122 -0.2486  1.1796
18727TIP3    H277597   5.163   0.954   4.976 -1.4739 -0.3551 -0.1600
18728TIP3   OH277598   5.661   6.682  12.750 -0.0373 -0.0707  0.8840
18728TIP3    H177599   5.730   6.700  12.813  0.9471  0.8310 -0.3953
18728TIP3    H277600   5.680   6.740  12.676 -1.6424 -0.4631  0.1119
18729TIP3   OH277601   0.735   6.533   0.531  0.0276 -0.1790 -0.4216
18729TIP3    H177602   0.781   6.558   0.451  0.0159 -1.1137 -0.7262
18729TIP3    H277603   0.683   6.457   0.506 -1.1080  0.3977  0.1113
18730TIP3   OH277604   3.870   2.635   5.313 -0.4837  0.4040  0.1738
18730TIP3    H177605   3.799   2.699   5.320 -1.9983 -1.2699  0.8128
18730TIP3    H277606   3.871   2.611   5.220 -0.1016  1.1056 -0.0137
18731TIP3   OH277607   1.874   2.363   4.222 -0.5851 -0.3172  0.0017
18731TIP3    H177608   1.869   2.300   4.293  1.2219 -0.2983  0.1895
18731TIP3    H277609   1.834   2.319   4.147 -2.4156 -0.3741  0.9511
18732TIP3   OH277610   5.039   1.469  16.907 -0.2502 -0.0841  0.4861
18732TIP3    H177611   5.097   1.460  16.983 -3.0788  0.1905  2.8517
18732TIP3    H277612   4.987   1.547  16.926 -2.3040 -1.0531 -0.8479
18733TIP3   OH277613   2.738   0.959   1.633  0.7753  0.0367 -0.0094
18733TIP3    H177614   2.749   0.986   1.724 -1.3581  1.6433 -0.1385
18733TIP3    H277615   2.769   1.034   1.582 -0.1211  0.0686 -0.5257
18734TIP3   OH277616   5.780   4.719   4.783 -0.1169  0.3308 -0.0380
18734TIP3    H177617   5.726   4.796   4.798 -0.0016  0.3545  0.2584
18734TIP3    H277618   5.826   4.737   4.701  1.0582  1.2430  0.7966
18735TIP3   OH277619   2.977   5.424   3.881  0.4335 -0.2233 -0.1185
18735TIP3    H177620   2.918   5.351   3.903 -1.4410  1.6945  1.6345
18735TIP3    H277621   2.993   5.414   3.787 -2.6167 -0.9437 -0.6590
18736TIP3   OH277622   0.114   3.168   1.064 -0.0483 -0.9501  0.4983
18736TIP3    H177623   0.165   3.197   1.140  0.3797  2.1062 -0.8010
18736TIP3    H277624   0.072   3.247   1.032  1.2585 -1.6376 -3.5100
18737TIP3   OH277625   0.592   3.012  14.004  0.5946 -0.4601 -0.2114
18737TIP3    H177626   0.579   3.010  13.910  0.1280 -1.5795 -0.1392
18737TIP3    H277627   0.505   2.997  14.041  0.2949  2.4410  0.4599
18738TIP3   OH277628   5.874   0.703  16.401  0.3954  0.5287 -0.2832
18738TIP3    H177629   5.859   0.618  16.441  1.9830  0.5656  0.4716
18738TIP3    H277630   5.791   0.750  16.411 -0.0039 -0.3663  0.7150
18739TIP3   OH277631   6.607   2.853   5.759 -0.1446  0.6569 -0.3508
18739TIP3    H177632   6.699   2.838   5.739  0.1999  0.1262  1.4874
18739TIP3    H277633   6.561   2.778   5.719  0.6233 -0.8990  1.5339
18740TIP3   OH277634   0.149   4.690   6.287 -0.2651 -0.1291 -0.1502
18740TIP3    H177635   0.196   4.694   6.370 -2.1422 -1.1801  1.0358
18740TIP3    H277636   0.071   4.638   6.306 -1.4568  0.7668 -2.2201
18741TIP3   OH277637   2.417   3.744  11.638 -0.0206  0.4433  0.2314
18741TIP3    H177638   2.434   3.667  11.583  1.2395  1.1146 -0.3409
18741TIP3    H277639   2.480   3.737  11.710  2.3538  2.5474 -1.5007
18742TIP3   OH277640   4.875   2.040  15.850  0.7370 -0.2689 -0.3638
18742TIP3    H177641   4.801   2.005  15.900  0.6638 -0.3487 -0.5268
18742TIP3    H277642   4.952   2.015  15.901  0.6844 -0.6484 -0.4640
18743TIP3   OH277643   1.090   4.386  16.803  0.7635  0.0974 -0.3096
18743TIP3    H177644   1.033   4.398  16.728  0.6221  0.1473 -0.1949
18743TIP3    H277645   1.047   4.318  16.855 -0.5128  1.8387  1.0439
18744TIP3   OH277646   0.747   5.118   1.263  0.1116 -0.1500  0.0825
18744TIP3    H177647   0.763   5.028   1.292 -0.0318 -0.0306  0.5374
18744TIP3    H277648   0.746   5.169   1.343 -2.7964 -0.1872  0.1789
18745TIP3   OH277649   2.019   0.003  15.302  0.1699 -0.2577 -0.3481
18745TIP3    H177650   2.010  -0.092  15.295 -0.7512 -0.2689  0.7024
18745TIP3    H277651   2.052   0.018  15.391  0.1021  0.4158 -0.4278
18746TIP3   OH277652   2.934   0.573   3.443  0.0090 -0.5230 -0.0505
18746TIP3    H177653   2.857   0.624   3.464 -0.7479 -0.5360 -2.4890
18746TIP3    H277654   2.942   0.579   3.348  1.9923 -1.9798 -0.0474
18747TIP3   OH277655   2.960   0.969   5.798  0.0662  0.2891  0.0165
18747TIP3    H177656   2.923   1.019   5.725  0.2878  0.9521  0.3547
18747TIP3    H277657   3.025   1.027   5.837  0.6506 -0.4332  0.1430
18748TIP3   OH277658   3.976   4.635  15.552 -0.4757 -0.2296 -0.0031
18748TIP3    H177659   3.901   4.668  15.502  0.1368 -0.0662 -0.8394
18748TIP3    H277660   3.999   4.706  15.611 -0.7498 -0.1473  0.0091
18749TIP3   OH277661   4.310   3.142  11.807  0.1790  0.2918  0.3897
18749TIP3    H177662   4.355   3.187  11.735 -0.4541  0.5390  0.1473
18749TIP3    H277663   4.304   3.051  11.778  0.5299  0.2498  0.4335
18750TIP3   OH277664   0.119   5.241  14.069 -0.2511 -0.0034 -0.3776
18750TIP3    H177665   0.048   5.227  14.006  0.7623 -0.4537 -1.4603
18750TIP3    H277666   0.131   5.336  14.070  0.2220 -0.0304 -1.4791
18751TIP3   OH277667   3.026   4.784  13.613 -0.3080 -0.1065  0.7464
18751TIP3    H177668   3.075   4.713  13.655  0.5390  0.6117  1.0130
18751TIP3    H277669   3.088   4.857  13.610 -1.1828  0.6470  0.5398
18752TIP3   OH277670   3.307   5.590   1.959  0.1841  0.7156 -0.6548
18752TIP3    H177671   3.352   5.516   2.000 -2.0388 -0.7074 -0.6213
18752TIP3    H277672   3.309   5.658   2.026 -1.1650 -0.7033  0.9359
18753TIP3   OH277673   4.655   3.708  12.417 -0.3589 -0.2688 -0.1162
18753TIP3    H177674   4.714   3.752  12.355  0.6074 -2.6848 -1.0309
18753TIP3    H277675   4.579   3.685  12.365 -0.3364 -0.7124  0.0449
18754TIP3   OH277676   2.205   1.695   0.853 -0.2381 -0.4221 -0.2680
18754TIP3    H177677   2.126   1.734   0.814 -0.0523 -1.4006 -1.7088
18754TIP3    H277678   2.276   1.755   0.830 -0.1793 -0.8368 -1.2006
18755TIP3   OH277679   3.289   6.703  16.016  0.2653  0.9101  0.8904
18755TIP3    H177680   3.360   6.699  15.953  0.5818 -1.6506  1.3337
18755TIP3    H277681   3.212   6.724  15.963  0.7768  0.2983 -0.1295
18756TIP3   OH277682   3.079   4.373  15.723 -0.5874  0.0310 -0.4354
18756TIP3    H177683   3.083   4.413  15.810 -1.1851 -2.9440  1.1028
18756TIP3    H277684   2.986   4.379  15.699 -0.5488  0.2151 -0.5390
18757TIP3   OH277685   5.962   5.132  11.501 -0.0394  0.2722 -0.0269
18757TIP3    H177686   5.873   5.100  11.516  0.3009 -0.4652  0.4806
18757TIP3    H277687   5.953   5.227  11.493 -1.2182  0.0430 -2.4537
18758TIP3   OH277688   1.720   1.404   4.208 -0.0225  0.4694 -0.0271
18758TIP3    H177689   1.648   1.372   4.262 -0.0899  0.7090  0.0284
18758TIP3    H277690   1.798   1.391   4.263 -0.0851  0.6708  0.1122
18759TIP3   OH277691   0.636   4.236   6.437  0.4716  0.5419  0.3282
18759TIP3    H177692   0.623   4.146   6.406 -0.5376  0.6741  0.3247
18759TIP3    H277693   0.731   4.244   6.450  0.7955  0.0555 -1.4286
18760TIP3   OH277694   3.550   4.383  13.056  0.1376  0.2641  0.1888
18760TIP3    H177695   3.492   4.439  13.108 -0.0468 -0.0534  0.3295
18760TIP3    H277696   3.491   4.323  13.010  0.4065 -0.9435  1.3590
18761TIP3   OH277697   0.720   4.427   6.852  0.1563  0.4831 -0.5412
18761TIP3    H177698   0.627   4.409   6.866  0.7186 -1.9551  0.5473
18761TIP3    H277699   0.723   4.469   6.766 -1.7842 -1.5702 -1.7380
18762TIP3   OH277700   5.057   3.886   3.909 -0.2010  0.4734  0.4052
18762TIP3    H177701   5.004   3.962   3.932  0.0164  0.9265 -0.5246
18762TIP3    H277702   5.110   3.869   3.986 -0.1422  1.3684  0.5668
18763TIP3   OH277703   1.373   0.456   6.441 -0.4678 -0.3230 -0.0385
18763TIP3    H177704   1.327   0.535   6.412  0.1347 -0.0546 -0.2992
18763TIP3    H277705   1.466   0.481   6.437 -0.3166 -0.6775  0.9559
18764TIP3   OH277706   3.665   5.901  16.004 -0.6245  0.4029 -0.2879
18764TIP3    H177707   3.648   5.849  16.082 -1.6168  0.0805 -0.7037
18764TIP3    H277708   3.747   5.866  15.970  0.3858  1.2469  1.1596
18765TIP3   OH277709   0.405   3.857   5.234 -0.1221 -0.1431  0.1271
18765TIP3    H177710   0.429   3.943   5.200 -2.0868  0.6618  0.6223
18765TIP3    H277711   0.367   3.811   5.159  0.7175 -0.5036 -0.0831
18766TIP3   OH277712   2.312   1.795   5.135 -0.4826 -0.8705  0.1186
18766TIP3    H177713   2.235   1.827   5.088 -0.9273 -1.0675  0.6985
18766TIP3    H277714   2.383   1.802   5.071 -0.9699 -0.6546 -0.4172
18767TIP3   OH277715   2.129   1.866   2.311 -0.0920 -0.3905  0.3455
18767TIP3    H177716   2.065   1.933   2.336 -1.4453 -1.8644  0.9540
18767TIP3    H277717   2.179   1.851   2.392  0.7035  0.3692  0.0143
18768TIP3   OH277718   1.135   3.944  11.567  0.0256  0.6007 -0.0177
18768TIP3    H177719   1.058   3.973  11.616  0.7750  0.8683  1.0403
18768TIP3    H277720   1.146   4.010  11.499  1.1244  2.3914  1.7497
18769TIP3   OH277721   0.134   0.078  17.424  0.6597  0.0183 -0.3553
18769TIP3    H177722   0.086   0.084  17.507 -1.2482 -0.2301 -1.3808
18769TIP3    H277723   0.226   0.088  17.449  0.1318  0.1634  1.7554
18770TIP3   OH277724   0.909   4.536  14.802 -0.1161 -0.0315 -0.0979
18770TIP3    H177725   0.866   4.506  14.722  1.1092  2.5199 -1.8645
18770TIP3    H277726   0.843   4.589  14.847 -0.5850 -0.8889  0.2388
18771TIP3   OH277727   0.553   1.029   1.262  0.6559  0.2828 -0.3394
18771TIP3    H177728   0.510   1.059   1.342  0.9997  0.6731 -0.2986
18771TIP3    H277729   0.522   0.939   1.250 -1.2055  0.9783 -1.0300
18772TIP3   OH277730   4.929   2.336  15.195  0.5670 -0.2160 -0.3579
18772TIP3    H177731   4.907   2.313  15.105  0.5332  0.0793 -0.4257
18772TIP3    H277732   4.882   2.417  15.212 -0.4112 -0.8928  0.3333
18773TIP3   OH277733   1.448   4.936   5.191  0.6550 -0.3457 -0.4789
18773TIP3    H177734   1.469   5.006   5.253 -0.8760 -1.3450  1.2851
18773TIP3    H277735   1.508   4.865   5.214  0.0136 -0.7573 -0.0521
18774TIP3   OH277736   3.007   3.445   3.282 -0.3108  0.2633  0.0709
18774TIP3    H177737   3.079   3.383   3.271 -0.8732 -0.3867 -0.0125
18774TIP3    H277738   3.045   3.530   3.262  0.3292 -0.1225 -0.3794
18775TIP3   OH277739   0.592   2.683   0.158 -0.0094 -0.0117 -0.2738
18775TIP3    H177740   0.532   2.758   0.150  0.8115  0.7764  0.6916
18775TIP3    H277741   0.633   2.695   0.244  0.2328 -1.5107 -0.1619
18776TIP3   OH277742   4.839   0.384   0.459  0.5673  0.1439 -0.0259
18776TIP3    H177743   4.793   0.468   0.459 -1.4361 -0.8852 -1.1780
18776TIP3    H277744   4.791   0.330   0.521  1.8322 -0.1963  0.6936
18777TIP3   OH277745   2.817   5.195  15.963  0.2086  0.1775 -0.4160
18777TIP3    H177746   2.842   5.288  15.963  2.4457 -0.3342 -2.2862
18777TIP3    H277747   2.900   5.148  15.963 -0.7211 -1.7615 -3.2585
18778TIP3   OH277748   4.641   3.061   0.902 -0.3864  0.2760 -0.0511
18778TIP3    H177749   4.623   3.129   0.837  0.1648  0.7919  0.3396
18778TIP3    H277750   4.647   2.980   0.850 -0.3637  0.6204 -0.5944
18779TIP3   OH277751   4.095   3.439   1.786 -0.3667 -0.4148  0.2723
18779TIP3    H177752   4.183   3.412   1.760  0.6878  2.2006  0.8363
18779TIP3    H277753   4.060   3.364   1.834  2.7761 -0.5242  2.7315
18780TIP3   OH277754   1.386   0.541  14.581  0.0140  0.1849 -0.0714
18780TIP3    H177755   1.342   0.498  14.508 -1.7567  2.8558 -0.6893
18780TIP3    H277756   1.350   0.498  14.659  0.8738 -1.7189 -0.6584
18781TIP3   OH277757   0.592   5.827   3.682  0.4530 -0.5230 -0.4233
18781TIP3    H177758   0.652   5.901   3.692 -0.1874  0.0020 -0.4465
18781TIP3    H277759   0.556   5.813   3.769 -0.4767  0.1006 -0.6913
18782TIP3   OH277760   5.703   0.848  13.785  0.7314 -0.7139  0.5260
18782TIP3    H177761   5.616   0.856  13.747  2.0759  0.1833 -2.6806
18782TIP3    H277762   5.722   0.935  13.820  1.9192  0.5681 -2.8618
18783TIP3   OH277763   2.677   4.147   3.446 -0.2800 -0.7271  0.0734
18783TIP3    H177764   2.740   4.131   3.517 -0.4485 -0.4172  0.2976
18783TIP3    H277765   2.695   4.079   3.382  1.5339  0.4269 -0.7412
18784TIP3   OH277766   1.146   2.725  13.709 -1.0370  0.1919  0.4789
18784TIP3    H177767   1.221   2.668  13.727 -2.1806 -1.2547  0.8833
18784TIP3    H277768   1.173   2.811  13.740 -0.3368 -0.7452  2.6453
18785TIP3   OH277769   6.468   3.605   0.522  0.1642 -0.6847  0.0751
18785TIP3    H177770   6.483   3.521   0.565 -0.8032 -0.6323  0.5413
18785TIP3    H277771   6.461   3.668   0.594  3.0938  0.2383 -0.2982
18786TIP3   OH277772   3.010   0.024   2.388 -0.8310 -0.3808 -0.0136
18786TIP3    H177773   2.994   0.080   2.312  0.4213 -0.4810 -0.3757
18786TIP3    H277774   3.018   0.085   2.461  1.3673  0.0457 -0.5356
18787TIP3   OH277775   4.589   3.161   3.282 -0.3340 -0.0534 -0.0705
18787TIP3    H177776   4.575   3.111   3.362  1.6379 -1.7051 -0.6758
18787TIP3    H277777   4.600   3.252   3.313  0.9353 -0.7163  1.6310
18788TIP3   OH277778   1.746   4.173  16.612  0.5362  0.8114  0.3693
18788TIP3    H177779   1.686   4.112  16.655 -0.4311  2.1117  0.9523
18788TIP3    H277780   1.795   4.214  16.683 -0.6638  2.5541  0.2666
18789TIP3   OH277781   0.094   0.675  17.028  0.1138  0.1923  0.1748
18789TIP3    H177782   0.038   0.716  16.962  0.3882  1.0098  0.4378
18789TIP3    H277783   0.036   0.660  17.102 -0.2910 -1.0966 -0.3793
18790TIP3   OH277784   6.577   5.077   2.707 -0.5240 -0.3325  0.0535
18790TIP3    H177785   6.516   5.054   2.636 -1.3709 -2.6995  1.4377
18790TIP3    H277786   6.524   5.127   2.769  0.5440  2.9682 -1.4421
18791TIP3   OH277787   0.320   6.679   5.919  0.3224 -0.3662  0.5173
18791TIP3    H177788   0.322   6.585   5.901 -0.4516  0.2069 -3.5675
18791TIP3    H277789   0.412   6.705   5.920  0.5279 -1.0838  1.3704
18792TIP3   OH277790   1.371   0.832  11.344 -0.3833 -0.0482 -0.0789
18792TIP3    H177791   1.337   0.757  11.394  0.3162 -0.2553  0.0910
18792TIP3    H277792   1.446   0.797  11.297  0.0374  0.5837  0.1188
18793TIP3   OH277793   3.331   5.886  13.281  0.2066  0.1955  0.3827
18793TIP3    H177794   3.375   5.970  13.295 -0.2631  0.2365  1.6913
18793TIP3    H277795   3.389   5.822  13.322 -0.6947  0.1944  1.7041
18794TIP3   OH277796   6.317   4.670   0.284 -0.1983  0.4738 -0.2539
18794TIP3    H177797   6.394   4.726   0.290  0.9112 -0.9457 -0.5783
18794TIP3    H277798   6.329   4.605   0.353  0.0612 -1.1031 -1.7115
18795TIP3   OH277799   4.369   5.778  14.761 -0.4353  0.1578 -0.5468
18795TIP3    H177800   4.380   5.785  14.666  0.9670  0.1040 -0.4021
18795TIP3    H277801   4.453   5.806  14.798 -0.3829 -1.4012  0.6264
18796TIP3   OH277802   3.368   1.501  14.258  0.5235 -0.5406  0.1675
18796TIP3    H177803   3.427   1.435  14.224  0.2537 -0.6344 -0.1230
18796TIP3    H277804   3.387   1.504  14.352  0.9474 -0.6071  0.0862
18797TIP3   OH277805   0.919   1.210  15.066  0.6125  0.0131 -0.3079
18797TIP3    H177806   0.894   1.122  15.038 -0.0601 -1.2227  3.6162
18797TIP3    H277807   1.014   1.212  15.054  0.4464 -0.5183 -2.0832
18798TIP3   OH277808   2.058   0.497   4.947 -0.3091 -0.2040  0.3888
18798TIP3    H177809   1.985   0.440   4.974  1.6768 -2.1513  2.0547
18798TIP3    H277810   2.101   0.521   5.029  0.0035  2.2727 -0.4441
18799TIP3   OH277811   4.708   2.334   1.311 -0.3627  0.1633  0.8041
18799TIP3    H177812   4.758   2.404   1.269 -3.7444  1.0889 -2.1921
18799TIP3    H277813   4.730   2.340   1.404  3.2383  1.8528 -0.0158
18800TIP3   OH277814   5.783   4.419  11.970 -0.1320 -0.0490  0.4300
18800TIP3    H177815   5.786   4.325  11.954 -1.8770 -0.1391  0.4325
18800TIP3    H277816   5.745   4.456  11.890 -2.0684  0.2964  1.4383
18801TIP3   OH277817   0.428   2.254   0.858  0.0231  0.3786  0.1894
18801TIP3    H177818   0.366   2.262   0.785  0.7260  0.2926 -0.4289
18801TIP3    H277819   0.498   2.315   0.837  0.1425  0.4888  0.8911
18802TIP3   OH277820   5.548   6.092   3.507 -0.1258 -0.1559  1.0066
18802TIP3    H177821   5.559   6.178   3.466  0.6391 -0.8162 -0.2249
18802TIP3    H277822   5.453   6.082   3.515 -0.5056 -0.8229 -2.5673
18803TIP3   OH277823   2.893   0.913   4.306 -0.0186 -0.0481 -0.5690
18803TIP3    H177824   2.832   0.891   4.236 -1.2502 -0.1126  0.4800
18803TIP3    H277825   2.924   0.829   4.339  0.1168 -0.0366 -0.6687
18804TIP3   OH277826   4.505   4.751  13.856 -0.0070  0.0416  0.1124
18804TIP3    H177827   4.446   4.686  13.893  0.7557 -1.0286 -0.4856
18804TIP3    H277828   4.448   4.823  13.827 -0.8166 -0.1553  1.1724
18805TIP3   OH277829   2.718   1.745   4.743  0.2009  0.2166 -0.6592
18805TIP3    H177830   2.721   1.773   4.652 -1.7248  1.7201 -0.3253
18805TIP3    H277831   2.697   1.652   4.739  1.2348  0.0168 -1.7414
18806TIP3   OH277832   0.085   5.787  14.080  0.0278  0.1126  0.8812
18806TIP3    H177833   0.160   5.791  14.140  0.3031 -2.6689  0.8744
18806TIP3    H277834   0.123   5.765  13.996 -0.6733  0.1337  0.5519
18807TIP3   OH277835   5.426   5.659  15.557  0.0467  0.1670 -0.1277
18807TIP3    H177836   5.443   5.614  15.639  0.7452 -1.3313 -1.0398
18807TIP3    H277837   5.459   5.748  15.570 -0.2539  0.0870  1.3280
18808TIP3   OH277838   2.160   0.631  17.255  0.4847  0.0097 -0.1035
18808TIP3    H177839   2.175   0.641  17.161 -1.0102  1.1345 -0.2450
18808TIP3    H277840   2.065   0.632  17.265  0.6263  1.3745  1.5573
18809TIP3   OH277841   4.455   6.556  16.766  0.5335  0.1896  0.1236
18809TIP3    H177842   4.506   6.636  16.760 -0.0042  0.5570  0.4244
18809TIP3    H277843   4.491   6.510  16.842  0.8666  0.1158 -0.0716
18810TIP3   OH277844   1.322   2.000   6.127  0.5531 -0.2985 -0.1601
18810TIP3    H177845   1.417   1.989   6.125  0.4658 -1.1593 -0.0001
18810TIP3    H277846   1.291   1.956   6.048  0.1989 -1.1578  0.4309
18811TIP3   OH277847   5.368   0.238   1.078 -1.2062 -0.5225  1.0030
18811TIP3    H177848   5.367   0.143   1.064  1.1596 -0.3196 -1.4730
18811TIP3    H277849   5.453   0.255   1.118 -1.2169  0.6307  0.5701
18812TIP3   OH277850   0.638   2.653  16.095 -0.9148 -0.2200 -0.0968
18812TIP3    H177851   0.728   2.687  16.099 -0.0203 -2.2556 -1.1769
18812TIP3    H277852   0.586   2.726  16.062  1.0640 -0.0867 -3.3941
18813TIP3   OH277853   4.942   0.654   1.410  0.2675  0.0694 -0.0473
18813TIP3    H177854   5.026   0.652   1.455  0.6405 -0.3253 -0.7479
18813TIP3    H277855   4.886   0.595   1.460  0.7792 -0.6262 -0.2914
18814TIP3   OH277856   3.994   6.461  16.671  0.3572 -0.8035  0.0069
18814TIP3    H177857   3.918   6.515  16.694  0.8037 -0.0911 -0.1513
18814TIP3    H277858   4.060   6.483  16.736  0.0136 -2.3902  0.9252
18815TIP3   OH277859   3.893   6.067   0.037  0.0429 -0.0161 -0.4345
18815TIP3    H177860   3.805   6.105   0.038 -0.3195 -0.8021 -1.5878
18815TIP3    H277861   3.888   5.996  -0.026  1.2495 -0.7180  0.2357
18816TIP3   OH277862   4.636   1.135  14.536  0.2813  0.3048  0.2006
18816TIP3    H177863   4.664   1.056  14.489  0.1995  0.5591 -0.2771
18816TIP3    H277864   4.556   1.108  14.581 -0.7659  0.6031 -1.4180
18817TIP3   OH277865   2.488   1.208  12.583  0.1080  0.1987  0.4529
18817TIP3    H177866   2.443   1.292  12.591  0.2383  0.4790 -1.4364
18817TIP3    H277867   2.440   1.150  12.642  1.7444  2.1805  4.1213
18818TIP3   OH277868   4.145   2.544  13.733 -0.6223 -0.1432 -0.5504
18818TIP3    H177869   4.158   2.638  13.734 -1.1946 -0.0528 -1.3079
18818TIP3    H277870   4.054   2.531  13.757 -0.2014 -0.5861  0.8947
18819TIP3   OH277871   2.742   4.402   5.073 -0.0740 -0.6743 -0.1163
18819TIP3    H177872   2.714   4.488   5.042 -2.9379 -1.4385  0.0113
18819TIP3    H277873   2.810   4.376   5.012 -0.2411  1.0384 -1.1072
18820TIP3   OH277874   4.176   5.894  15.686  0.0083  0.0792 -0.0057
18820TIP3    H177875   4.156   5.802  15.705 -2.4242  0.5691  0.2114
18820TIP3    H277876   4.254   5.891  15.632  0.8281 -2.0161  1.1658
18821TIP3   OH277877   4.638   4.293   1.719 -0.0322  0.0651  0.4740
18821TIP3    H177878   4.689   4.226   1.673  0.7068  0.3504  0.8688
18821TIP3    H277879   4.589   4.337   1.649  0.1909 -0.2737  0.0990
18822TIP3   OH277880   0.873   3.600  12.655 -0.2618  0.3170 -0.1540
18822TIP3    H177881   0.922   3.528  12.614  2.1462  1.5105  0.3883
18822TIP3    H277882   0.794   3.560  12.690  1.6144 -2.3819  1.3432
18823TIP3   OH277883   1.350   5.322  16.339 -0.3792 -0.1308  0.1964
18823TIP3    H177884   1.280   5.331  16.275 -0.5339  0.8845  0.4991
18823TIP3    H277885   1.337   5.395  16.400  0.1112 -0.7317  1.0533
18824TIP3   OH277886   1.501   3.376  16.659 -0.1229  0.5273 -0.5046
18824TIP3    H177887   1.409   3.404  16.666  0.4301  2.3519 -0.0734
18824TIP3    H277888   1.524   3.349  16.748 -0.1104  0.4278 -0.5378
18825TIP3   OH277889   3.330   4.612   0.737  0.3945 -0.2830  0.1819
18825TIP3    H177890   3.256   4.599   0.797  0.9213  0.3927  1.0116
18825TIP3    H277891   3.302   4.572   0.655 -0.9243  0.0126  0.4575
18826TIP3   OH277892   4.134   1.107   1.616  0.3452 -0.2134  0.0817
18826TIP3    H177893   4.066   1.073   1.674 -0.2718  1.6788  0.5210
18826TIP3    H277894   4.212   1.113   1.670 -0.1100  1.0966  0.6344
18827TIP3   OH277895   2.046   4.498   4.289 -0.2256  0.2005 -0.1676
18827TIP3    H177896   1.995   4.513   4.209 -1.2204 -0.6401  0.2966
18827TIP3    H277897   2.057   4.403   4.293  0.9112  0.3225  0.0475
18828TIP3   OH277898   4.462   0.850  12.637  0.1806 -0.0527 -0.0373
18828TIP3    H177899   4.438   0.768  12.594  1.0883  0.0485 -0.7718
18828TIP3    H277900   4.537   0.829  12.692 -0.3895  0.0221  0.7849
18829TIP3   OH277901   0.769   4.880   1.435 -0.0501  0.2669  0.6624
18829TIP3    H177902   0.860   4.853   1.445 -0.3781 -1.8330 -1.3183
18829TIP3    H277903   0.745   4.914   1.521  2.6020  0.9829  1.1999
18830TIP3   OH277904   5.671   4.959   6.495  0.8049  0.1164  0.0319
18830TIP3    H177905   5.648   5.052   6.494  1.6801  0.3425 -0.1652
18830TIP3    H277906   5.589   4.914   6.513  0.5470  0.9898  1.1706
18831TIP3   OH277907   3.782   0.691  12.948  0.3818  0.6194  0.2108
18831TIP3    H177908   3.755   0.778  12.978 -0.2689 -0.0084  1.5272
18831TIP3    H277909   3.733   0.630  13.003  2.0101 -0.5816  0.4043
18832TIP3   OH277910   6.575   4.387  15.181 -0.4362  0.3747 -0.3972
18832TIP3    H177911   6.634   4.425  15.117  1.3087 -0.3402  0.6941
18832TIP3    H277912   6.615   4.303  15.203 -2.1426 -0.3724  0.0447
18833TIP3   OH277913   2.585   3.358   1.060  0.4447  0.1161 -0.3391
18833TIP3    H177914   2.645   3.291   1.092 -0.3737 -0.7257 -0.5308
18833TIP3    H277915   2.528   3.377   1.134  1.0794  1.1018 -0.0763
18834TIP3   OH277916   4.647   6.424   3.996 -0.0385 -0.2656  0.3981
18834TIP3    H177917   4.733   6.452   4.028 -0.2426 -0.0952  0.8036
18834TIP3    H277918   4.601   6.394   4.075 -0.5500  0.1647  0.2694
18835TIP3   OH277919   6.705   4.520  13.486 -0.1050  0.4661  0.5285
18835TIP3    H177920   6.716   4.529  13.580  0.6152 -1.8105  0.7254
18835TIP3    H277921   6.628   4.464  13.475  0.7925 -0.7161 -0.1158
18836TIP3   OH277922   6.285   4.345   5.271  0.2048 -0.2611 -0.2738
18836TIP3    H177923   6.252   4.403   5.339  0.1979  2.0200 -2.1194
18836TIP3    H277924   6.210   4.329   5.214  0.3002 -1.8532 -0.0243
18837TIP3   OH277925   2.361   1.512   6.371 -0.1715  0.2246  0.1569
18837TIP3    H177926   2.284   1.495   6.317  0.1333 -2.9849  0.5733
18837TIP3    H277927   2.415   1.434   6.361  1.7127  1.1801  2.1209
18838TIP3   OH277928   0.415   2.054  15.622  0.7980 -0.1029 -0.1347
18838TIP3    H177929   0.345   2.000  15.659  0.2092 -0.1118 -1.2286
18838TIP3    H277930   0.493   1.998  15.627  0.7528 -0.0928  1.0901
18839TIP3   OH277931   1.153   6.026  16.060 -0.0027 -0.0116  0.4316
18839TIP3    H177932   1.206   6.060  16.131  1.4062  1.1767 -1.0983
18839TIP3    H277933   1.112   5.947  16.096  0.9027  0.3645  2.4172
18840TIP3   OH277934   4.254   0.093  16.069 -0.2985 -0.2848  0.2152
18840TIP3    H177935   4.246  -0.001  16.056 -1.8479 -0.3959  1.6080
18840TIP3    H277936   4.348   0.108  16.079  0.0634 -1.4965 -1.1431
18841TIP3   OH277937   5.717   3.172   5.281 -0.4652 -0.0685 -0.2544
18841TIP3    H177938   5.641   3.129   5.242  0.1173 -1.6011  0.1964
18841TIP3    H277939   5.792   3.129   5.238  0.1685  1.7800 -1.0867
18842TIP3   OH277940   1.252   1.532  12.149 -0.4363 -0.4537  0.2647
18842TIP3    H177941   1.212   1.467  12.207 -0.5429 -0.5806  0.0488
18842TIP3    H277942   1.240   1.615  12.194 -1.5939 -0.3857 -0.1349
18843TIP3   OH277943   4.464   2.063   0.005 -0.1549  0.6032 -0.0778
18843TIP3    H177944   4.483   2.157   0.011  0.6487  0.5400 -1.4276
18843TIP3    H277945   4.529   2.028  -0.055 -0.6205 -0.7855  0.1821
18844TIP3   OH277946   5.565   3.919   0.881 -0.1210 -0.6280 -0.3262
18844TIP3    H177947   5.532   3.985   0.819  0.2220 -0.6888 -0.5753
18844TIP3    H277948   5.501   3.848   0.876  1.9891 -2.5461 -3.7994
18845TIP3   OH277949   1.071   2.714   4.341  0.0009 -0.4928 -0.4308
18845TIP3    H177950   1.113   2.692   4.257  0.7612 -0.3077 -0.1091
18845TIP3    H277951   1.077   2.634   4.392  1.5046  0.0099  0.2286
18846TIP3   OH277952   1.775   4.555  17.223  0.2261 -0.4275  0.1370
18846TIP3    H177953   1.755   4.507  17.303  0.7741 -0.5786  0.1859
18846TIP3    H277954   1.860   4.596  17.240 -0.1320  0.3771  0.0083
18847TIP3   OH277955   3.235   2.892   5.259  0.0021  0.3641 -0.3895
18847TIP3    H177956   3.215   2.801   5.238 -0.5150  0.6869 -1.3552
18847TIP3    H277957   3.201   2.904   5.348 -0.8961 -0.0974 -0.6556
18848TIP3   OH277958   4.196   0.039  13.046  0.2303  0.4246  0.1535
18848TIP3    H177959   4.139  -0.003  12.983  1.8530  0.7342 -1.6293
18848TIP3    H277960   4.228   0.118  13.001  1.4294  0.6698  1.3492
18849TIP3   OH277961   3.460   0.090  15.627 -0.1517 -0.1389  0.2458
18849TIP3    H177962   3.391   0.150  15.598 -0.2805 -0.9856 -1.2737
18849TIP3    H277963   3.529   0.148  15.662 -0.0613  0.9489 -1.6270
18850TIP3   OH277964   5.239   3.499  14.117  0.0112 -0.2756  0.6016
18850TIP3    H177965   5.153   3.456  14.111 -0.9866  1.7592 -0.8448
18850TIP3    H277966   5.302   3.430  14.094 -1.3026 -1.5087  0.5484
18851TIP3   OH277967   3.916   1.857  11.184  0.4685  0.2197  0.1053
18851TIP3    H177968   3.830   1.874  11.222  0.5177 -0.2291  0.4233
18851TIP3    H277969   3.907   1.884  11.092 -0.8299 -2.2102 -0.5715
18852TIP3   OH277970   0.885   0.949   3.681  0.2043  0.1406  0.6598
18852TIP3    H177971   0.949   1.021   3.681  0.7380 -0.2885  2.3296
18852TIP3    H277972   0.829   0.966   3.756  0.0556 -0.9242  0.8147
18853TIP3   OH277973   5.502   6.203   4.914 -0.5928  0.6160  0.4713
18853TIP3    H177974   5.500   6.289   4.873 -1.1840  0.8590  1.0111
18853TIP3    H277975   5.506   6.142   4.840  2.1031  1.1374  0.1085
18854TIP3   OH277976   5.984   1.634   1.792  0.7308  0.6072  0.2826
18854TIP3    H177977   5.960   1.727   1.790 -1.1596  0.2178  1.8927
18854TIP3    H277978   5.909   1.589   1.753  0.4712 -0.3943  1.8416
18855TIP3   OH277979   5.575   1.592   2.518 -0.3206  0.0236  0.7814
18855TIP3    H177980   5.506   1.598   2.585  0.3046  1.6189  1.3261
18855TIP3    H277981   5.530   1.557   2.441 -1.1090 -1.6366  1.9365
18856TIP3   OH277982   4.565   3.074  16.044  0.3715  0.3427  0.0182
18856TIP3    H177983   4.538   3.084  16.136 -0.9163 -1.2854 -0.1328
18856TIP3    H277984   4.582   2.980  16.035 -2.0604 -0.0159 -2.0240
18857TIP3   OH277985   6.170   3.622  13.139  0.5081 -0.1866 -0.0141
18857TIP3    H177986   6.255   3.585  13.116  1.7205  1.8958  0.7786
18857TIP3    H277987   6.136   3.565  13.208  1.2424 -1.0528 -0.3484
18858TIP3   OH277988   0.691   5.111   2.937 -0.4196  0.2528  0.6191
18858TIP3    H177989   0.669   5.095   3.029 -2.0456  0.7029  0.3450
18858TIP3    H277990   0.659   5.200   2.920  1.3384  0.8219  0.0234
18859TIP3   OH277991   5.418   2.213  16.909 -0.6445  0.3986  0.1315
18859TIP3    H177992   5.482   2.199  16.839 -0.1071 -0.9444  0.8564
18859TIP3    H277993   5.342   2.251  16.864 -1.0320 -2.1392 -1.5654
18860TIP3   OH277994   2.915   2.476  12.308 -0.9707  0.0120 -0.6101
18860TIP3    H177995   2.857   2.460  12.382  2.5202  0.4214  2.4870
18860TIP3    H277996   2.966   2.395  12.299  1.9153  1.5231  0.7826
18861TIP3   OH277997   0.564   2.499  12.267  0.1813  0.4026 -0.5198
18861TIP3    H177998   0.643   2.504  12.321 -0.3851 -0.5733  0.4350
18861TIP3    H277999   0.587   2.438  12.196 -0.0141 -0.6661  0.3172
18862TIP3   OH278000   6.428   3.759   1.541 -0.5965  0.0781 -0.4305
18862TIP3    H178001   6.359   3.816   1.575 -0.0195 -0.0855  1.0884
18862TIP3    H278002   6.471   3.724   1.619  0.4019 -0.8015 -1.3444
18863TIP3   OH278003   5.631   0.005   4.344  0.0463 -0.5588  0.2079
18863TIP3    H178004   5.617   0.073   4.277  0.8112 -0.1220  0.4736
18863TIP3    H278005   5.592  -0.074   4.307  0.7843 -0.4180 -0.9306
18864TIP3   OH278006   5.848   2.819   4.850  0.2927  0.6791 -0.3050
18864TIP3    H178007   5.759   2.839   4.822 -1.2942 -1.4614  2.7217
18864TIP3    H278008   5.853   2.723   4.849  2.6700  0.7358 -0.5363
18865TIP3   OH278009   2.016   6.010  16.582 -0.3198  0.2088  0.5477
18865TIP3    H178010   1.931   6.043  16.553 -0.4242 -0.1308  0.4594
18865TIP3    H278011   1.998   5.920  16.608  0.1707 -0.1416 -0.2748
18866TIP3   OH278012   2.834   4.567  11.023  0.1906  0.2143  0.7633
18866TIP3    H178013   2.899   4.637  11.031  0.6189 -0.0971  0.1171
18866TIP3    H278014   2.776   4.595  10.953  0.7351 -0.3448  0.0658
18867TIP3   OH278015   3.254   0.772  15.346  0.2366  0.1447  0.3672
18867TIP3    H178016   3.204   0.713  15.289 -1.4334  0.3104  1.5641
18867TIP3    H278017   3.325   0.804  15.292 -0.8286 -0.3064 -1.3777
18868TIP3   OH278018   2.056   1.755   0.231  0.1811  0.5058 -0.5084
18868TIP3    H178019   1.986   1.737   0.169  0.2647 -0.1427 -0.4296
18868TIP3    H278020   2.130   1.704   0.198  1.2520  2.6620 -1.6856
18869TIP3   OH278021   0.852   5.762   6.516  0.4857  0.3775 -0.2605
18869TIP3    H178022   0.772   5.741   6.469  0.8543 -0.4254 -0.5608
18869TIP3    H278023   0.891   5.677   6.536  0.9365  0.7416  0.4437
18870TIP3   OH278024   6.105   0.037   1.975 -0.9174  0.7833 -0.4702
18870TIP3    H178025   6.107   0.131   1.992  0.5242  0.8025 -0.6343
18870TIP3    H278026   6.108   0.030   1.879  1.9835  0.5896 -0.4496
18871TIP3   OH278027   4.172   2.033  11.006  0.7345  0.2224  0.2013
18871TIP3    H178028   4.083   2.069  11.011  0.0167 -1.5124  0.9813
18871TIP3    H278029   4.166   1.964  10.940  1.6880  0.5252 -0.2169
18872TIP3   OH278030   4.592   6.369  13.324 -0.6678 -0.5173 -0.1384
18872TIP3    H178031   4.552   6.431  13.384  0.1885 -0.5150  0.4428
18872TIP3    H278032   4.677   6.350  13.362 -1.3071 -2.8657  0.2956
18873TIP3   OH278033   0.429   1.602   0.978 -0.2022  0.0673 -0.3635
18873TIP3    H178034   0.483   1.567   1.049  0.2675  0.0965 -0.7044
18873TIP3    H278035   0.421   1.695   0.997 -1.6910 -0.2395  0.7023
18874TIP3   OH278036   1.877   2.618   2.791 -0.1770 -0.4539 -0.1623
18874TIP3    H178037   1.875   2.528   2.822 -0.1928 -0.8935 -1.4075
18874TIP3    H278038   1.789   2.635   2.758  0.0729 -0.2857 -0.7614
18875TIP3   OH278039   2.495   0.213  15.620 -0.6803 -0.0088 -0.1779
18875TIP3    H178040   2.568   0.262  15.658  0.2840 -0.0420 -1.8488
18875TIP3    H278041   2.537   0.138  15.578 -1.7597 -0.3801 -0.6234
18876TIP3   OH278042   2.513   0.159   1.537  0.3984 -0.1236 -0.5301
18876TIP3    H178043   2.605   0.135   1.538  0.2589 -0.6956 -0.6774
18876TIP3    H278044   2.492   0.170   1.444 -0.0760 -1.6617 -0.6459
18877TIP3   OH278045   0.734   1.288   3.866 -0.0774  0.8086 -0.0233
18877TIP3    H178046   0.641   1.309   3.877 -0.3266  0.6835 -1.5765
18877TIP3    H278047   0.737   1.239   3.784  1.4574  1.5074 -0.4138
18878TIP3   OH278048   2.080   1.332   7.078  0.3683 -0.1053  0.4787
18878TIP3    H178049   2.052   1.403   7.020  1.1686 -0.1747 -0.0061
18878TIP3    H278050   2.096   1.374   7.162  0.0223  0.1428  0.4231
18879TIP3   OH278051   3.192   3.873   4.488  0.2815 -0.0788  0.0085
18879TIP3    H178052   3.217   3.965   4.483 -0.7446  0.2416  0.4764
18879TIP3    H278053   3.117   3.872   4.547  0.8199 -1.3381  0.7058
18880TIP3   OH278054   6.478   4.521  12.502  0.1524  0.0449 -0.0996
18880TIP3    H178055   6.445   4.609  12.520  3.1644  1.3195 -0.1456
18880TIP3    H278056   6.564   4.535  12.462  0.6591 -2.9406 -0.3255
18881TIP3   OH278057   0.805   5.830   4.167 -0.1766  0.4584 -0.1341
18881TIP3    H178058   0.832   5.750   4.213 -0.0712  0.5328 -0.0669
18881TIP3    H278059   0.816   5.809   4.074 -1.6723 -0.1639 -0.2004
18882TIP3   OH278060   1.580   4.258  16.390  0.0577  0.6830 -0.3115
18882TIP3    H178061   1.655   4.251  16.449 -0.7595 -0.1900  0.6558
18882TIP3    H278062   1.524   4.325  16.430 -0.2350  0.4874 -0.3884
18883TIP3   OH278063   4.282   1.971  12.948 -0.1536 -0.3702 -0.5349
18883TIP3    H178064   4.377   1.975  12.957 -0.1478 -0.8010 -0.3382
18883TIP3    H278065   4.266   1.888  12.902 -0.2978  0.9044 -2.8996
18884TIP3   OH278066   5.355   1.918  10.792 -0.5839 -0.2524  0.3546
18884TIP3    H178067   5.302   1.980  10.741 -0.8934 -0.9497 -0.1965
18884TIP3    H278068   5.333   1.937  10.883  1.2268  2.1606  0.4026
18885TIP3   OH278069   3.925   4.882  13.924 -0.4005  0.7142  0.2561
18885TIP3    H178070   4.005   4.917  13.965 -0.9208 -0.3298  2.2394
18885TIP3    H278071   3.855   4.938  13.957 -0.9474 -0.7209  1.6227
18886TIP3   OH278072   5.962   2.323   3.300  0.1220 -0.5344 -0.2014
18886TIP3    H178073   6.042   2.364   3.268 -0.8343 -0.5048 -2.7477
18886TIP3    H278074   5.909   2.396   3.331  0.2047 -0.3115 -0.5791
18887TIP3   OH278075   5.555   0.350   2.522 -0.0379 -0.1357 -0.1634
18887TIP3    H178076   5.490   0.304   2.575  0.8319 -0.2812  0.7944
18887TIP3    H278077   5.609   0.398   2.585  0.5263  0.3321 -0.9760
18888TIP3   OH278078   5.755   2.528  17.330  0.1299  0.2358 -0.3497
18888TIP3    H178079   5.811   2.589  17.378 -0.1676 -0.4320  0.8921
18888TIP3    H278080   5.763   2.556  17.238  1.6734  0.7987 -0.0905
18889TIP3   OH278081   2.922   6.307  15.207  0.5061 -0.0501  0.3354
18889TIP3    H178082   2.965   6.250  15.270 -0.5027  0.0077  1.1035
18889TIP3    H278083   2.993   6.362  15.172  0.9530  0.5806  2.1342
18890TIP3   OH278084   3.426   1.021  13.205 -0.3906 -0.0620 -0.2295
18890TIP3    H178085   3.383   0.947  13.163 -0.4389  0.2026 -0.6473
18890TIP3    H278086   3.354   1.070  13.246 -0.9673  2.0699 -3.4618
18891TIP3   OH278087   2.654   5.291   5.872  0.1122  0.2940 -0.6112
18891TIP3    H178088   2.598   5.218   5.846  2.1293 -1.7681  0.4818
18891TIP3    H278089   2.644   5.297   5.967 -0.7354  2.1262 -0.7714
18892TIP3   OH278090   3.386   3.171   2.997  0.0773  0.0469 -0.4706
18892TIP3    H178091   3.321   3.221   2.949 -0.3058  0.9969  0.9657
18892TIP3    H278092   3.434   3.236   3.048  0.8650 -0.8414 -0.0355
18893TIP3   OH278093   0.200   1.805  11.010  0.0177 -0.0077 -0.0515
18893TIP3    H178094   0.217   1.872  10.943 -1.7198  0.5936  0.0519
18893TIP3    H278095   0.286   1.765  11.026  0.4033 -0.6203 -3.0734
18894TIP3   OH278096   1.878   0.428  14.216 -0.6124  0.5055  0.3334
18894TIP3    H178097   1.872   0.471  14.131 -0.3444  2.3579  1.1891
18894TIP3    H278098   1.921   0.344  14.199 -0.2024  1.0203 -1.2827
18895TIP3   OH278099   3.238   4.135   0.052 -0.3668  0.0266 -0.3428
18895TIP3    H178100   3.143   4.130   0.040 -0.6932 -0.7163  2.0577
18895TIP3    H278101   3.259   4.062   0.110  1.6154  0.4467 -0.4541
18896TIP3   OH278102   2.034   4.939   1.539 -0.7947 -0.1024  0.4189
18896TIP3    H178103   1.974   4.920   1.467 -0.1313 -2.0282  0.3049
18896TIP3    H278104   2.088   4.860   1.546 -1.0343 -0.1133  3.2482
18897TIP3   OH278105   1.819   6.436  13.181 -0.6212 -0.4584  0.1892
18897TIP3    H178106   1.879   6.378  13.135 -0.2679  1.0494 -1.3008
18897TIP3    H278107   1.732   6.398  13.165 -0.2897 -1.3265  0.3947
18898TIP3   OH278108   5.528   5.117  10.989  0.6258  0.4564 -0.1283
18898TIP3    H178109   5.438   5.110  10.959  0.5087 -1.9440  0.5721
18898TIP3    H278110   5.573   5.165  10.919 -1.4179  2.9566  0.1499
18899TIP3   OH278111   5.147   5.886  12.535  0.0280  0.0319 -0.1340
18899TIP3    H178112   5.194   5.803  12.531 -0.9323 -0.5541  0.3128
18899TIP3    H278113   5.130   5.908  12.443 -0.4005 -0.6801 -0.2326
18900TIP3   OH278114   1.047   4.056  16.199  0.2535  0.2341  0.6789
18900TIP3    H178115   0.955   4.036  16.220  0.5335 -0.1035  1.6278
18900TIP3    H278116   1.043   4.136  16.147 -0.6802 -0.5452 -0.5100
18901TIP3   OH278117   3.076   5.810  14.992  0.1863  0.0240  0.3346
18901TIP3    H178118   3.139   5.864  14.943 -0.7279  0.6454 -0.1858
18901TIP3    H278119   3.016   5.776  14.926  1.7650 -3.1913  0.3654
18902TIP3   OH278120   0.006   3.985   0.259 -0.1954  0.2696 -0.1328
18902TIP3    H178121   0.016   3.913   0.196 -2.3512 -1.0654  0.9155
18902TIP3    H278122  -0.024   3.942   0.339 -0.6815  2.2717  0.8144
18903TIP3   OH278123   5.721   4.847   3.366 -1.0288 -0.2527  0.4422
18903TIP3    H178124   5.722   4.921   3.427  0.4590 -2.3456  3.1849
18903TIP3    H278125   5.628   4.830   3.351 -1.3995  1.6141  0.3873
18904TIP3   OH278126   1.024   1.730   5.062  0.3290 -0.1067  0.2688
18904TIP3    H178127   1.110   1.712   5.022  0.8426  1.3656  0.6369
18904TIP3    H278128   1.009   1.655   5.120  1.9077  0.1290  1.0544
18905TIP3   OH278129   5.781   3.730  15.251  0.3899  0.0510  0.7268
18905TIP3    H178130   5.757   3.822  15.239  1.8649  0.4761  0.9366
18905TIP3    H278131   5.826   3.706  15.171 -0.4696 -0.6745  0.4405
18906TIP3   OH278132   3.658   2.194   3.134 -0.2199  0.0104 -1.0259
18906TIP3    H178133   3.628   2.264   3.191 -2.0896 -1.2278 -0.3750
18906TIP3    H278134   3.752   2.187   3.152  0.0423  2.3546 -1.2004
18907TIP3   OH278135   3.057   1.459   0.595  0.2650 -0.3830 -0.0132
18907TIP3    H178136   2.968   1.427   0.608  0.1539 -1.8644 -3.3692
18907TIP3    H278137   3.053   1.510   0.514  2.3867 -0.1757 -0.0372
18908TIP3   OH278138   1.738   4.421   6.111 -0.3590  0.3322 -0.6415
18908TIP3    H178139   1.667   4.462   6.159  0.8664  0.5219  1.1168
18908TIP3    H278140   1.742   4.331   6.144  0.6814  0.5448 -0.1516
18909TIP3   OH278141   4.384   4.444  13.615  0.0076  0.5102  0.0535
18909TIP3    H178142   4.458   4.476  13.668  1.3526  0.3714 -1.6530
18909TIP3    H278143   4.392   4.349  13.618 -0.2597  0.4861  0.0449
18910TIP3   OH278144   4.533   4.176  12.551  0.2768  0.1676  0.2098
18910TIP3    H178145   4.445   4.158  12.519 -0.0042 -0.1282  1.1397
18910TIP3    H278146   4.565   4.093  12.585  0.5045  0.5081  0.8541
18911TIP3   OH278147   1.495   1.148  13.923 -0.4553 -0.2148 -0.0201
18911TIP3    H178148   1.443   1.077  13.886 -0.8619 -0.3012  0.7032
18911TIP3    H278149   1.507   1.209  13.851 -0.8807 -0.5812 -0.4075
18912TIP3   OH278150   5.933   3.285   0.735 -0.2871  0.3162  0.6154
18912TIP3    H178151   5.930   3.192   0.715  1.0916 -0.1196  2.2187
18912TIP3    H278152   6.009   3.317   0.687 -0.8143  0.6587 -0.0107
18913TIP3   OH278153   1.839   2.785   0.082  0.4111  0.3201 -0.0810
18913TIP3    H178154   1.763   2.821   0.128  0.4853  2.6942 -1.6577
18913TIP3    H278155   1.809   2.773  -0.008  0.5720 -3.3045  0.2018
18914TIP3   OH278156   1.478   1.722  15.548 -0.3015  0.5457 -0.0944
18914TIP3    H178157   1.527   1.641  15.558 -1.4658  0.0401  2.2489
18914TIP3    H278158   1.542   1.791  15.567  0.1957  0.0820 -0.0608
18915TIP3   OH278159   6.721   1.773   2.469 -0.4528 -0.2953  0.7017
18915TIP3    H178160   6.796   1.824   2.438 -0.8784 -0.8354 -1.4415
18915TIP3    H278161   6.760   1.691   2.499 -0.1315 -0.5196 -0.2649
18916TIP3   OH278162   0.882   3.897   4.093 -0.5615  0.5475 -0.1021
18916TIP3    H178163   0.834   3.864   4.016  0.8458 -0.0802 -0.7491
18916TIP3    H278164   0.911   3.818   4.138 -0.4656  0.9202  0.4905
18917TIP3   OH278165   4.091   4.522  16.585  0.0236  0.1390 -0.4128
18917TIP3    H178166   4.019   4.543  16.526  0.8924  1.1964 -1.1440
18917TIP3    H278167   4.138   4.450  16.542 -0.2806 -0.1827 -0.2064
18918TIP3   OH278168   0.081   5.318  12.504 -0.3214 -0.1531 -0.1892
18918TIP3    H178169   0.029   5.381  12.554  0.0998 -1.7421  2.4041
18918TIP3    H278170   0.016   5.266  12.456 -0.9544 -0.2287  0.7175
18919TIP3   OH278171   6.657   6.461  15.133  0.0536 -0.0057 -0.1665
18919TIP3    H178172   6.576   6.503  15.161 -0.8567 -3.0040  2.2515
18919TIP3    H278173   6.724   6.497  15.190 -0.7222 -1.6471  1.9192
18920TIP3   OH278174   6.315   5.242   3.260  0.4182  0.3903  0.1108
18920TIP3    H178175   6.362   5.168   3.220 -1.0908  0.9722 -3.1247
18920TIP3    H278176   6.298   5.214   3.350  1.4690 -2.4228 -0.4441
18921TIP3   OH278177   0.940   3.773   6.789  0.1380 -0.3631  0.3365
18921TIP3    H178178   1.004   3.835   6.823 -0.3635  0.7965 -0.7347
18921TIP3    H278179   0.988   3.724   6.721  0.4082 -0.8681  0.8769
18922TIP3   OH278180   0.749   0.686   6.537 -0.4378  0.4412  0.3788
18922TIP3    H178181   0.705   0.605   6.562 -1.1793  0.6890 -0.0931
18922TIP3    H278182   0.814   0.659   6.472 -1.3824  0.3493 -0.5496
18923TIP3   OH278183   5.212   2.169  15.125 -0.0262  0.0656  0.0068
18923TIP3    H178184   5.281   2.202  15.182  1.7246  0.1346 -1.9953
18923TIP3    H278185   5.151   2.124  15.183  1.2090  0.8127  1.9756
18924TIP3   OH278186   4.930   4.379  16.438  0.4350  0.1618  0.2401
18924TIP3    H178187   4.985   4.365  16.361 -0.3417 -2.0552  0.0035
18924TIP3    H278188   4.909   4.291  16.468 -1.5997  0.9447  1.3211
18925TIP3   OH278189   1.210   2.094   2.198 -0.7292 -0.2266  0.7700
18925TIP3    H178190   1.132   2.144   2.225 -0.0702  2.3032 -1.5557
18925TIP3    H278191   1.180   2.042   2.124 -0.5411 -0.4430  0.8450
18926TIP3   OH278192   6.459   2.187  17.088 -0.1108  0.4636  0.2200
18926TIP3    H178193   6.487   2.278  17.087 -0.1434  0.4711 -0.3774
18926TIP3    H278194   6.369   2.188  17.057  0.4267  0.0782 -1.5254
18927TIP3   OH278195   3.189   1.462   1.982 -0.2949  0.3981  0.1553
18927TIP3    H178196   3.262   1.519   1.958  0.8540 -0.6088  1.0798
18927TIP3    H278197   3.213   1.376   1.947 -0.4797 -0.1941  1.4097
18928TIP3   OH278198   1.225   5.455   0.810  0.1773 -0.1541 -0.1515
18928TIP3    H178199   1.248   5.428   0.899  1.0961 -0.3156 -0.4265
18928TIP3    H278200   1.309   5.458   0.764 -0.1515  1.0766 -0.7074
18929TIP3   OH278201   0.002   0.904  16.019  0.1159 -0.4451 -0.5184
18929TIP3    H178202   0.011   0.820  16.064 -0.5358  0.0989  0.6912
18929TIP3    H278203  -0.072   0.892  15.959  0.6130 -1.0029 -1.0249
18930TIP3   OH278204   3.625   1.037  15.882 -0.0437  0.1820 -0.4614
18930TIP3    H178205   3.560   1.034  15.812 -1.1161 -0.7922  0.5235
18930TIP3    H278206   3.578   1.006  15.959  2.1903 -3.0056 -0.1734
18931TIP3   OH278207   0.422   6.113   2.355 -0.2201 -0.2430  0.0255
18931TIP3    H178208   0.478   6.037   2.362 -2.6155 -1.9947  2.0522
18931TIP3    H278209   0.406   6.141   2.446 -1.9147  0.6556 -0.4868
18932TIP3   OH278210   3.127   3.089   2.320 -0.2696  0.0267 -0.5296
18932TIP3    H178211   3.173   3.123   2.397  1.4098 -1.0414 -1.0016
18932TIP3    H278212   3.042   3.061   2.354  0.3175 -0.1552  0.8914
18933TIP3   OH278213   3.466   3.740   3.674 -0.6250  0.2248  0.5232
18933TIP3    H178214   3.450   3.699   3.589  2.1705  1.6494 -0.7938
18933TIP3    H278215   3.546   3.699   3.706 -0.7383  0.8800  1.7173
18934TIP3   OH278216   2.357   1.344  15.918 -0.0777  0.2701 -0.8321
18934TIP3    H178217   2.375   1.285  15.992  0.5000  0.7360 -0.5853
18934TIP3    H278218   2.268   1.375  15.933  0.1642  0.6440 -0.1236
18935TIP3   OH278219   5.363   4.855   0.018  0.1770 -0.0568 -0.9654
18935TIP3    H178220   5.353   4.948  -0.005  1.6732  0.0033 -1.4791
18935TIP3    H278221   5.336   4.808  -0.061 -0.4290 -0.0644 -0.7591
18936TIP3   OH278222   4.020   4.812   5.806  0.2991 -0.0618 -0.2153
18936TIP3    H178223   3.961   4.770   5.869 -0.0062 -0.9578 -1.0771
18936TIP3    H278224   3.981   4.898   5.791 -1.1775 -0.8776 -1.2646
18937TIP3   OH278225   5.936   5.195  16.388  0.4240  0.5697 -0.0317
18937TIP3    H178226   5.980   5.226  16.467 -0.3212  0.2463  0.5247
18937TIP3    H278227   6.006   5.175  16.327  0.9719  3.0441 -0.3161
18938TIP3   OH278228   2.848   0.152   3.661  0.5198  0.1794  0.1666
18938TIP3    H178229   2.793   0.230   3.664  0.3941  0.1323 -0.7074
18938TIP3    H278230   2.937   0.186   3.650  0.4189  0.2034 -0.6760
18939TIP3   OH278231   6.040   0.761  15.110 -0.2582  0.0177  0.3350
18939TIP3    H178232   6.070   0.836  15.058 -0.7949  0.0186  0.0183
18939TIP3    H278233   5.975   0.798  15.169  0.3778  0.0231  1.0482
18940TIP3   OH278234   3.718   2.483  14.276 -0.4697  0.3528 -0.2971
18940TIP3    H178235   3.704   2.493  14.370 -0.1979 -0.6798 -0.1274
18940TIP3    H278236   3.707   2.389  14.260  0.5130  0.3599 -1.1219
18941TIP3   OH278237   2.596   3.081  11.136 -0.0529 -0.1407 -0.6148
18941TIP3    H178238   2.554   3.103  11.220 -1.2490 -0.2383 -1.1641
18941TIP3    H278239   2.658   3.011  11.157 -0.2777 -0.1007  0.2046
18942TIP3   OH278240   2.496   0.228   5.366  0.3193  0.2759 -0.4898
18942TIP3    H178241   2.409   0.247   5.401 -0.3967 -1.4957 -1.1792
18942TIP3    H278242   2.536   0.314   5.354 -1.1845  1.1174  0.1973
18943TIP3   OH278243   1.766   3.072   0.644  0.0493 -0.3097 -0.5360
18943TIP3    H178244   1.861   3.072   0.639 -0.0010  0.0541 -1.8294
18943TIP3    H278245   1.746   3.110   0.729  1.0639 -1.3218  0.1730
18944TIP3   OH278246   5.719   3.555   3.629 -0.0990  0.3208 -0.1188
18944TIP3    H178247   5.727   3.608   3.708  2.1926  1.4408 -1.0165
18944TIP3    H278248   5.755   3.470   3.653  2.0021  1.1102 -0.2904
18945TIP3   OH278249   6.061   0.567  13.792  0.1882  0.0774  0.0566
18945TIP3    H178250   6.043   0.657  13.818  1.6744  0.2059  0.7261
18945TIP3    H278251   6.152   0.568  13.762  0.8218 -1.5265  1.7176
18946TIP3   OH278252   2.543   5.035  11.951  0.0162 -0.2003 -0.1174
18946TIP3    H178253   2.551   5.129  11.967 -0.6644 -0.0880 -0.3803
18946TIP3    H278254   2.521   4.998  12.037  1.1792 -0.2509  0.1774
18947TIP3   OH278255   6.368   5.764  13.624 -0.0861  0.0184  0.1543
18947TIP3    H178256   6.420   5.805  13.554  0.3228  1.7950  1.4302
18947TIP3    H278257   6.277   5.770  13.592  0.0468  1.2219 -0.0611
18948TIP3   OH278258   4.887   6.101  12.418  0.4531  0.6844 -0.1775
18948TIP3    H178259   4.880   6.103  12.514  1.8320 -0.3830 -0.0162
18948TIP3    H278260   4.909   6.010  12.398 -0.0830  0.8443 -1.5413
18949TIP3   OH278261   4.072   0.696   0.761  0.1594 -0.4078  0.0004
18949TIP3    H178262   4.134   0.731   0.825 -0.1837  0.4924 -0.1451
18949TIP3    H278263   3.988   0.737   0.784 -0.5670 -2.2059  0.6824
18950TIP3   OH278264   2.253   6.607  13.262 -0.0973  0.1960  0.3852
18950TIP3    H178265   2.299   6.566  13.189 -1.0241 -2.0896  0.9766
18950TIP3    H278266   2.163   6.617  13.231 -0.5442 -0.9777  1.2234
18951TIP3   OH278267   0.789   2.164   0.473  0.6148  0.1432  0.1975
18951TIP3    H178268   0.745   2.234   0.425 -2.3544 -1.0694  0.9238
18951TIP3    H278269   0.880   2.169   0.444 -0.2854  1.7179 -2.8222
18952TIP3   OH278270   4.403   6.707  17.349  0.0583  0.0492 -0.4215
18952TIP3    H178271   4.476   6.703  17.288  0.3374  2.1794 -0.3020
18952TIP3    H278272   4.442   6.739  17.431 -1.2485  3.6091 -1.0065
18953TIP3   OH278273   3.565   1.990   3.422  0.2096 -0.0879 -0.6209
18953TIP3    H178274   3.643   2.045   3.432 -1.1240  1.6386  0.7674
18953TIP3    H278275   3.577   1.920   3.486  0.0052  0.9698  0.6110
18954TIP3   OH278276   6.008   3.826  13.911  0.0666 -0.6108  0.2149
18954TIP3    H178277   5.926   3.776  13.914 -0.4353  0.1309 -0.6479
18954TIP3    H278278   5.990   3.899  13.852 -0.0584  2.1079  3.3481
18955TIP3   OH278279   0.491   1.435  16.439  0.2197 -0.0277 -0.2418
18955TIP3    H178280   0.458   1.366  16.497 -0.4734 -0.2022 -0.8282
18955TIP3    H278281   0.432   1.509  16.454 -0.9437 -0.5747 -1.8173
18956TIP3   OH278282   5.070   6.526   3.859 -0.1925  0.4532 -0.0755
18956TIP3    H178283   5.133   6.562   3.921  2.0190 -3.1044  0.0435
18956TIP3    H278284   5.004   6.483   3.914 -1.2317  1.7784 -0.2352
18957TIP3   OH278285   1.834   1.129   1.129  0.4998 -0.4578 -0.4160
18957TIP3    H178286   1.871   1.217   1.131  2.5320 -1.2662  0.7758
18957TIP3    H278287   1.805   1.118   1.039  1.1487  1.0656 -0.8503
18958TIP3   OH278288   5.906   6.492  13.795  0.5408 -0.4128 -0.2717
18958TIP3    H178289   5.851   6.551  13.742  0.3990 -0.9475 -0.7327
18958TIP3    H278290   5.859   6.482  13.877 -0.3470 -1.3080 -0.8711
18959TIP3   OH278291   1.357   2.365  11.263 -0.1126 -0.1621  0.2957
18959TIP3    H178292   1.274   2.336  11.299 -0.1799  0.0504  0.3147
18959TIP3    H278293   1.335   2.396  11.175  0.3521 -2.4763 -0.7107
18960TIP3   OH278294   3.122   0.795  13.835 -0.3639  0.2100  0.3491
18960TIP3    H178295   3.169   0.835  13.762 -0.0074  1.3371  1.1727
18960TIP3    H278296   3.141   0.702  13.828 -0.3219  0.3038 -0.9763
18961TIP3   OH278297   5.404   0.015  16.757  0.0763 -0.0438  0.2937
18961TIP3    H178298   5.341   0.008  16.686  1.2414  1.9595 -1.0001
18961TIP3    H278299   5.472  -0.050  16.736 -0.2188 -0.3511  0.2843
18962TIP3   OH278300   5.986   6.119  17.325  0.0468  0.4878 -0.2557
18962TIP3    H178301   5.992   6.048  17.262  3.1112 -0.1264  0.5435
18962TIP3    H278302   6.019   6.196  17.278 -0.9226  0.8293 -0.3895
18963TIP3   OH278303   1.731   3.542  12.817 -0.0839 -0.3437 -0.3310
18963TIP3    H178304   1.770   3.558  12.731  0.0062  0.9472 -0.0725
18963TIP3    H278305   1.775   3.463  12.848 -0.3373 -1.0113 -1.5864
18964TIP3   OH278306   5.390   4.505   6.926 -0.2036  0.0427 -0.0930
18964TIP3    H178307   5.399   4.557   6.847  0.4012 -0.5689 -0.4380
18964TIP3    H278308   5.436   4.555   6.993 -0.8085  0.6136 -0.0932
18965TIP3   OH278309   2.760   3.848  15.233  0.5655 -0.6034 -0.0841
18965TIP3    H178310   2.850   3.829  15.206  0.7790  0.7951 -0.4252
18965TIP3    H278311   2.760   3.941  15.254 -0.7363 -0.6444  0.2006
18966TIP3   OH278312   1.722   3.303   2.004  0.7300  0.1614  0.3195
18966TIP3    H178313   1.761   3.269   2.085 -0.8754  0.9931  1.5063
18966TIP3    H278314   1.714   3.397   2.019  1.5499  0.5331 -1.3540
18967TIP3   OH278315   4.027   6.710   0.853 -0.1513 -0.2637  0.1300
18967TIP3    H178316   4.045   6.740   0.763 -0.9802 -0.8408 -0.2370
18967TIP3    H278317   4.059   6.781   0.908 -0.3930  0.4706 -0.6518
18968TIP3   OH278318   3.737   5.833  14.830  1.0300  0.2784  1.0021
18968TIP3    H178319   3.776   5.769  14.771  0.3765 -0.1559  1.0336
18968TIP3    H278320   3.647   5.844  14.799  0.7672  0.2708  1.7258
18969TIP3   OH278321   5.750   1.647  12.402  0.0437 -0.1338 -0.2022
18969TIP3    H178322   5.718   1.564  12.439 -1.3861 -0.6775 -2.4645
18969TIP3    H278323   5.672   1.699  12.388  0.7851  0.9938 -0.2964
18970TIP3   OH278324   1.264   1.456  11.579  0.0213 -0.1470 -0.0126
18970TIP3    H178325   1.219   1.422  11.503 -0.5072  0.9189 -0.2024
18970TIP3    H278326   1.330   1.515  11.544  0.2371 -0.1802  0.3295
18971TIP3   OH278327   3.625   5.864   4.574 -0.1303 -0.0749 -0.3221
18971TIP3    H178328   3.684   5.838   4.504  3.1604  2.5972  1.1490
18971TIP3    H278329   3.633   5.795   4.639  1.0437 -0.0226 -0.3840
18972TIP3   OH278330   5.397   4.563   3.576 -0.5230  0.2908  0.8579
18972TIP3    H178331   5.327   4.500   3.590  0.1066 -0.3865  1.0684
18972TIP3    H278332   5.463   4.540   3.642  0.1233  0.5710  0.3196
18973TIP3   OH278333   2.789   1.199   1.502  0.3235  0.5575  0.5008
18973TIP3    H178334   2.879   1.229   1.492  0.2075  0.9136  0.5032
18973TIP3    H278335   2.741   1.276   1.532 -0.3488  0.9032 -1.2857
18974TIP3   OH278336   6.720   2.995  15.322 -0.0021  0.0016 -0.3559
18974TIP3    H178337   6.695   2.905  15.343 -2.4327  0.7959  0.5770
18974TIP3    H278338   6.792   3.015  15.382 -1.2494 -0.4999  1.4158
18975TIP3   OH278339   5.933   4.422   3.504  0.5353  0.5631  0.0755
18975TIP3    H178340   5.988   4.344   3.496 -0.5985 -0.2762  0.2988
18975TIP3    H278341   5.969   4.468   3.580  0.7828 -0.0921  0.3653
18976TIP3   OH278342   4.715   4.064  11.972  0.1323  0.0836 -0.4502
18976TIP3    H178343   4.802   4.102  11.963 -0.4708  1.1297 -2.5628
18976TIP3    H278344   4.704   4.011  11.893 -0.1534 -2.2592  1.0871
18977TIP3   OH278345   0.008   3.121   5.106 -0.3535  0.3421  0.5041
18977TIP3    H178346   0.044   3.049   5.158  0.9179 -0.3855 -1.2780
18977TIP3    H278347   0.082   3.152   5.053 -1.4190  1.5134 -0.3622
18978TIP3   OH278348   0.155   4.478   1.221  0.3895  0.5371  0.5670
18978TIP3    H178349   0.123   4.427   1.296  1.8389 -0.0032  0.8535
18978TIP3    H278350   0.093   4.551   1.214  1.2499  1.7360  3.5784
18979TIP3   OH278351   5.238   2.471  16.288  0.2711  0.3153 -0.3846
18979TIP3    H178352   5.148   2.466  16.319  0.0010 -1.9374 -1.3437
18979TIP3    H278353   5.230   2.502  16.197  0.6163  1.4413 -0.0569
18980TIP3   OH278354   4.446   5.847   1.340  0.8833 -0.1344  0.6788
18980TIP3    H178355   4.379   5.801   1.389 -0.8270  3.0639  1.6105
18980TIP3    H278356   4.500   5.889   1.407  1.5277  0.3411 -0.1215
18981TIP3   OH278357   5.896   6.354   4.979  0.4011 -0.1341  0.0036
18981TIP3    H178358   5.884   6.442   4.944  0.0159 -0.3297 -0.3655
18981TIP3    H278359   5.943   6.307   4.911  0.6912 -0.1900  0.2392
18982TIP3   OH278360   6.341   4.026   3.484 -0.6483 -0.2805  0.1507
18982TIP3    H178361   6.405   3.973   3.437 -1.1699 -2.3270  1.6076
18982TIP3    H278362   6.393   4.093   3.528  0.1135  0.0333 -1.1753
18983TIP3   OH278363   0.160   2.944  15.932  0.0733 -0.3450  0.1074
18983TIP3    H178364   0.158   3.033  15.966 -0.3275 -0.6173  0.8210
18983TIP3    H278365   0.117   2.891  16.000  2.0489 -1.3904  0.6163
18984TIP3   OH278366   2.945   0.961  15.322 -0.2358  0.4364  0.2909
18984TIP3    H178367   2.921   0.982  15.412  1.6413 -0.1983  0.9756
18984TIP3    H278368   2.917   0.870  15.310 -3.0176  1.3162 -0.7534
18985TIP3   OH278369   2.620   1.750   4.432  0.2640 -0.3239 -0.2584
18985TIP3    H178370   2.655   1.665   4.407  0.1104 -0.4427 -0.0727
18985TIP3    H278371   2.689   1.812   4.408  0.4689 -0.5229 -0.1927
18986TIP3   OH278372   4.774   5.303   5.773  0.0408  0.3736 -0.4083
18986TIP3    H178373   4.825   5.252   5.710  1.0028  1.4919 -0.5726
18986TIP3    H278374   4.697   5.249   5.790  1.3726 -1.4812  0.0432
18987TIP3   OH278375   1.261   6.436  17.256  0.9144  0.1780  0.0613
18987TIP3    H178376   1.313   6.361  17.226 -0.2668 -1.5467  2.0953
18987TIP3    H278377   1.320   6.485  17.313  2.8478  2.9273 -3.8152
18988TIP3   OH278378   2.872   1.501   3.512 -0.1583 -0.1594  0.3566
18988TIP3    H178379   2.868   1.580   3.458 -0.4244 -0.1271  0.4251
18988TIP3    H278380   2.785   1.462   3.506  0.0048 -0.5078  0.2351
18989TIP3   OH278381   2.723   4.561  13.499 -0.2970  0.6272  0.0291
18989TIP3    H178382   2.694   4.586  13.411 -0.3222  0.2009 -0.0843
18989TIP3    H278383   2.652   4.587  13.557 -0.2100  1.0580 -0.0581
18990TIP3   OH278384   4.284   4.771  13.527 -0.1768  0.2642 -0.3582
18990TIP3    H178385   4.354   4.785  13.463  0.9354  2.5255  1.2271
18990TIP3    H278386   4.238   4.855  13.530 -0.4029  0.1104  1.5338
18991TIP3   OH278387   2.801   0.485   0.926 -0.0033  0.9247 -0.2360
18991TIP3    H178388   2.717   0.451   0.958  0.8306  1.5788  3.1085
18991TIP3    H278389   2.779   0.565   0.880 -1.2748  0.7951  0.1153
18992TIP3   OH278390   4.348   1.618   4.791 -0.3335  0.1139 -0.4895
18992TIP3    H178391   4.365   1.643   4.700  1.0481  1.0042 -0.0220
18992TIP3    H278392   4.430   1.639   4.837 -0.8001 -0.8712  0.8517
18993TIP3   OH278393   5.298   4.234   2.950  0.0367  0.2438  1.4647
18993TIP3    H178394   5.390   4.231   2.975 -0.1402 -0.5113  2.0534
18993TIP3    H278395   5.299   4.239   2.855  0.6998  1.4764  1.5262
18994TIP3   OH278396   0.277   3.101  15.292 -0.6386 -0.2760  0.4275
18994TIP3    H178397   0.301   3.094  15.200 -0.9526  0.5677  0.2635
18994TIP3    H278398   0.290   3.014  15.328  1.4705 -0.1560  0.0766
18995TIP3   OH278399   5.386   0.849   3.813  0.2127 -0.1604  0.1157
18995TIP3    H178400   5.428   0.851   3.898 -0.0391  1.4766  0.2376
18995TIP3    H278401   5.292   0.841   3.832  0.1352  0.4450  0.0138
18996TIP3   OH278402   2.002   2.117   5.398  0.2019 -0.2452  0.5265
18996TIP3    H178403   2.097   2.125   5.412  1.0625 -0.6440 -3.5952
18996TIP3    H278404   1.969   2.207   5.401  0.5225 -0.1584  2.6343
18997TIP3   OH278405   5.235   2.585   2.955 -0.1020  0.1423 -0.7390
18997TIP3    H178406   5.192   2.533   3.023 -2.6872 -1.0690 -3.1051
18997TIP3    H278407   5.322   2.546   2.947  0.0810 -0.0177  1.4419
18998TIP3   OH278408   4.602   6.459   5.476 -0.0338 -0.0554  0.3125
18998TIP3    H178409   4.538   6.397   5.511  0.6318 -0.0559  1.5998
18998TIP3    H278410   4.668   6.405   5.433  0.0794 -0.1959  0.6554
18999TIP3   OH278411   4.407   4.509  16.781 -0.3056 -0.2307  0.2622
18999TIP3    H178412   4.472   4.511  16.851  0.4655  0.0954 -0.4486
18999TIP3    H278413   4.399   4.416  16.759  1.1857 -0.1681 -0.7613
19000TIP3   OH278414   4.513   0.005   1.322 -0.3072  0.0111  0.5308
19000TIP3    H178415   4.520   0.095   1.292 -0.2287 -0.0695  0.3114
19000TIP3    H278416   4.592  -0.038   1.290  0.6156  0.3312  2.2531
19001TIP3   OH278417   5.404   5.030   3.964 -0.4986  0.6741  0.6219
19001TIP3    H178418   5.404   4.949   3.912  0.0036 -0.0743  1.7560
19001TIP3    H278419   5.313   5.060   3.961 -0.5286  0.5400 -0.4940
19002TIP3   OH278420   0.869   1.707  12.566 -0.0653 -0.3179 -0.0395
19002TIP3    H178421   0.954   1.665  12.560  0.2134  0.4118 -1.6457
19002TIP3    H278422   0.858   1.727  12.659  2.6447  1.8025 -0.0583
19003TIP3   OH278423   4.079   5.621  12.036 -0.0548 -0.3774  0.0826
19003TIP3    H178424   4.035   5.563  11.974  2.0944 -2.8046  0.6746
19003TIP3    H278425   4.061   5.583  12.122  0.7627  0.2927  0.5642
19004TIP3   OH278426   5.357   0.072   5.426 -0.3057 -0.2983 -0.4023
19004TIP3    H178427   5.420   0.005   5.401 -0.6590 -1.3348  1.3124
19004TIP3    H278428   5.347   0.062   5.521 -2.8298  0.0051 -0.5662
19005TIP3   OH278429   4.325   0.623  17.418 -0.3342  0.2301  0.5805
19005TIP3    H178430   4.257   0.682  17.449 -0.3057  1.0938 -0.9241
19005TIP3    H278431   4.405   0.654  17.460 -0.4596  0.7433  0.4422
19006TIP3   OH278432   5.296   3.279   5.917  0.1989  0.2055  0.7417
19006TIP3    H178433   5.327   3.230   5.841 -2.2087  0.1527 -0.2840
19006TIP3    H278434   5.308   3.219   5.991  3.9199  0.7648  0.8068
19007TIP3   OH278435   3.770   3.812  14.259 -0.3979  0.1972 -0.4504
19007TIP3    H178436   3.814   3.882  14.211 -1.5958  1.1363 -0.2213
19007TIP3    H278437   3.817   3.733  14.234  0.9792  1.0667 -0.7340
19008TIP3   OH278438   2.870   1.353  10.891  0.3090 -0.2203 -0.4111
19008TIP3    H178439   2.804   1.352  10.960 -0.4623 -1.9273 -1.1272
19008TIP3    H278440   2.925   1.429  10.912 -1.8153  1.2313  0.2281
19009TIP3   OH278441   4.671   2.695   3.069  0.6476  0.5091  0.6589
19009TIP3    H178442   4.702   2.763   3.010  1.4403 -1.9204 -1.9534
19009TIP3    H278443   4.746   2.637   3.081 -0.7954 -1.5558  0.2012
19010TIP3   OH278444   0.336   6.043   0.149  0.5434 -0.1698  0.8362
19010TIP3    H178445   0.340   6.000   0.064  0.8447  1.1581  0.1442
19010TIP3    H278446   0.427   6.046   0.179  0.5945  0.4209  0.6388
19011TIP3   OH278447   0.833   3.827   2.844  0.1000  0.0326  0.0114
19011TIP3    H178448   0.799   3.807   2.931 -0.7032 -3.3590 -0.9509
19011TIP3    H278449   0.884   3.750   2.819  2.4021  1.9296 -1.6057
19012TIP3   OH278450   2.083   0.306  12.384  0.1557  0.3740 -0.3664
19012TIP3    H178451   2.110   0.249  12.456  1.2358  0.4511 -0.6924
19012TIP3    H278452   2.099   0.253  12.305  1.1205  1.0841 -0.6677
19013TIP3   OH278453   4.847   0.493  14.720 -0.1516 -0.2143 -0.0598
19013TIP3    H178454   4.819   0.535  14.802  1.5070  0.4959  0.1963
19013TIP3    H278455   4.898   0.417  14.748  1.1616  0.5187 -0.3755
19014TIP3   OH278456   4.157   3.567  13.477 -0.4725  1.1094 -0.3788
19014TIP3    H178457   4.252   3.558  13.486 -0.1999  1.9380 -2.0187
19014TIP3    H278458   4.144   3.591  13.385 -2.4774 -1.6560 -0.9280
19015TIP3   OH278459   0.968   2.614  12.638 -0.1357 -0.0759 -0.4497
19015TIP3    H178460   1.026   2.687  12.615  1.0271 -0.8559 -0.1291
19015TIP3    H278461   1.017   2.566  12.705 -0.5957 -1.4832 -1.0909
19016TIP3   OH278462   2.989   3.855  11.457  0.6001  0.2916  0.1710
19016TIP3    H178463   2.964   3.778  11.407  0.6414 -0.2701  0.9858
19016TIP3    H278464   2.920   3.919  11.439  0.5201  0.0372 -0.4482
19017TIP3   OH278465   3.841   3.398  11.303  0.7260 -0.4727  0.1701
19017TIP3    H178466   3.814   3.422  11.214  0.3414 -1.0176  0.1344
19017TIP3    H278467   3.860   3.482  11.346 -0.1157 -0.1320 -0.0968
19018TIP3   OH278468   5.290   4.325  16.467  0.1400 -0.0284 -0.0145
19018TIP3    H178469   5.342   4.253  16.432  0.9982  1.2944 -1.5736
19018TIP3    H278470   5.280   4.386  16.394  0.1466  1.8382  1.4664
19019TIP3   OH278471   2.421   4.618   4.961 -0.4095  0.1049 -0.0827
19019TIP3    H178472   2.514   4.605   4.943 -0.1675  1.6115 -0.0278
19019TIP3    H278473   2.396   4.542   5.014  0.6851 -0.5189 -0.4317
19020TIP3   OH278474   2.868   1.240   0.166 -0.0522  0.1639  0.1425
19020TIP3    H178475   2.802   1.212   0.229  0.5250  2.1941  1.7259
19020TIP3    H278476   2.947   1.193   0.191 -0.4597 -1.1572 -0.8702
19021TIP3   OH278477   1.959   3.776   2.697  0.2698  0.3158  0.2719
19021TIP3    H178478   1.931   3.858   2.737  0.2739 -0.0755  1.0862
19021TIP3    H278479   2.051   3.789   2.676  0.0359  0.8474 -0.4555
19022TIP3   OH278480   2.016   3.163   6.143 -0.3005  0.0507  0.0901
19022TIP3    H178481   1.937   3.144   6.091 -0.8333 -0.8596  1.1901
19022TIP3    H278482   2.086   3.172   6.078 -1.1722  0.1678 -0.8619
19023TIP3   OH278483   1.313   0.422   6.712  0.3352  0.0823  0.1186
19023TIP3    H178484   1.369   0.487   6.753  1.0527 -0.4278 -0.0209
19023TIP3    H278485   1.335   0.427   6.619 -0.2207  0.2295 -0.0051
19024TIP3   OH278486   6.652   1.815   6.447 -1.1126 -0.0929  0.2100
19024TIP3    H178487   6.599   1.742   6.415 -1.6686 -0.2236  1.3946
19024TIP3    H278488   6.742   1.784   6.440 -1.1015  0.2575 -2.1528
19025TIP3   OH278489   6.582   1.078  11.821  0.0416 -0.2490  0.7596
19025TIP3    H178490   6.590   1.142  11.892  3.0359  0.2541  0.0762
19025TIP3    H278491   6.561   1.130  11.744 -1.4100 -0.6052  0.8744
19026TIP3   OH278492   0.345   0.919   4.284  0.0314 -0.0800  0.0430
19026TIP3    H178493   0.357   0.980   4.211 -0.5493 -0.8431 -0.7104
19026TIP3    H278494   0.430   0.918   4.328  0.5205  0.1007 -0.8593
19027TIP3   OH278495   0.276   1.111   0.343 -0.4310  0.3831  0.0412
19027TIP3    H178496   0.321   1.182   0.389 -1.5867  0.6334  0.8164
19027TIP3    H278497   0.249   1.149   0.260 -2.2369  1.3041  1.0040
19028TIP3   OH278498   1.102   2.367  11.367 -0.2065 -0.0833  0.2467
19028TIP3    H178499   1.155   2.369  11.447  0.0837  0.7202  0.0489
19028TIP3    H278500   1.013   2.384  11.397 -0.1302  0.0192  0.4195
19029TIP3   OH278501   4.993   2.255  16.575  0.4500 -0.5758 -0.0589
19029TIP3    H178502   5.029   2.343  16.583  0.8194 -0.4032 -2.6908
19029TIP3    H278503   4.961   2.250  16.485  0.0371 -2.9803  0.1482
19030TIP3   OH278504   5.858   5.480  11.379 -0.0882 -0.1539 -0.3938
19030TIP3    H178505   5.845   5.571  11.406  2.3512  0.0940  0.2000
19030TIP3    H278506   5.865   5.432  11.462 -1.9870 -1.0607 -0.6928
19031TIP3   OH278507   2.060   6.252   4.414  0.2398  0.0386 -0.1814
19031TIP3    H178508   2.030   6.205   4.336  0.2880  0.4438 -0.4512
19031TIP3    H278509   2.130   6.199   4.449 -0.1328 -0.4159 -0.1146
19032TIP3   OH278510   0.303   6.116   3.184  0.4246  0.1357  0.2024
19032TIP3    H178511   0.356   6.142   3.108 -2.0016 -0.4083 -1.8206
19032TIP3    H278512   0.226   6.173   3.180  0.8344  1.0446  3.1590
19033TIP3   OH278513   1.960   2.916  16.572  0.4174 -0.5974  0.3152
19033TIP3    H178514   1.959   2.995  16.626 -0.3033  0.2658 -0.9302
19033TIP3    H278515   1.910   2.852  16.623 -0.3175  0.2152  0.6346
19034TIP3   OH278516   3.247   3.172   2.552 -0.0266 -0.2722 -0.2010
19034TIP3    H178517   3.312   3.231   2.589 -1.1746  0.2460  1.0782
19034TIP3    H278518   3.163   3.213   2.572 -0.7616  0.0885 -3.5310
19035TIP3   OH278519   6.706   5.164  11.924  0.3484  0.5841 -0.2167
19035TIP3    H178520   6.761   5.239  11.899 -0.2485  1.1459  0.1179
19035TIP3    H278521   6.769   5.096  11.949  0.9295  1.6670  1.5099
19036TIP3   OH278522   4.667   1.141   4.371  0.4038  0.7144 -0.1653
19036TIP3    H178523   4.607   1.145   4.296  0.0392  0.1929  0.0856
19036TIP3    H278524   4.710   1.056   4.362  1.7830  1.4613 -0.8346
19037TIP3   OH278525   5.251   4.719   3.161  0.1294 -0.2349  0.6804
19037TIP3    H178526   5.233   4.628   3.184 -2.0900 -0.9700 -3.0265
19037TIP3    H278527   5.172   4.766   3.186  0.6569  0.3949  1.1913
19038TIP3   OH278528   0.723   5.358   6.496 -0.3398 -0.1609 -0.6660
19038TIP3    H178529   0.729   5.277   6.547 -1.0094 -0.3886 -0.9428
19038TIP3    H278530   0.808   5.366   6.452 -1.3334 -2.4678 -3.2703
19039TIP3   OH278531   2.771   0.944   4.579 -0.3635  0.8202  0.0270
19039TIP3    H178532   2.753   0.936   4.486  2.1273 -1.9528 -0.3634
19039TIP3    H278533   2.706   0.888   4.622  1.0018 -1.2806 -0.5014
19040TIP3   OH278534   6.203   3.658  13.919  0.2262  0.0818  0.4511
19040TIP3    H178535   6.145   3.729  13.893 -0.0585 -0.1760  0.3727
19040TIP3    H278536   6.258   3.642  13.842 -0.8341 -0.9008 -0.1314
19041TIP3   OH278537   4.400   2.111   5.232  0.4485 -0.0412 -0.0204
19041TIP3    H178538   4.397   2.017   5.251  1.0383 -0.1246 -0.3377
19041TIP3    H278539   4.344   2.122   5.155 -1.8011  0.2705  1.5411
19042TIP3   OH278540   0.283   4.007  15.025 -0.1121  0.3110  0.2341
19042TIP3    H178541   0.326   3.966  14.950 -0.5735  1.8167 -0.9063
19042TIP3    H278542   0.306   3.951  15.100  2.2858  0.0581 -0.6226
19043TIP3   OH278543   4.256   6.008   2.489 -0.3616  0.1638  0.7047
19043TIP3    H178544   4.231   6.099   2.474 -1.0913 -0.1960 -0.4088
19043TIP3    H278545   4.200   5.978   2.561 -1.1305  0.2048  0.1395
19044TIP3   OH278546   1.401   5.688  12.773 -0.2428 -0.5287  0.3330
19044TIP3    H178547   1.406   5.626  12.700 -1.5288 -1.0472  0.6624
19044TIP3    H278548   1.419   5.774  12.733 -1.0626 -0.7867 -0.6202
19045TIP3   OH278549   4.140   0.727  12.561 -0.6173  0.1745 -0.0540
19045TIP3    H178550   4.058   0.708  12.607 -0.9872  1.0173 -0.3464
19045TIP3    H278551   4.116   0.727  12.468 -0.0302 -0.7567 -0.2172
19046TIP3   OH278552   2.546   5.435  12.949 -0.1023 -0.0602 -0.3214
19046TIP3    H178553   2.462   5.440  12.903 -0.2085  1.1443 -0.0214
19046TIP3    H278554   2.531   5.484  13.030  0.7227 -0.3466  0.0083
19047TIP3   OH278555   2.465   1.660   0.693 -0.6992  0.0083  0.4233
19047TIP3    H178556   2.467   1.743   0.645  2.1848 -0.1523  0.0881
19047TIP3    H278557   2.437   1.596   0.629 -1.3667  0.4655  0.2451
19048TIP3   OH278558   2.923   4.769   0.816 -0.0952  0.6123 -0.3586
19048TIP3    H178559   2.895   4.727   0.735 -0.1066 -0.3764  0.1308
19048TIP3    H278560   2.902   4.705   0.884  1.9053  0.4750  0.1975
19049TIP3   OH278561   5.107   3.219   6.288 -0.4429 -0.1073 -0.3433
19049TIP3    H178562   5.168   3.206   6.216 -1.1263  2.9264 -1.5985
19049TIP3    H278563   5.158   3.263   6.356 -0.3279 -1.1091  0.2532
19050TIP3   OH278564   5.702   5.569   2.788  0.5424 -0.6502  1.0205
19050TIP3    H178565   5.779   5.538   2.836  2.3125  1.3572 -0.3588
19050TIP3    H278566   5.704   5.664   2.797 -0.5112 -0.3949 -0.8681
19051TIP3   OH278567   0.993   4.445   6.200 -0.0116 -0.1493  0.1111
19051TIP3    H178568   0.948   4.508   6.143 -0.8216 -1.4116 -0.7061
19051TIP3    H278569   1.086   4.467   6.192 -0.1358 -0.0560 -1.4393
19052TIP3   OH278570   4.149   5.550   6.419  0.4535 -0.0985 -0.3164
19052TIP3    H178571   4.176   5.474   6.368  3.5690  0.5964  0.1349
19052TIP3    H278572   4.115   5.612   6.354 -0.4175 -1.1309 -0.8806
19053TIP3   OH278573   1.345   6.174  17.214  0.2781 -0.1867 -0.0281
19053TIP3    H178574   1.438   6.157  17.234  0.1222 -0.5862  0.3978
19053TIP3    H278575   1.298   6.109  17.266 -0.2048 -0.5701 -0.9248
19054TIP3   OH278576   4.873   2.851  14.203 -0.1012  0.3539  0.2833
19054TIP3    H178577   4.831   2.876  14.285 -0.4942 -0.6056  0.3865
19054TIP3    H278578   4.967   2.852  14.223 -0.1256  1.2309  0.4135
19055TIP3   OH278579   0.175   5.582   5.160 -0.3492 -0.0186 -0.3266
19055TIP3    H178580   0.202   5.576   5.252  1.7643  0.9469 -0.8382
19055TIP3    H278581   0.117   5.659   5.157 -0.9254 -0.4185  0.2870
19056TIP3   OH278582   4.846   3.245  15.724  0.3543 -0.1053 -0.0073
19056TIP3    H178583   4.851   3.158  15.764  0.9208  0.0766  0.3151
19056TIP3    H278584   4.777   3.290  15.773 -0.1062 -0.4467 -0.3276
19057TIP3   OH278585   4.959   4.086   3.608 -0.0362 -0.3389  0.3282
19057TIP3    H178586   5.028   4.020   3.609  0.6806  0.3919  1.4588
19057TIP3    H278587   4.933   4.096   3.700 -1.2000 -0.1320 -0.0023
19058TIP3   OH278588   0.293   0.828  12.582 -0.5394  0.2684  0.6770
19058TIP3    H178589   0.292   0.767  12.508  2.3548 -0.2973  1.0018
19058TIP3    H278590   0.292   0.915  12.541 -0.1188 -0.0329  0.0009
19059TIP3   OH278591   1.519   5.348   5.549 -0.2512  0.2238  0.2775
19059TIP3    H178592   1.494   5.316   5.636 -0.1937  0.8537  0.5293
19059TIP3    H278593   1.601   5.395   5.563 -0.7219  1.1413  0.0571
19060TIP3   OH278594   1.602   5.715   0.525  0.3622  0.0228  0.1275
19060TIP3    H178595   1.526   5.679   0.479  0.2861  0.5906 -0.2052
19060TIP3    H278596   1.639   5.779   0.464  2.1237 -1.4391 -0.3940
19061TIP3   OH278597   6.473   1.642  13.912 -0.3106  0.8232  0.3322
19061TIP3    H178598   6.440   1.562  13.871  1.6441  0.0104  0.2669
19061TIP3    H278599   6.409   1.661  13.981 -1.2229 -0.3412 -0.1556
19062TIP3   OH278600   0.261   0.111  14.107 -0.1296 -0.4216  0.1870
19062TIP3    H178601   0.351   0.081  14.121  0.3271  0.8022 -0.0878
19062TIP3    H278602   0.228   0.129  14.195  0.9081  1.9624  0.1552
19063TIP3   OH278603   6.137   6.391  11.560  0.5005 -1.2071 -0.0004
19063TIP3    H178604   6.105   6.457  11.498  0.2367 -1.7970 -0.4997
19063TIP3    H278605   6.085   6.406  11.639  0.4986 -0.7657 -0.0821
19064TIP3   OH278606   1.418   2.345  17.124  0.0985  0.2152 -0.4359
19064TIP3    H178607   1.449   2.261  17.157  1.2058  0.4725 -0.7654
19064TIP3    H278608   1.340   2.364  17.176 -0.3797 -1.1681 -0.6027
19065TIP3   OH278609   0.526   5.337  13.079  0.0601  0.5107  0.4928
19065TIP3    H178610   0.614   5.300  13.073 -0.4500 -0.8715  1.1736
19065TIP3    H278611   0.498   5.316  13.168  0.3586  4.0265  1.5931
19066TIP3   OH278612   3.709   2.474  13.189 -0.0688 -0.0382  0.0403
19066TIP3    H178613   3.639   2.452  13.251 -1.5833  2.5092 -0.6202
19066TIP3    H278614   3.673   2.451  13.103 -0.1978  1.3855 -0.3137
19067TIP3   OH278615   3.698   2.732   4.137  0.3276  0.3413 -0.0458
19067TIP3    H178616   3.787   2.705   4.157 -0.3177 -1.1754  0.9505
19067TIP3    H278617   3.688   2.713   4.044  1.9820  3.4351 -0.9744
19068TIP3   OH278618   0.703   5.042  14.824  0.4499 -0.1838 -0.1307
19068TIP3    H178619   0.712   5.137  14.829 -0.3027 -0.1416  0.8159
19068TIP3    H278620   0.780   5.008  14.869 -0.3159  0.0419  1.4440
19069TIP3   OH278621   3.712   0.684   0.512 -0.2690  0.1588  0.0113
19069TIP3    H178622   3.793   0.667   0.465 -0.7899 -0.4271 -0.6987
19069TIP3    H278623   3.681   0.597   0.538 -0.3525  0.4247  0.8283
19070TIP3   OH278624   1.859   5.468   3.009  0.2228 -0.4247 -0.2473
19070TIP3    H178625   1.866   5.519   2.928  0.0959 -3.3666 -2.2768
19070TIP3    H278626   1.798   5.398   2.987  1.3259 -2.1861  1.9603
19071TIP3   OH278627   6.041   0.882  11.360 -0.2477  0.5496 -0.4202
19071TIP3    H178628   6.009   0.955  11.413  0.1885 -0.1836  0.8952
19071TIP3    H278629   6.100   0.922  11.296  0.0591  1.3506  0.3441
19072TIP3   OH278630   5.563   2.689  16.784 -0.1074 -0.0326  0.0841
19072TIP3    H178631   5.626   2.760  16.791 -0.8283  0.6680 -0.2961
19072TIP3    H278632   5.500   2.719  16.718 -0.7675 -0.7574  0.3630
19073TIP3   OH278633   4.533   1.614  13.504  0.2854  0.3164  0.6054
19073TIP3    H178634   4.490   1.590  13.586  1.1969  1.0883  1.3511
19073TIP3    H278635   4.585   1.537  13.481  3.5298  1.4683  3.1989
19074TIP3   OH278636   1.610   3.069  17.349  0.3126  0.1777 -0.1526
19074TIP3    H178637   1.516   3.053  17.358 -0.0042  1.1685 -1.4318
19074TIP3    H278638   1.624   3.080  17.255  1.7504 -0.1186 -0.0033
19075TIP3   OH278639   6.681   2.355  14.880 -0.0795  0.4294 -0.0052
19075TIP3    H178640   6.649   2.332  14.793 -1.1261  0.0242  0.4605
19075TIP3    H278641   6.776   2.354  14.872 -0.1525 -0.0561 -1.0267
19076TIP3   OH278642   0.617   6.588   4.060  0.1284 -0.2559  0.3092
19076TIP3    H178643   0.657   6.535   3.990  0.6691 -1.5201  1.5390
19076TIP3    H278644   0.593   6.525   4.127 -3.0299  0.5712  0.1008
19077TIP3   OH278645   2.922   4.638   3.035 -0.1338  0.6245  0.4005
19077TIP3    H178646   2.839   4.634   2.987 -0.5321  0.2148  1.1133
19077TIP3    H278647   2.954   4.548   3.037  0.5536  0.8433 -0.2417
19078TIP3   OH278648   2.202   5.723  10.854  0.6124 -0.2587  0.6111
19078TIP3    H178649   2.219   5.681  10.769  1.1727  1.8178 -0.3594
19078TIP3    H278650   2.288   5.725  10.896  1.3864  2.8593 -0.8220
19079TIP3   OH278651   3.574   2.057  15.327  0.5865 -0.0901  0.5394
19079TIP3    H178652   3.629   2.069  15.404 -0.1587  2.4396  0.7609
19079TIP3    H278653   3.597   2.130  15.270 -0.8442 -0.3517 -0.4066
19080TIP3   OH278654   5.941   3.386   2.818 -0.7214 -0.5030 -0.4063
19080TIP3    H178655   5.970   3.295   2.821  0.2044 -0.1856  0.8845
19080TIP3    H278656   5.845   3.381   2.824 -0.7181 -1.3948 -0.9228
19081TIP3   OH278657   2.040   5.903   4.457  0.3945  0.7603 -0.6638
19081TIP3    H178658   1.968   5.941   4.508 -0.6325 -0.4837 -1.1552
19081TIP3    H278659   2.117   5.950   4.489  0.3878 -1.8735  4.2964
19082TIP3   OH278660   6.630   1.226  13.627  0.1704  0.5688  0.4480
19082TIP3    H178661   6.566   1.185  13.685  0.0646  1.4601  0.9837
19082TIP3    H278662   6.690   1.271  13.686  0.8192  0.4223 -0.0894
19083TIP3   OH278663   6.019   5.431   3.156  0.2163 -0.4793  0.2134
19083TIP3    H178664   6.048   5.512   3.198  1.2305 -0.2915 -0.7978
19083TIP3    H278665   5.923   5.437   3.155  0.2373  0.1486  1.2071
19084TIP3   OH278666   3.424   2.912  12.548 -0.0568  0.1144  0.2839
19084TIP3    H178667   3.518   2.931  12.552 -0.1511  0.3687  2.3848
19084TIP3    H278668   3.418   2.818  12.565 -0.2628  0.5404  3.0721
19085TIP3   OH278669   2.420   6.340   6.932  0.3559  0.4327 -0.5253
19085TIP3    H178670   2.357   6.346   7.004 -0.5116 -1.6170 -1.0515
19085TIP3    H278671   2.397   6.413   6.874 -0.2229  0.9141  0.2901
19086TIP3   OH278672   0.214   0.551   5.445  0.0492 -0.2023 -0.1704
19086TIP3    H178673   0.290   0.521   5.495  0.5375 -2.4027 -2.0463
19086TIP3    H278674   0.250   0.608   5.378 -0.0790 -0.3327 -0.3520
19087TIP3   OH278675   4.025   3.572  12.469 -0.2252 -0.1113 -0.2114
19087TIP3    H178676   3.954   3.626  12.506  0.0868 -1.1665  2.1378
19087TIP3    H278677   4.105   3.610  12.506  0.1587 -0.8829 -0.2373
19088TIP3   OH278678   3.220   0.558  14.918  0.0175 -0.6841  0.2040
19088TIP3    H178679   3.225   0.463  14.928  0.2192 -0.9520 -1.9559
19088TIP3    H278680   3.157   0.571  14.847 -0.2790  0.8237  0.7162
19089TIP3   OH278681   4.403   5.664   6.661 -0.6458  0.2135  0.0107
19089TIP3    H178682   4.366   5.576   6.663 -1.4786  0.5621  0.2211
19089TIP3    H278683   4.483   5.657   6.713 -1.2009 -0.2121  0.8367
19090TIP3   OH278684   5.554   5.287   3.259  0.3679 -0.4249  0.3411
19090TIP3    H178685   5.501   5.254   3.187  1.7298 -0.0900 -0.8392
19090TIP3    H278686   5.626   5.225   3.267  1.0873  0.3944  0.3581
19091TIP3   OH278687   3.052   3.382  15.758  0.2153 -0.0349 -0.7629
19091TIP3    H178688   2.994   3.370  15.833  0.0635  1.0822 -0.6835
19091TIP3    H278689   3.121   3.318  15.771 -0.0715 -0.1890  0.0751
19092TIP3   OH278690   0.845   0.203   4.913 -0.1110 -0.4159 -0.6155
19092TIP3    H178691   0.912   0.180   4.848 -0.6751 -1.5242 -0.8295
19092TIP3    H278692   0.891   0.197   4.997  1.0368  2.5082 -0.9288
19093TIP3   OH278693   4.962   4.875   4.994 -0.5663 -0.3923 -0.0119
19093TIP3    H178694   4.944   4.834   5.078 -3.7017 -0.1734 -0.4487
19093TIP3    H278695   5.005   4.806   4.942 -0.5308 -1.2114  1.0665
19094TIP3   OH278696   4.006   4.376  11.190  0.4721 -0.0537  0.6503
19094TIP3    H178697   3.940   4.385  11.122  1.2756  1.6668  0.0447
19094TIP3    H278698   4.016   4.464  11.226  3.1170 -0.0063  0.0147
19095TIP3   OH278699   0.402   0.535  13.454 -0.2063  0.1320 -0.3676
19095TIP3    H178700   0.344   0.608  13.472 -1.3482 -1.0028  0.7276
19095TIP3    H278701   0.462   0.568  13.387 -0.7056  2.0349  0.0675
19096TIP3   OH278702   5.515   2.987   5.117  0.9576  0.2061  0.6501
19096TIP3    H178703   5.465   3.064   5.090 -0.6486 -0.9312  0.2583
19096TIP3    H278704   5.600   2.998   5.073  1.0219  2.0493  1.1206
19097TIP3   OH278705   0.312   2.167  12.810  0.1346  0.2801  0.2723
19097TIP3    H178706   0.244   2.234  12.800 -0.9550 -0.8113  0.1707
19097TIP3    H278707   0.316   2.123  12.725 -0.0259 -0.5706  0.6930
19098TIP3   OH278708   6.516   0.449   3.851 -0.5021  0.1050  0.0176
19098TIP3    H178709   6.599   0.440   3.899 -0.6944 -0.0533  0.3288
19098TIP3    H278710   6.512   0.541   3.826  0.2553 -0.0969 -0.9044
19099TIP3   OH278711   4.122   2.402   2.869  0.1375  0.4810 -0.3887
19099TIP3    H178712   4.192   2.369   2.814 -0.6581  0.7927 -1.6201
19099TIP3    H278713   4.087   2.325   2.914  1.2420  0.3248  0.2464
19100TIP3   OH278714   2.306   1.693  17.273 -0.1653 -0.1268 -0.1826
19100TIP3    H178715   2.241   1.660  17.334 -1.0027  0.9368 -0.4764
19100TIP3    H278716   2.390   1.669  17.312 -0.6919 -0.0121  1.0705
19101TIP3   OH278717   3.431   1.567  11.508 -0.4994  0.6902 -0.0630
19101TIP3    H178718   3.372   1.524  11.571  0.8921  0.8596  1.4237
19101TIP3    H278719   3.469   1.495  11.458 -2.6342  0.6233 -1.7495
19102TIP3   OH278720   1.296   4.169   1.789 -0.2025 -0.3493  0.8208
19102TIP3    H178721   1.375   4.116   1.777  0.2782  0.6346 -0.6014
19102TIP3    H278722   1.224   4.107   1.782  0.3978 -1.0524  0.7595
19103TIP3   OH278723   1.142   5.501  16.445  0.5689 -0.1049  0.7929
19103TIP3    H178724   1.053   5.473  16.426 -0.3657  1.3192  2.6822
19103TIP3    H278725   1.176   5.532  16.362 -1.0298  0.1850  0.2150
19104TIP3   OH278726   0.272   6.021  11.862 -0.2612 -0.2466  0.7172
19104TIP3    H178727   0.362   6.004  11.833 -0.4328  3.2129 -2.5667
19104TIP3    H278728   0.220   6.018  11.782 -2.5701  0.7475  2.0840
19105TIP3   OH278729   4.294   1.600   0.346 -0.0883  0.1070  0.2716
19105TIP3    H178730   4.350   1.606   0.424  0.2604 -1.6571  0.1885
19105TIP3    H278731   4.209   1.633   0.375  0.8531  2.6094  0.4715
19106TIP3   OH278732   3.054   2.869   3.978 -0.4173 -0.0558  0.1554
19106TIP3    H178733   3.041   2.779   4.007  0.5715 -0.1737  0.2566
19106TIP3    H278734   3.114   2.863   3.904 -0.2664  0.5205  0.2212
19107TIP3   OH278735   1.406   4.759  14.546 -0.0446  0.2027 -0.1665
19107TIP3    H178736   1.407   4.852  14.567 -0.5358  0.8032 -2.4503
19107TIP3    H278737   1.482   4.723  14.591 -0.1035  1.5953  1.1221
19108TIP3   OH278738   5.808   2.045  16.566  0.1833  0.1268 -0.0292
19108TIP3    H178739   5.865   1.969  16.573  0.7465  0.4704 -0.7984
19108TIP3    H278740   5.755   2.043  16.646 -0.1702 -1.3546 -0.2809
19109TIP3   OH278741   1.287   4.928   6.806  0.0087 -0.1275  0.3675
19109TIP3    H178742   1.247   4.922   6.720 -0.2321 -1.0039  0.5296
19109TIP3    H278743   1.223   4.977   6.859  0.2957  0.6792 -0.0225
19110TIP3   OH278744   6.409   2.401  13.669  0.5844 -0.1107  0.0598
19110TIP3    H178745   6.423   2.388  13.763  2.1250 -0.9620 -0.2614
19110TIP3    H278746   6.405   2.496  13.659  1.3564  0.0177  0.8661
19111TIP3   OH278747   2.229   5.172   1.184 -0.1137 -0.1948  0.3574
19111TIP3    H178748   2.280   5.091   1.188 -0.7793 -0.9008 -2.5887
19111TIP3    H278749   2.138   5.144   1.189 -0.3243  0.6146  1.3485
19112TIP3   OH278750   5.758   2.206  13.992 -0.4085 -0.2844  0.1071
19112TIP3    H178751   5.675   2.230  14.033 -0.2017 -0.7228  0.7955
19112TIP3    H278752   5.820   2.273  14.023 -0.7758  0.8750 -1.5088
19113TIP3   OH278753   1.534   5.156   1.038 -0.3072  0.3145  0.0109
19113TIP3    H178754   1.438   5.156   1.044 -0.4118  0.3047 -1.2862
19113TIP3    H278755   1.553   5.094   0.967  0.5047  2.0467 -1.3690
19114TIP3   OH278756   4.126   0.681  11.544  0.1897  0.2173  0.0542
19114TIP3    H178757   4.217   0.651  11.543  0.2008  0.2523 -1.6579
19114TIP3    H278758   4.130   0.767  11.586  0.7761 -0.2074  0.9131
19115TIP3   OH278759   3.884   5.067   2.835 -0.1788  0.2668 -0.2285
19115TIP3    H178760   3.973   5.104   2.836 -0.0770  0.0238 -0.3514
19115TIP3    H278761   3.828   5.143   2.852  0.0667  0.3726  0.1506
19116TIP3   OH278762   0.820   5.278  14.625 -0.2948  0.4203  0.3228
19116TIP3    H178763   0.913   5.297  14.635 -0.3155 -0.0022  1.5457
19116TIP3    H278764   0.805   5.276  14.530  0.9119  0.6070  0.1196
19117TIP3   OH278765   5.707   0.255  16.647  0.9434  0.9527 -0.0864
19117TIP3    H178766   5.616   0.273  16.671  1.0441  0.4722  0.7075
19117TIP3    H278767   5.702   0.175  16.594  0.8148  1.4675 -0.8613
19118TIP3   OH278768   6.573   3.518  17.248  0.0104  0.0843  0.0545
19118TIP3    H178769   6.558   3.612  17.250 -1.0595 -0.0769  1.5129
19118TIP3    H278770   6.559   3.492  17.157  1.0609  1.4133 -0.5168
19119TIP3   OH278771   5.089   0.598   2.364 -0.2319 -0.0397 -0.2554
19119TIP3    H178772   5.062   0.565   2.278 -1.9353 -0.5744  0.4352
19119TIP3    H278773   5.168   0.549   2.385 -0.9296 -1.3765 -0.6563
19120TIP3   OH278774   2.802   4.433  15.069 -0.2738  0.1956 -0.5122
19120TIP3    H178775   2.784   4.521  15.036  0.2634  0.5686  0.1724
19120TIP3    H278776   2.871   4.445  15.134 -1.8277 -0.3986  1.3488
19121TIP3   OH278777   5.904   5.722   0.921 -0.0914 -0.2648 -0.6745
19121TIP3    H178778   5.915   5.629   0.942 -2.4946 -0.2743  0.8880
19121TIP3    H278779   5.971   5.766   0.974  0.6098 -1.0336 -0.8983
19122TIP3   OH278780   5.097   0.174  11.448 -0.2302  0.6263  0.1006
19122TIP3    H178781   5.014   0.198  11.489  0.1362  0.8612  0.7154
19122TIP3    H278782   5.163   0.219  11.500  0.3249 -0.0886  0.0267
19123TIP3   OH278783   4.796   3.285  17.488 -0.1215 -0.6811 -0.6618
19123TIP3    H178784   4.886   3.273  17.457 -1.1385 -1.0016 -3.7410
19123TIP3    H278785   4.771   3.372  17.456 -0.4202  0.1696  1.6746
19124TIP3   OH278786   2.691   2.366  14.002  0.9610  0.3104 -0.1934
19124TIP3    H178787   2.644   2.354  14.085  0.1476  0.4701 -0.6126
19124TIP3    H278788   2.757   2.297  14.001  0.5953 -0.0583  0.3210
19125TIP3   OH278789   5.666   3.555  15.442 -0.5800 -0.1242  0.4000
19125TIP3    H178790   5.573   3.568  15.423  0.1432  0.0725 -4.1179
19125TIP3    H278791   5.711   3.597  15.369  3.1988  0.7228  2.9292
19126TIP3   OH278792   6.491   5.164   5.652  0.2475 -0.3838 -0.3052
19126TIP3    H178793   6.428   5.098   5.624 -1.7526  0.1851  2.4312
19126TIP3    H278794   6.500   5.151   5.746  1.3229  1.9491 -0.0041
19127TIP3   OH278795   0.354   1.183  16.985 -0.0547  0.0695 -0.2594
19127TIP3    H178796   0.320   1.115  17.043  1.6356 -1.3178 -0.7872
19127TIP3    H278797   0.423   1.139  16.935  0.9674  2.1269 -0.7731
19128TIP3   OH278798   1.760   2.549  12.757  0.5116  0.5013  0.5062
19128TIP3    H178799   1.776   2.642  12.775  1.7536  0.8883 -2.1771
19128TIP3    H278800   1.692   2.549  12.690 -1.4336 -0.7113  2.3577
19129TIP3   OH278801   1.846   4.427   4.698 -0.5126  0.0341  0.2737
19129TIP3    H178802   1.762   4.398   4.662 -0.7904  1.0805  0.0343
19129TIP3    H278803   1.823   4.470   4.780  0.0086 -1.3662  1.1878
19130TIP3   OH278804   0.355   5.936  16.867  0.0718  0.6278  0.0797
19130TIP3    H178805   0.347   5.867  16.932 -1.9233 -1.0605 -1.7904
19130TIP3    H278806   0.283   5.996  16.888  0.3281  0.8619  0.2902
19131TIP3   OH278807   0.210   6.499   3.870  0.4792  0.0031  0.4806
19131TIP3    H178808   0.206   6.593   3.850 -1.6812  0.0535  0.8953
19131TIP3    H278809   0.159   6.458   3.800  0.1018 -0.6944  1.1509
19132TIP3   OH278810   5.110   2.449  11.860  0.8238 -0.2184 -0.0966
19132TIP3    H178811   5.169   2.425  11.932  1.1931 -0.9428 -0.6338
19132TIP3    H278812   5.125   2.382  11.793  1.0383  0.8526 -1.1564
19133TIP3   OH278813   2.725   2.662  10.973 -0.2849 -1.0070  0.2479
19133TIP3    H178814   2.716   2.706  11.058  0.7247 -2.9177  1.4215
19133TIP3    H278815   2.811   2.620  10.977 -0.3699 -1.4428 -1.6041
19134TIP3   OH278816   2.850   4.312  12.878 -0.0486  0.2278  0.5137
19134TIP3    H178817   2.925   4.310  12.818 -0.3908  0.2840  0.0830
19134TIP3    H278818   2.773   4.307  12.822 -0.3587 -1.4128  1.0393
19135TIP3   OH278819   1.346   3.673   3.256 -0.3940  0.4348  0.0237
19135TIP3    H178820   1.382   3.600   3.306  1.9181  1.4344 -0.0458
19135TIP3    H278821   1.401   3.677   3.177 -1.2688  1.5060 -0.5593
19136TIP3   OH278822   5.224   3.647   3.257 -0.0502  0.2423  0.4225
19136TIP3    H178823   5.188   3.727   3.296  0.4048 -0.0870  1.5668
19136TIP3    H278824   5.238   3.588   3.332 -0.6747 -1.0325 -0.4292
19137TIP3   OH278825   5.122   2.845   3.079 -0.1533 -0.4189  0.1910
19137TIP3    H178826   5.153   2.841   3.169 -1.2136  1.4176  0.6802
19137TIP3    H278827   5.195   2.811   3.027  0.6984 -0.9545  1.6736
19138TIP3   OH278828   4.363   6.656   1.770  0.3708 -0.3797  0.2959
19138TIP3    H178829   4.349   6.608   1.688  0.5908 -0.0681  0.0748
19138TIP3    H278830   4.454   6.685   1.766 -0.1249  1.1863 -0.1777
19139TIP3   OH278831   4.550   2.049   1.810 -0.3356  0.1755 -0.3890
19139TIP3    H178832   4.542   2.142   1.835  2.4145 -0.2414  2.7643
19139TIP3    H278833   4.494   2.003   1.872  1.1762 -0.4641  0.5400
19140TIP3   OH278834   3.065   2.524  16.629  0.2348 -0.2578  0.1776
19140TIP3    H178835   3.135   2.472  16.589  1.3267  1.1406  0.2165
19140TIP3    H278836   3.110   2.593  16.677 -1.1700  0.6121  0.3041
19141TIP3   OH278837   0.943   0.419   1.029  0.7992  0.3494 -0.1740
19141TIP3    H178838   0.879   0.361   0.989 -0.3939  1.5525 -0.0767
19141TIP3    H278839   0.987   0.365   1.095 -1.4106 -0.0620  1.0796
19142TIP3   OH278840   1.504   1.733   1.014 -0.0206 -0.5006  0.1601
19142TIP3    H178841   1.481   1.695   1.098 -1.0495  0.4406  0.3257
19142TIP3    H278842   1.437   1.799   0.998  0.7421  0.0512 -0.9163
19143TIP3   OH278843   0.196   0.742   0.200 -0.3069 -0.7072 -0.7216
19143TIP3    H178844   0.190   0.718   0.107  1.1887 -2.4878 -0.4011
19143TIP3    H278845   0.132   0.686   0.244 -0.2819 -0.5951 -0.5406
19144TIP3   OH278846   4.995   0.994  13.400  0.2717  0.4124 -0.6896
19144TIP3    H178847   5.078   1.039  13.416  0.1260  0.0765  1.2036
19144TIP3    H278848   4.928   1.062  13.414  0.1969  0.5422 -1.6442
19145TIP3   OH278849   4.790   0.607   0.883  0.1349 -0.5809 -0.3802
19145TIP3    H178850   4.738   0.566   0.814 -0.7209  0.8685 -0.6375
19145TIP3    H278851   4.857   0.542   0.904  0.0446 -1.3087 -2.1485
19146TIP3   OH278852   4.980   6.664  14.742  0.0134  0.2155 -0.2866
19146TIP3    H178853   5.044   6.611  14.790  0.9680  1.3927 -0.1979
19146TIP3    H278854   4.896   6.645  14.785  0.3369 -1.1522 -0.2286
19147TIP3   OH278855   1.267   5.100  15.590  0.0115  0.0956 -0.0583
19147TIP3    H178856   1.178   5.084  15.623  0.2201 -1.4882 -0.2179
19147TIP3    H278857   1.320   5.112  15.669  0.0102 -0.9445  0.1056
19148TIP3   OH278858   0.940   0.756  12.788 -0.6930 -0.8121  0.6930
19148TIP3    H178859   1.023   0.754  12.837 -0.5858  0.0732  0.5756
19148TIP3    H278860   0.950   0.687  12.722 -0.1730 -0.9249  0.8798
19149TIP3   OH278861   0.296   5.764  16.678 -0.1718 -0.0050 -0.0318
19149TIP3    H178862   0.325   5.825  16.745  0.0063 -0.9859  0.7994
19149TIP3    H278863   0.204   5.747  16.699  0.2317 -1.3300  0.7844
19150TIP3   OH278864   6.473   5.567  13.829 -0.2379  0.2173 -0.5506
19150TIP3    H178865   6.534   5.516  13.776  0.2086 -0.6308  0.7340
19150TIP3    H278866   6.481   5.531  13.917 -2.5819  0.0706 -0.3160
19151TIP3   OH278867   4.332   2.088   2.908 -0.3695 -0.6465  0.0771
19151TIP3    H178868   4.286   2.121   2.986  0.8921 -0.0320  0.5915
19151TIP3    H278869   4.411   2.141   2.903 -0.4824 -0.6147 -1.7145
19152TIP3   OH278870   1.971   0.826  13.665 -0.5947 -0.0039  0.2109
19152TIP3    H178871   1.991   0.919  13.667  1.0466 -0.2886 -1.0355
19152TIP3    H278872   1.886   0.820  13.620 -0.8302  0.8807  0.5289
19153TIP3   OH278873   2.919   6.641  11.116 -0.3337  0.0944 -0.0112
19153TIP3    H178874   2.891   6.634  11.024 -1.9633  1.1464  0.3664
19153TIP3    H278875   2.846   6.603  11.166  0.1363  0.3580  0.8910
19154TIP3   OH278876   0.585   5.289  15.711 -0.6694 -0.1665 -0.0792
19154TIP3    H178877   0.545   5.246  15.635  0.2340  1.4592 -1.5409
19154TIP3    H278878   0.571   5.382  15.696 -0.8848  0.1861  2.0287
19155TIP3   OH278879   1.498   5.470  14.867 -0.2880  0.6233 -0.2388
19155TIP3    H178880   1.426   5.494  14.809 -1.6980 -1.7365  0.3611
19155TIP3    H278881   1.457   5.460  14.953  0.7133 -0.8276  0.1130
19156TIP3   OH278882   4.051   3.919  12.452  0.0459 -0.3152  0.2994
19156TIP3    H178883   3.986   3.901  12.520 -0.7316  0.7157 -0.1307
19156TIP3    H278884   4.120   3.854  12.466 -0.8662 -1.1483  1.0508
19157TIP3   OH278885   5.376   4.035  15.225  0.2846 -0.1365  0.2060
19157TIP3    H178886   5.307   4.051  15.161  0.3106  0.1660  0.2484
19157TIP3    H278887   5.368   3.943  15.248 -0.8569  0.1602  1.0811
19158TIP3   OH278888   2.967   4.776  12.384 -0.2338  0.5020 -0.0873
19158TIP3    H178889   2.961   4.865  12.418  0.8660  0.4159  0.3692
19158TIP3    H278890   2.907   4.726  12.440  1.4940  0.3738  1.7574
19159TIP3   OH278891   6.347   3.734   0.730  0.2722 -0.1501  0.0270
19159TIP3    H178892   6.285   3.721   0.803  0.3983  0.6099  0.2777
19159TIP3    H278893   6.366   3.827   0.731  0.5832 -0.1966 -0.7452
19160TIP3   OH278894   6.130   5.625   3.966  0.4095 -0.0170 -0.1028
19160TIP3    H178895   6.223   5.640   3.986  0.1938  0.8558  0.2782
19160TIP3    H278896   6.131   5.560   3.896  1.3517  0.7282 -0.8122
19161TIP3   OH278897   4.022   4.170   5.681  0.2131 -0.3467  0.0157
19161TIP3    H178898   3.973   4.190   5.602  0.1228  2.7878  0.7363
19161TIP3    H278899   3.957   4.174   5.752  0.9155  0.8949  0.6350
19162TIP3   OH278900   5.056   2.427  15.874 -0.1079 -0.5165  0.1069
19162TIP3    H178901   5.060   2.449  15.967 -1.0902 -0.0779  0.0526
19162TIP3    H278902   4.964   2.410  15.857  0.0411 -0.4311 -0.8300
19163TIP3   OH278903   4.495   6.341   0.110 -0.9135  0.5977 -0.1225
19163TIP3    H178904   4.574   6.297   0.143  0.0553  0.3834 -2.4837
19163TIP3    H278905   4.446   6.271   0.067 -0.0326  1.4462 -2.7177
19164TIP3   OH278906   2.598   1.516  10.647  0.3677 -0.0370  0.2391
19164TIP3    H178907   2.526   1.461  10.678  0.1283  0.6057  0.8652
19164TIP3    H278908   2.596   1.507  10.552  0.9312 -1.8392  0.3538
19165TIP3   OH278909   0.256   0.030   1.235  0.6671 -0.0665  0.1328
19165TIP3    H178910   0.192  -0.041   1.243 -0.5748  0.6343 -2.4546
19165TIP3    H278911   0.203   0.109   1.225  1.9454  0.7418 -0.6032
19166TIP3   OH278912   3.714   5.095   6.156  0.1960 -0.8523 -0.4818
19166TIP3    H178913   3.705   5.160   6.086 -3.8902  1.0302  1.4503
19166TIP3    H278914   3.645   5.031   6.139  0.3597 -1.4005  0.8022
19167TIP3   OH278915   4.785   0.812   3.286  0.5709  0.3952 -0.6577
19167TIP3    H178916   4.764   0.742   3.224  1.6195  0.3984 -1.0484
19167TIP3    H278917   4.879   0.801   3.302  0.4794  0.9263  0.2733
19168TIP3   OH278918   0.480   4.366   4.888  0.1891  0.5841 -0.0485
19168TIP3    H178919   0.556   4.334   4.937 -0.8000 -0.5821  0.7810
19168TIP3    H278920   0.445   4.436   4.943  0.0238  0.3714  0.1192
19169TIP3   OH278921   5.672   5.975  11.421 -0.6865  0.1847 -0.2759
19169TIP3    H178922   5.585   5.979  11.458 -0.4424 -0.8630  0.4441
19169TIP3    H278923   5.666   5.910  11.351  0.1316 -2.1224  1.6516
19170TIP3   OH278924   5.733   0.646  16.707  0.3923 -0.5362 -0.1604
19170TIP3    H178925   5.675   0.723  16.707  0.8725 -0.0815  2.4062
19170TIP3    H278926   5.715   0.603  16.624 -1.5086  1.1527 -0.7178
19171TIP3   OH278927   4.719   6.113   0.443 -0.0429 -0.6151  0.5194
19171TIP3    H178928   4.649   6.165   0.483  0.3887  0.1274  0.3403
19171TIP3    H278929   4.787   6.109   0.510  0.2537 -0.2524  0.2463
19172TIP3   OH278930   1.257   0.796   1.850  0.3167 -0.0233  0.5044
19172TIP3    H178931   1.264   0.705   1.819  0.0076  0.5511 -1.3566
19172TIP3    H278932   1.225   0.845   1.774 -0.5795  1.4733  1.7956
19173TIP3   OH278933   4.453   5.509  14.407 -0.2106 -0.2018 -0.0181
19173TIP3    H178934   4.543   5.527  14.381 -0.5135  0.2117 -0.8095
19173TIP3    H278935   4.430   5.429  14.360 -0.7903  0.5998 -1.1418
19174TIP3   OH278936   0.990   4.886   4.220  0.2501  0.8952 -0.1501
19174TIP3    H178937   0.922   4.949   4.245 -0.9655 -0.4529  0.0574
19174TIP3    H278938   0.945   4.823   4.163  0.3371 -2.0420  2.7085
19175TIP3   OH278939   1.080   0.442   5.309  0.0024 -0.1471  0.3623
19175TIP3    H178940   1.018   0.415   5.376 -0.5516  1.9034  0.7267
19175TIP3    H278941   1.099   0.534   5.328  0.3155  0.3208 -1.9041
19176TIP3   OH278942   0.513   0.618  15.238  0.3952  0.2846  0.0436
19176TIP3    H178943   0.428   0.584  15.263  0.9904  0.0993  1.9711
19176TIP3    H278944   0.573   0.590  15.307  1.6299  2.1054 -0.1806
19177TIP3   OH278945   0.112   1.567   4.502  0.1091 -0.5435  0.0986
19177TIP3    H178946   0.150   1.655   4.502 -1.0071  0.0056  1.5234
19177TIP3    H278947   0.071   1.559   4.416  0.4179  0.2488 -0.1375
19178TIP3   OH278948   3.566   5.999  11.810  0.4592 -0.0545 -0.2184
19178TIP3    H178949   3.550   5.925  11.752 -0.7268  1.0889 -1.4274
19178TIP3    H278950   3.537   5.969  11.896 -0.8398 -0.7404 -0.8606
19179TIP3   OH278951   3.314   4.260   1.060 -0.0388 -0.2471  0.0522
19179TIP3    H178952   3.348   4.329   1.118 -1.2998  1.4967 -1.1685
19179TIP3    H278953   3.223   4.249   1.086 -0.5367  0.3393 -1.3432
19180TIP3   OH278954   0.464   5.283   0.275 -0.2647  0.0986  0.1943
19180TIP3    H178955   0.458   5.379   0.275  1.7023  0.2550 -0.0398
19180TIP3    H278956   0.483   5.260   0.366 -0.4652 -0.0425  0.1996
19181TIP3   OH278957   1.767   0.637  15.936 -0.2599  0.0483 -0.6584
19181TIP3    H178958   1.781   0.601  15.849 -0.5816  0.3910 -0.8527
19181TIP3    H278959   1.758   0.560  15.992  0.8921 -0.1748 -0.7675
19182TIP3   OH278960   1.054   0.718   1.520 -0.2874  0.2985  0.0299
19182TIP3    H178961   1.012   0.702   1.435 -0.7962 -0.6107  0.4474
19182TIP3    H278962   1.042   0.637   1.569 -1.1207  1.2437  1.4531
19183TIP3   OH278963   1.834   3.805  14.154 -0.1754  0.4549 -0.1110
19183TIP3    H178964   1.841   3.875  14.220  0.6217  0.1269  0.1715
19183TIP3    H278965   1.880   3.731  14.193 -3.1322 -1.1070  0.6930
19184TIP3   OH278966   1.349   2.399  16.860 -0.2929 -0.5187  0.1738
19184TIP3    H178967   1.384   2.380  16.948  0.3653  0.0501  0.0391
19184TIP3    H278968   1.413   2.360  16.800  0.0240  0.3528 -0.0719
19185TIP3   OH278969   6.417   3.022  11.106  0.3743  0.0263  0.6669
19185TIP3    H178970   6.409   3.117  11.093 -1.0351 -0.4332 -3.3177
19185TIP3    H278971   6.328   2.989  11.097  1.2441 -1.9053 -2.5986
19186TIP3   OH278972   2.362   5.428   5.439 -0.0854  0.1573  0.3909
19186TIP3    H178973   2.309   5.464   5.367 -1.2623 -1.1281  0.5663
19186TIP3    H278974   2.397   5.346   5.404  1.7787  0.9455  0.3130
19187TIP3   OH278975   1.607   0.364   2.414  0.5894  0.6497  0.1532
19187TIP3    H178976   1.615   0.360   2.319  0.9339 -0.6023  0.2052
19187TIP3    H278977   1.682   0.417   2.442 -0.2716  2.1688 -0.3388
19188TIP3   OH278978   4.939   5.465   3.237 -0.0935  0.3352 -0.2525
19188TIP3    H178979   4.845   5.455   3.253 -0.0150  1.0000  0.6912
19188TIP3    H278980   4.973   5.505   3.316  1.3741 -1.8971  0.3400
19189TIP3   OH278981   2.711   6.373   6.736  0.3233 -0.1086  0.3448
19189TIP3    H178982   2.742   6.441   6.796 -0.1704 -0.7679  1.3696
19189TIP3    H278983   2.763   6.295   6.759 -0.8088 -0.7318  0.8545
19190TIP3   OH278984   1.734   0.624   4.095 -0.4623 -0.7518 -0.5248
19190TIP3    H178985   1.702   0.649   4.008  3.2267 -3.0906 -2.8781
19190TIP3    H278986   1.770   0.704   4.132 -1.9975  0.2797 -1.1992
19191TIP3   OH278987   5.186   4.340   5.381  0.0841 -0.7499  0.3953
19191TIP3    H178988   5.248   4.354   5.310 -2.2961  0.9422 -1.5283
19191TIP3    H278989   5.222   4.390   5.454  1.3752 -0.5045 -0.3731
19192TIP3   OH278990   1.346   6.463  16.618  0.0997 -0.3822 -0.1511
19192TIP3    H178991   1.269   6.417  16.651  0.3214 -1.3331 -0.9175
19192TIP3    H278992   1.404   6.394  16.586  0.5409  0.4064 -1.1263
19193TIP3   OH278993   4.373   0.065  11.846 -0.2987 -0.2483 -0.1163
19193TIP3    H178994   4.279   0.086  11.841  0.3202  3.0708 -0.0058
19193TIP3    H278995   4.411   0.108  11.769  1.0972 -2.1652 -0.5741
19194TIP3   OH278996   5.762   4.418  17.401 -0.2434  0.4014 -0.2858
19194TIP3    H178997   5.770   4.357  17.327 -0.7313 -0.9370  0.7242
19194TIP3    H278998   5.671   4.445  17.400 -0.5617 -0.5974  0.5490
19195TIP3   OH278999   5.474   0.902  11.331  0.3544  0.0155 -0.2129
19195TIP3    H179000   5.384   0.935  11.332  0.7575  1.2205  1.7827
19195TIP3    H279001   5.466   0.811  11.359 -0.5695 -1.1685 -3.8572
19196TIP3   OH279002   1.643   2.615  14.103  0.1987  0.2903  0.2305
19196TIP3    H179003   1.655   2.666  14.183 -1.5073  0.6698  0.2760
19196TIP3    H279004   1.721   2.560  14.098 -0.9263 -2.0608  3.8785
19197TIP3   OH279005   3.690   6.592   3.130 -0.1768  0.4644  0.0091
19197TIP3    H179006   3.663   6.612   3.220 -0.7519  1.9163 -0.4580
19197TIP3    H279007   3.693   6.497   3.126 -2.5515  0.2862  0.8862
19198TIP3   OH279008   5.572   1.232   0.998 -0.3662  0.5795  0.2892
19198TIP3    H179009   5.575   1.191   0.911 -3.3918  0.7690 -0.0183
19198TIP3    H279010   5.585   1.325   0.981  1.5917  0.3630  0.4008
19199TIP3   OH279011   0.570   0.142   3.285 -0.2970  0.9544 -0.4042
19199TIP3    H179012   0.662   0.160   3.301  0.1847  0.5094 -2.3964
19199TIP3    H279013   0.539   0.099   3.364  1.6855 -0.5698 -0.3994
19200TIP3   OH279014   0.429   5.169  15.206  0.0764  0.0947  0.1992
19200TIP3    H179015   0.457   5.080  15.224  4.6124  0.9475 -1.2122
19200TIP3    H279016   0.381   5.163  15.123  0.0974 -1.0623  0.2597
19201TIP3   OH279017   5.590   3.028   5.951  0.5612 -0.0554  0.0060
19201TIP3    H179018   5.516   3.034   6.011 -0.6352 -1.4284 -1.2710
19201TIP3    H279019   5.649   2.964   5.992 -0.3204 -1.1017 -0.3197
19202TIP3   OH279020   3.604   4.935   6.716 -0.0941  0.1393  0.1705
19202TIP3    H179021   3.579   4.848   6.747  0.7790 -1.1541 -2.3995
19202TIP3    H279022   3.689   4.921   6.673  0.9571  2.6539  1.2364
19203TIP3   OH279023   3.768   0.048  16.365  0.1690  0.7629 -0.2176
19203TIP3    H179024   3.758  -0.046  16.382  0.0492  0.8755  0.3707
19203TIP3    H279025   3.846   0.055  16.310  0.5759  0.3745  0.3010
19204TIP3   OH279026   4.702   1.423   0.222 -0.2223 -0.0263 -0.6711
19204TIP3    H179027   4.693   1.498   0.162 -1.5509 -0.4244 -0.9886
19204TIP3    H279028   4.631   1.434   0.285 -0.0300 -0.6855 -0.3394
19205TIP3   OH279029   2.069   2.859   4.651 -0.6848 -0.1957 -0.2345
19205TIP3    H179030   2.100   2.848   4.561 -0.8269 -0.1897 -0.2834
19205TIP3    H279031   2.088   2.951   4.671 -1.7227  0.1217 -0.6613
19206TIP3   OH279032   2.853   0.441  14.994 -0.2429 -0.1169 -0.0561
19206TIP3    H179033   2.785   0.487  14.946  1.3576  1.2983 -1.0880
19206TIP3    H279034   2.892   0.381  14.930 -1.9122 -2.6227  1.1107
19207TIP3   OH279035   2.459   5.537   5.051 -0.5510 -0.1839 -0.1752
19207TIP3    H179036   2.479   5.542   4.958 -0.3418 -0.9486 -0.1775
19207TIP3    H279037   2.515   5.467   5.084  0.0140  0.6484  0.6990
19208TIP3   OH279038   5.873   0.352  14.692 -0.0724  0.4858  0.0897
19208TIP3    H179039   5.905   0.270  14.653 -0.1571  0.9189 -0.9335
19208TIP3    H279040   5.942   0.378  14.753  0.3286  0.0599 -0.1732
19209TIP3   OH279041   5.263   6.425  12.420 -0.3148 -0.0334 -0.4077
19209TIP3    H179042   5.230   6.446  12.507  1.3522  0.7148  0.0859
19209TIP3    H279043   5.338   6.368  12.435  1.0800  1.4909 -1.1949
19210TIP3   OH279044   6.576   3.036  12.503  0.4836  0.6102  0.6192
19210TIP3    H179045   6.655   3.076  12.467  0.0401 -1.3015 -2.8444
19210TIP3    H279046   6.506   3.060  12.442 -0.7534 -1.1869  1.2342
19211TIP3   OH279047   4.091   4.669   1.317 -0.2253  0.5251  0.1800
19211TIP3    H179048   4.051   4.740   1.268 -0.3609 -0.0578 -0.5747
19211TIP3    H279049   4.134   4.712   1.391  0.6440  1.5151 -0.8636
19212TIP3   OH279050   3.342   5.815  15.788  0.0133 -0.1281  0.3668
19212TIP3    H179051   3.395   5.894  15.802  0.7082 -0.0034 -2.4164
19212TIP3    H279052   3.252   5.848  15.783  0.0270  0.1378  1.5150
19213TIP3   OH279053   0.764   3.433  16.395 -0.1493 -0.0694  0.0763
19213TIP3    H179054   0.803   3.520  16.406 -1.4162  0.7243 -1.3167
19213TIP3    H279055   0.683   3.449  16.348 -0.9964 -1.9113  0.8031
19214TIP3   OH279056   4.528   3.827   2.180  0.2633 -0.0220 -0.2515
19214TIP3    H179057   4.552   3.863   2.266  2.2731  0.0323 -0.7934
19214TIP3    H279058   4.466   3.891   2.145  0.8329  0.9117  0.3977
19215TIP3   OH279059   5.381   0.205   3.940 -0.6471  0.0595 -0.2136
19215TIP3    H179060   5.359   0.297   3.924 -0.9376 -0.1279 -0.9071
19215TIP3    H279061   5.364   0.161   3.857 -0.3302 -0.5928  0.0589
19216TIP3   OH279062   4.148   4.619   0.984  0.1991 -0.7196  0.3819
19216TIP3    H179063   4.203   4.630   1.062 -0.4891  0.2775  0.7526
19216TIP3    H279064   4.201   4.653   0.912  0.0349  0.4088  0.7646
19217TIP3   OH279065   4.888   5.536  16.933 -0.0586  0.3317  0.2032
19217TIP3    H179066   4.971   5.572  16.965 -0.9163  2.2368  0.4361
19217TIP3    H279067   4.832   5.613  16.920 -0.8788 -0.6548 -2.6869
19218TIP3   OH279068   4.356   2.860  13.941  0.1762 -0.0033 -0.0953
19218TIP3    H179069   4.438   2.846  13.988  0.0981  0.4659  0.1843
19218TIP3    H279070   4.371   2.822  13.855  0.5707 -0.2215  0.0688
19219TIP3   OH279071   4.533   1.479   4.017  0.0337 -0.0680  0.5422
19219TIP3    H179072   4.509   1.468   4.109  1.3720  3.3708  1.4701
19219TIP3    H279073   4.454   1.515   3.976 -0.2277 -0.5661  0.6075
19220TIP3   OH279074   1.110   2.622   6.891 -0.6656 -0.0871  0.1789
19220TIP3    H179075   1.050   2.576   6.950 -1.1039 -0.3149 -0.4338
19220TIP3    H279076   1.072   2.611   6.804 -0.6510  1.2340 -0.0208
19221TIP3   OH279077   5.353   6.072   2.501 -0.0615  0.7132  0.3328
19221TIP3    H179078   5.400   6.034   2.574  1.2940  0.5997 -0.5671
19221TIP3    H279079   5.319   5.997   2.452  0.6020  0.7183 -0.1480
19222TIP3   OH279080   5.176   2.288  13.119 -0.2630 -0.0522 -0.6403
19222TIP3    H179081   5.183   2.242  13.035  0.0593 -1.0932 -0.0695
19222TIP3    H279082   5.100   2.249  13.161  1.2786 -1.6891  0.7782
19223TIP3   OH279083   0.900   0.020  11.315 -0.1647 -0.7691  0.0197
19223TIP3    H179084   0.901   0.071  11.234  1.3728 -1.8251 -0.6864
19223TIP3    H279085   0.986   0.037  11.355 -1.0320  0.0055  1.6339
19224TIP3   OH279086   4.691   3.046  12.992  0.0249 -0.7165 -0.6432
19224TIP3    H179087   4.658   2.956  12.993  1.4008 -1.2639 -0.9138
19224TIP3    H279088   4.634   3.092  12.932 -1.0482 -1.2673 -0.0692
19225TIP3   OH279089   1.923   4.596  17.448  0.0353 -0.0268 -0.1379
19225TIP3    H179090   1.988   4.662  17.424  0.7670 -0.7646 -0.1961
19225TIP3    H279091   1.957   4.557  17.528 -1.1449  0.6872  0.7525
19226TIP3   OH279092   0.625   1.945  14.733 -0.5580  0.1315  0.7111
19226TIP3    H179093   0.537   1.934  14.697  0.3612  0.7872 -2.0146
19226TIP3    H279094   0.662   2.018  14.683  2.6108 -2.1822 -0.6166
19227TIP3   OH279095   2.774   1.345  14.702  0.1406  0.1962  0.2991
19227TIP3    H179096   2.850   1.287  14.703 -1.3519 -1.9029 -0.9348
19227TIP3    H279097   2.743   1.347  14.792 -0.2281 -1.5971  0.2404
19228TIP3   OH279098   2.813   1.876  14.705 -0.2341 -0.3763  0.1068
19228TIP3    H179099   2.859   1.843  14.782  3.2282  0.2288 -1.4747
19228TIP3    H279100   2.730   1.909  14.738  1.4750  0.7661  3.7579
19229TIP3   OH279101   3.983   3.266  13.865 -0.2732  0.1719 -0.0142
19229TIP3    H179102   4.060   3.220  13.832 -0.6662 -2.6156  2.5525
19229TIP3    H279103   4.018   3.330  13.927  0.0525 -0.0824  0.0644
19230TIP3   OH279104   0.955   4.598   1.358 -0.4118 -0.1042  0.1336
19230TIP3    H179105   0.864   4.586   1.385 -0.2785 -2.0249 -0.1438
19230TIP3    H279106   0.998   4.635   1.434 -1.4514  1.0712  0.1877
19231TIP3   OH279107   6.220   0.661  12.390 -0.5776  0.4315 -0.2078
19231TIP3    H179108   6.151   0.648  12.455  0.9649 -0.0883  1.3961
19231TIP3    H279109   6.262   0.743  12.416  0.3994 -0.0590 -0.2023
19232TIP3   OH279110   0.684   6.341   2.157 -0.3785 -0.5735  0.2445
19232TIP3    H179111   0.733   6.284   2.098 -1.2603 -1.4519  0.3325
19232TIP3    H279112   0.607   6.368   2.106  0.2748  0.9537  0.0368
19233TIP3   OH279113   0.882   4.602  13.053  0.6828  0.7223  0.1331
19233TIP3    H179114   0.866   4.630  12.963 -1.0751  0.6153  0.3712
19233TIP3    H279115   0.811   4.540  13.071  2.2173 -0.9065  0.9057
19234TIP3   OH279116   1.809   3.061  11.173 -0.0511  0.1761 -0.4201
19234TIP3    H179117   1.831   3.152  11.196  2.6576 -0.1252 -1.5153
19234TIP3    H279118   1.859   3.043  11.093 -1.3959 -1.9498 -0.8589
19235TIP3   OH279119   5.020   0.261  14.800 -0.3269 -0.1820 -0.0952
19235TIP3    H179120   5.065   0.178  14.815 -2.6046 -1.7767 -1.4020
19235TIP3    H279121   5.036   0.281  14.708 -0.9039  0.0944 -0.1399
19236TIP3   OH279122   4.281   0.981   5.568  0.6602  0.0038 -0.5063
19236TIP3    H179123   4.200   0.967   5.617  0.4376  1.5489 -0.3716
19236TIP3    H279124   4.264   0.941   5.483  0.9242 -2.4092  0.5077
19237TIP3   OH279125   1.738   0.218  11.680 -0.6113  0.2404 -0.4225
19237TIP3    H179126   1.757   0.276  11.754 -1.3445 -0.1278  0.0638
19237TIP3    H279127   1.778   0.262  11.605  0.2046  0.5910  0.1976
19238TIP3   OH279128   5.089   2.595  13.050 -0.5095 -0.3231 -1.1119
19238TIP3    H179129   5.090   2.679  13.097 -1.6224  0.4679 -2.4501
19238TIP3    H279130   5.031   2.609  12.976 -0.8612 -2.3544 -1.2817
19239TIP3   OH279131   0.941   2.005   2.986  0.0998 -0.1101 -0.2727
19239TIP3    H179132   0.852   2.034   3.004  0.0841  0.1062 -0.6873
19239TIP3    H279133   0.986   2.010   3.070 -0.5295 -1.1268  0.1422
19240TIP3   OH279134   4.202   0.211  12.823 -0.4188  0.5950 -0.3038
19240TIP3    H179135   4.140   0.151  12.782  0.3116  0.0498 -0.6329
19240TIP3    H279136   4.271   0.223  12.757  0.6064 -0.0342  0.6359
19241TIP3   OH279137   0.625   4.860   6.042  0.4612 -0.2320  0.0949
19241TIP3    H179138   0.707   4.880   6.087  0.0661 -1.0447  1.2181
19241TIP3    H279139   0.608   4.768   6.062 -1.7154  0.4023  1.5554
19242TIP3   OH279140   4.337   6.028   6.161  0.3433 -0.3783  0.0509
19242TIP3    H179141   4.387   6.028   6.079  0.0634  1.5274 -0.1607
19242TIP3    H279142   4.373   6.101   6.211 -1.1872  0.0847  0.5415
19243TIP3   OH279143   4.561   3.367  13.726  0.4388 -0.1971  0.0555
19243TIP3    H179144   4.528   3.277  13.735  0.4281 -0.0847  1.4112
19243TIP3    H279145   4.613   3.380  13.806  1.3241  0.6393 -0.6424
19244TIP3   OH279146   0.508   3.473  16.261 -0.1978 -0.2575  1.5422
19244TIP3    H179147   0.472   3.561  16.269  0.1120 -0.0087  0.3257
19244TIP3    H279148   0.538   3.467  16.170  0.3422 -1.4046  1.7787
19245TIP3   OH279149   1.661   2.203   1.972  0.4398  0.3444 -0.2405
19245TIP3    H179150   1.695   2.289   1.948  1.7971  0.4237  1.7193
19245TIP3    H279151   1.600   2.220   2.044  2.2855 -0.4124  1.6163
19246TIP3   OH279152   0.223   2.861  17.151  0.1656 -0.5667  0.3186
19246TIP3    H179153   0.135   2.897  17.139  0.4090  0.1066  0.5035
19246TIP3    H279154   0.210   2.783  17.205 -0.4798 -1.3326 -0.8908
19247TIP3   OH279155   4.148   1.126  14.156 -0.3792  0.4058 -0.2272
19247TIP3    H179156   4.129   1.126  14.249  1.3390  0.5073  0.1534
19247TIP3    H279157   4.225   1.183  14.146 -0.2575  0.0498 -1.6366
19248TIP3   OH279158   4.330   4.450  13.918 -0.3974  0.3888  0.1391
19248TIP3    H179159   4.270   4.381  13.947 -0.8675  0.9149  0.4410
19248TIP3    H279160   4.333   4.511  13.991  0.4707  0.3966  0.0990
19249TIP3   OH279161   5.055   5.150   4.351 -0.7097  0.1079  0.0727
19249TIP3    H179162   5.003   5.230   4.361  1.0993  1.4545 -0.7724
19249TIP3    H279163   5.125   5.160   4.415 -0.1582 -0.5579 -0.4191
19250TIP3   OH279164   0.196   5.054  12.877  0.3795 -0.0456  0.1416
19250TIP3    H179165   0.130   4.986  12.866  2.4925 -1.9110 -2.4839
19250TIP3    H279166   0.241   5.031  12.958 -0.6335 -0.1371  0.7001
19251TIP3   OH279167   3.583   2.895   0.017  0.4468 -0.4807 -0.2654
19251TIP3    H179168   3.529   2.964   0.057  0.2906 -1.3662  1.1451
19251TIP3    H279169   3.519   2.835  -0.022  0.2887 -1.7677  1.7948
19252TIP3   OH279170   1.610   0.440  14.033 -0.3565  0.4691  0.3983
19252TIP3    H179171   1.564   0.510  13.987  1.5302  1.8406  0.5225
19252TIP3    H279172   1.539   0.385  14.068 -1.8922  2.2272  0.2115
19253TIP3   OH279173   6.676   0.595   5.650  0.1150  0.1695  0.1460
19253TIP3    H179174   6.759   0.569   5.691 -0.5324 -0.8720  0.8300
19253TIP3    H279175   6.655   0.522   5.592 -0.6008  0.1639  0.4067
19254TIP3   OH279176   2.107   1.478  13.118 -0.2191 -0.7988  0.0595
19254TIP3    H179177   2.154   1.520  13.190 -0.3016  0.4964 -0.6221
19254TIP3    H279178   2.153   1.394  13.106  1.2369 -0.0500  0.1427
19255TIP3   OH279179   1.694   2.988  11.401  0.5912 -0.4556 -0.0325
19255TIP3    H179180   1.694   2.892  11.393  0.6304 -0.3070 -2.6940
19255TIP3    H279181   1.738   3.018  11.321 -0.7898  1.8155 -0.0055
19256TIP3   OH279182   5.004   1.327  14.038 -0.7763 -0.0964 -0.1595
19256TIP3    H179183   4.995   1.365  14.125  0.0351 -0.5640  0.1412
19256TIP3    H279184   5.088   1.360  14.006 -1.2600  0.4213 -0.9561
19257TIP3   OH279185   6.212   3.565  14.542 -0.5753  0.3507  0.0524
19257TIP3    H179186   6.200   3.621  14.618  1.0052  1.5574 -0.5225
19257TIP3    H279187   6.307   3.552  14.536 -0.6798  0.1090 -1.5782
19258TIP3   OH279188   6.485   1.020  12.359  0.7740  0.0455 -0.3955
19258TIP3    H179189   6.442   1.052  12.279  0.4741 -1.6550 -0.9541
19258TIP3    H279190   6.502   0.928  12.342  0.5438 -0.4091  1.5789
19259TIP3   OH279191   0.972   0.148  12.514 -0.9870  0.1078 -0.5251
19259TIP3    H179192   0.985   0.057  12.489 -1.4013  0.1211 -0.7938
19259TIP3    H279193   1.004   0.198  12.439  0.8062  0.2409  0.2766
19260TIP3   OH279194   0.979   2.542  13.118  0.0479 -0.6513  0.2983
19260TIP3    H179195   1.067   2.531  13.154  1.0341  1.4535 -1.2687
19260TIP3    H279196   0.937   2.606  13.175  0.4724  0.2723 -0.4056
19261TIP3   OH279197   5.397   3.958  13.120  0.1612 -0.2631  0.7598
19261TIP3    H179198   5.443   4.028  13.167  0.7864  0.5440 -0.9556
19261TIP3    H279199   5.424   3.969  13.029  0.3874 -2.8361  0.4380
19262TIP3   OH279200   3.884   2.985  11.892 -0.0886 -0.3779 -0.1506
19262TIP3    H179201   3.914   2.990  11.982  1.1862  3.3324 -0.6272
19262TIP3    H279202   3.803   3.036  11.890 -0.2527 -0.6489 -1.0449
19263TIP3   OH279203   1.066   1.148  13.433  0.0040  0.0294  0.0069
19263TIP3    H179204   1.005   1.160  13.361 -0.1745  0.7451  0.2635
19263TIP3    H279205   1.074   1.235  13.472 -0.2289 -0.4275  1.1089
19264TIP3   OH279206   6.017   1.725   3.244 -0.4972 -0.5149 -0.5917
19264TIP3    H179207   6.009   1.813   3.207  0.3942 -0.5577 -0.9150
19264TIP3    H279208   6.058   1.673   3.175  0.8105 -0.6920  0.2759
19265TIP3   OH279209   2.241   2.544   4.335  0.0102 -0.2578 -0.2659
19265TIP3    H179210   2.175   2.602   4.296  0.4202  0.5945  0.2708
19265TIP3    H279211   2.197   2.459   4.343 -0.5260 -0.0840 -1.2840
19266TIP3   OH279212   3.646   3.981  11.986  0.0484 -0.3861  0.4460
19266TIP3    H179213   3.607   3.926  11.918 -2.3237  2.3055 -0.5696
19266TIP3    H279214   3.576   3.994  12.050  1.7833 -1.6272  2.7476
19267TIP3   OH279215   2.283   5.697   3.627  0.2490 -0.4120  0.2560
19267TIP3    H179216   2.304   5.764   3.563  4.8337  1.3306  3.0415
19267TIP3    H279217   2.227   5.741   3.691 -1.3033 -1.0242 -0.6514
19268TIP3   OH279218   2.189   1.425   0.775 -0.1121  0.4512 -0.8233
19268TIP3    H179219   2.210   1.491   0.842  1.6873  0.0606 -0.9459
19268TIP3    H279220   2.114   1.461   0.729 -0.9006  1.1088  0.8831
19269TIP3   OH279221   4.360   5.741  13.257 -0.1646  0.1076 -0.4754
19269TIP3    H179222   4.404   5.709  13.179  1.0197  1.6298 -0.4795
19269TIP3    H279223   4.431   5.771  13.314 -1.0972  2.9570 -0.6206
19270TIP3   OH279224   5.970   1.803   3.925  0.5058  0.0277  0.5222
19270TIP3    H179225   5.920   1.785   4.005  0.3367  1.6422  0.8184
19270TIP3    H279226   6.005   1.892   3.938 -0.5089  0.8271 -1.6831
19271TIP3   OH279227   4.109   1.615  16.906  0.5441 -0.0157 -0.4494
19271TIP3    H179228   4.044   1.675  16.944 -0.5281 -0.4274 -1.5782
19271TIP3    H279229   4.189   1.633  16.956 -0.0810  1.4331  0.1101
19272TIP3   OH279230   6.421   1.084   4.613  0.1896  0.0543 -0.2958
19272TIP3    H179231   6.489   1.144   4.644  0.1760  0.3714 -0.8707
19272TIP3    H279232   6.339   1.129   4.634  0.1600 -0.2243  0.1895
19273TIP3   OH279233   1.166   3.128   0.991  0.3227  0.2302 -0.4457
19273TIP3    H179234   1.103   3.082   0.936 -0.0643 -0.6131  0.6871
19273TIP3    H279235   1.116   3.155   1.068  1.3551 -0.5376  0.5164
19274TIP3   OH279236   6.190   4.524  15.648 -0.8414  0.6111 -0.5256
19274TIP3    H179237   6.113   4.497  15.697  0.1992 -1.3897  0.1151
19274TIP3    H279238   6.169   4.504  15.557 -0.8958 -0.4773 -0.2909
19275TIP3   OH279239   1.327   4.801   4.524  0.3742  0.2838 -0.3572
19275TIP3    H179240   1.380   4.728   4.492  0.1025 -0.4906  0.8903
19275TIP3    H279241   1.383   4.877   4.513  1.4846 -0.4208  0.2580
19276TIP3   OH279242   5.034   0.318  17.160 -0.1774 -0.0028 -0.2604
19276TIP3    H179243   4.974   0.327  17.234  0.0638 -2.1501  0.2685
19276TIP3    H279244   5.121   0.325  17.198 -0.0482  1.9656 -0.8542
19277TIP3   OH279245   4.367   3.235   4.560 -0.2025 -0.0329 -0.3443
19277TIP3    H179246   4.406   3.296   4.623 -1.2670  1.8486 -1.4549
19277TIP3    H279247   4.421   3.243   4.482 -1.9417  1.6276 -1.4510
19278TIP3   OH279248   1.471   1.208  14.702 -0.2116 -0.8808  0.1806
19278TIP3    H179249   1.479   1.182  14.794 -2.0610 -0.7151  0.4231
19278TIP3    H279250   1.403   1.151  14.666  0.4320 -0.8984 -1.0992
19279TIP3   OH279251   5.362   3.648  11.282  0.1579 -0.1728  0.4314
19279TIP3    H179252   5.296   3.676  11.345 -0.4464 -0.8577  0.1256
19279TIP3    H279253   5.317   3.581  11.229  0.6923  0.2641 -0.6090
19280TIP3   OH279254   0.190   1.107  15.577 -0.1556 -0.2492  0.6690
19280TIP3    H179255   0.179   1.014  15.555  1.3823 -0.4379  0.5462
19280TIP3    H279256   0.152   1.116  15.664  1.6475 -1.5490  1.6727
19281TIP3   OH279257   5.374   3.238  12.487  0.3233  0.1406  0.2814
19281TIP3    H179258   5.295   3.185  12.483 -0.5568  1.3691  0.6119
19281TIP3    H279259   5.403   3.230  12.578  0.3789 -0.0299  0.2488
19282TIP3   OH279260   6.664   4.846   6.065  0.5299 -0.2234 -0.1842
19282TIP3    H179261   6.684   4.846   5.971  2.3553 -0.7884  0.1602
19282TIP3    H279262   6.623   4.931   6.081  1.6677  0.5573 -1.2195
19283TIP3   OH279263   3.566   5.575   0.294 -0.1493  0.0925 -0.4211
19283TIP3    H179264   3.483   5.581   0.247  0.4590  2.3183 -1.3384
19283TIP3    H279265   3.554   5.502   0.354 -2.0339 -0.9436 -1.9374
19284TIP3   OH279266   6.389   1.859   4.652 -0.1390 -0.0674  0.2332
19284TIP3    H179267   6.307   1.848   4.604 -0.9153 -1.1218  1.7184
19284TIP3    H279268   6.363   1.886   4.740  1.0803 -0.6746  0.8135
19285TIP3   OH279269   5.632   1.582   2.848  0.6247  0.1604 -0.0047
19285TIP3    H179270   5.584   1.638   2.909 -0.6862 -1.3033  0.3482
19285TIP3    H279271   5.721   1.578   2.885  0.1438  0.1969  1.2032
19286TIP3   OH279272   1.809   3.564   2.819 -0.5260 -0.0193 -0.2404
19286TIP3    H179273   1.864   3.620   2.764  0.0688  0.1331  0.4904
19286TIP3    H279274   1.797   3.614   2.900 -2.0464  0.1087 -0.5053
19287TIP3   OH279275   5.870   5.921  12.295  0.2663 -0.2934 -0.9450
19287TIP3    H179276   5.901   5.933  12.205 -0.1405  1.4647 -0.8872
19287TIP3    H279277   5.945   5.943  12.349 -0.0837  0.6810 -0.8439
19288TIP3   OH279278   1.887   0.878  14.514  0.3413  0.1241 -0.0746
19288TIP3    H179279   1.801   0.878  14.557  0.3669  1.2627  0.0267
19288TIP3    H279280   1.881   0.809  14.448 -0.1566 -0.7636  0.8725
19289TIP3   OH279281   3.756   2.961   5.560  0.0951 -0.2821  0.5577
19289TIP3    H179282   3.664   2.949   5.536 -0.1478  1.4738  0.4550
19289TIP3    H279283   3.805   2.946   5.479 -0.1046 -1.0116  0.5650
19290TIP3   OH279284   5.952   0.783   2.311 -0.3181  0.1998  0.1947
19290TIP3    H179285   5.945   0.706   2.366  0.8544 -0.6255 -0.7337
19290TIP3    H279286   5.900   0.850   2.355  0.7402 -0.3458  2.3917
19291TIP3   OH279287   4.786   1.316  14.676  0.0493  0.2891 -0.0688
19291TIP3    H179288   4.721   1.267  14.626 -1.3841  0.3665  1.6176
19291TIP3    H279289   4.770   1.408  14.653  2.0149  0.1482 -2.3914
19292TIP3   OH279290   2.390   1.823  15.420 -0.0891 -0.6633 -0.5528
19292TIP3    H179291   2.416   1.814  15.328 -2.7144 -1.6318 -1.3063
19292TIP3    H279292   2.351   1.910  15.425  2.0991  0.3307  0.2850
19293TIP3   OH279293   1.801   4.654   0.686 -0.5291  0.0548 -0.0566
19293TIP3    H179294   1.816   4.715   0.759 -1.9589  2.1903 -1.4278
19293TIP3    H279295   1.765   4.576   0.728  1.2289  0.1384  1.7650
19294TIP3   OH279296   1.052   5.235  13.327 -0.1892  0.0675  0.6010
19294TIP3    H179297   0.957   5.243  13.322 -0.0207  1.8004 -2.8606
19294TIP3    H279298   1.074   5.267  13.414 -2.7119 -0.1387  1.4117
19295TIP3   OH279299   3.139   1.877  12.155 -0.3569 -0.1901  0.9199
19295TIP3    H179300   3.107   1.787  12.143  0.5914 -0.2516 -1.6545
19295TIP3    H279301   3.064   1.932  12.134  0.0683 -0.3770 -1.2580
19296TIP3   OH279302   3.781   4.258   1.065 -0.6178  0.5356  0.4893
19296TIP3    H179303   3.814   4.344   1.092 -0.0335 -0.2126  2.3187
19296TIP3    H279304   3.717   4.277   0.997 -0.1081  2.3768  0.4679
19297TIP3   OH279305   2.509   5.790  11.505  0.6362  0.3205 -0.0171
19297TIP3    H179306   2.569   5.833  11.443  0.9523 -0.3089 -0.1551
19297TIP3    H279307   2.524   5.696  11.492  1.2138  0.1816  1.5138
19298TIP3   OH279308   4.170   5.491  15.462  0.3951 -0.1610  0.4046
19298TIP3    H179309   4.151   5.555  15.393  0.2111  0.4548  1.0133
19298TIP3    H279310   4.157   5.406  15.420  1.0046  0.1868 -0.5183
19299TIP3   OH279311   3.615   0.791   2.422 -0.3385 -0.1901 -0.5466
19299TIP3    H179312   3.678   0.861   2.406 -0.8656  0.1706 -1.0451
19299TIP3    H279313   3.658   0.713   2.387  0.5675 -0.2690  0.6771
19300TIP3   OH279314   5.537   4.178  13.279  0.1495  0.1642  0.5553
19300TIP3    H179315   5.631   4.177  13.298  0.3398 -3.0064 -0.1142
19300TIP3    H279316   5.495   4.150  13.360 -0.1508  0.5307  0.5291
19301TIP3   OH279317   1.242   5.885   2.229 -0.0594  0.2598 -0.6639
19301TIP3    H179318   1.243   5.827   2.305  0.6494 -0.8788 -1.5060
19301TIP3    H279319   1.334   5.894   2.205 -0.2699  0.6265 -1.3643
19302TIP3   OH279320   3.653   0.903  11.796 -0.0616 -0.3451  0.4564
19302TIP3    H179321   3.643   0.808  11.788  0.6562 -0.2866 -1.8211
19302TIP3    H279322   3.630   0.938  11.710 -0.6381  1.6009  1.3352
19303TIP3   OH279323   2.345   2.033   4.706 -0.2789  0.2766  0.1364
19303TIP3    H179324   2.421   2.084   4.734  0.2480  0.8723 -2.1888
19303TIP3    H279325   2.275   2.058   4.766  1.2877 -0.2286  2.2802
19304TIP3   OH279326   6.235   1.027   3.600 -0.2463 -0.2680 -0.0238
19304TIP3    H179327   6.156   1.080   3.596 -0.4643 -0.6397 -0.7386
19304TIP3    H279328   6.220   0.956   3.537  0.5951 -0.4229 -0.0620
19305TIP3   OH279329   1.531   2.835  10.556 -0.2767 -0.3609  0.1488
19305TIP3    H179330   1.461   2.773  10.538  0.4912 -1.2853  0.2564
19305TIP3    H279331   1.532   2.894  10.481 -2.2082  0.6934  0.8725
19306TIP3   OH279332   1.548   2.407   5.965 -0.3178 -0.2366 -0.5071
19306TIP3    H179333   1.527   2.324   5.923  0.6544 -0.7803  0.0347
19306TIP3    H279334   1.576   2.382   6.054  2.1062  0.4114 -1.0018
19307TIP3   OH279335   3.626   1.760  11.133 -0.5372 -0.1578 -0.3095
19307TIP3    H179336   3.614   1.855  11.123  1.0080  0.2181  1.0184
19307TIP3    H279337   3.674   1.733  11.055  1.9288  0.8001  0.7687
19308TIP3   OH279338   6.040   0.980  15.819 -0.2452  0.2441  0.1606
19308TIP3    H179339   6.115   0.949  15.768  0.0613  0.7144  0.3202
19308TIP3    H279340   6.049   0.938  15.904  0.3929  1.0859  0.5095
19309TIP3   OH279341   6.130   6.417   1.759  0.4105 -0.5164  0.0916
19309TIP3    H179342   6.188   6.491   1.776 -0.2333 -0.2520  1.1667
19309TIP3    H279343   6.175   6.342   1.798  0.4270 -0.4613  0.1780
19310TIP3   OH279344   5.942   3.011  16.763 -0.3256  0.0435 -0.3226
19310TIP3    H179345   5.907   2.922  16.756  1.6687 -0.8243  0.2052
19310TIP3    H279346   5.895   3.050  16.837 -1.7044 -0.2843 -0.9827
19311TIP3   OH279347   2.380   5.911   1.925  0.0226  0.1281  0.7116
19311TIP3    H179348   2.450   5.969   1.894 -0.7370  0.0666 -1.2639
19311TIP3    H279349   2.426   5.835   1.960  0.9778  0.9691  1.3627
19312TIP3   OH279350   3.075   2.192   4.900 -0.4466 -0.0489  0.0805
19312TIP3    H179351   3.053   2.174   4.991 -1.3637 -2.7830 -0.5826
19312TIP3    H279352   3.020   2.267   4.876  0.1551  1.0121  1.8632
19313TIP3   OH279353   4.705   0.949   5.646  0.1513 -0.6500  0.3817
19313TIP3    H179354   4.784   0.894   5.642  0.6987  0.1834 -0.7757
19313TIP3    H279355   4.723   1.022   5.587  0.8014  2.5948  4.1534
19314TIP3   OH279356   5.425   5.618  14.282 -0.0625 -0.7893  0.2524
19314TIP3    H179357   5.446   5.682  14.349 -2.2799 -0.8925  1.1496
19314TIP3    H279358   5.435   5.533  14.325  0.3304 -0.9396 -0.1287
19315TIP3   OH279359   4.405   3.735  14.481  0.6501 -0.1371 -0.2529
19315TIP3    H179360   4.464   3.805  14.509  1.8205 -0.6421 -1.3722
19315TIP3    H279361   4.334   3.737  14.545  3.3781 -1.5900  3.1122
19316TIP3   OH279362   0.342   0.578   4.845  0.3610 -0.6580  0.2201
19316TIP3    H179363   0.406   0.649   4.846  0.8095 -1.0598  0.2925
19316TIP3    H279364   0.373   0.519   4.776 -0.3567 -0.4667 -0.2680
19317TIP3   OH279365   3.856   5.383  15.346 -0.2583  0.6620  0.9127
19317TIP3    H179366   3.923   5.315  15.347 -2.8346 -2.0973  0.2462
19317TIP3    H279367   3.874   5.434  15.267  1.1956  0.1864  0.9198
19318TIP3   OH279368   1.254   3.021   4.530 -0.6231  0.1301 -0.6074
19318TIP3    H179369   1.289   2.991   4.614 -0.0737 -0.1395 -0.9259
19318TIP3    H279370   1.312   3.092   4.504  0.0435 -0.6919 -1.4115
19319TIP3   OH279371   4.730   4.088  15.179 -0.1729 -0.4057 -0.1166
19319TIP3    H179372   4.673   4.014  15.157  0.1452 -0.6945  0.0247
19319TIP3    H279373   4.701   4.158  15.121 -0.7838 -0.4979  0.0702
19320TIP3   OH279374   3.923   2.255   2.055  0.8427  0.0948 -0.0698
19320TIP3    H179375   3.865   2.252   1.979 -0.8204 -1.6895  1.1941
19320TIP3    H279376   3.870   2.293   2.125  1.4757 -0.7250  0.8854
19321TIP3   OH279377   5.336   1.729  15.602 -0.6049  0.3468  0.3399
19321TIP3    H179378   5.245   1.701  15.590 -0.9676  1.4107  0.4620
19321TIP3    H279379   5.345   1.806  15.545  0.8119 -0.8873 -1.1945
19322TIP3   OH279380   5.887   2.080  13.600  0.6875 -0.0054 -0.2214
19322TIP3    H179381   5.945   2.117  13.667  1.0663 -1.1896  0.1242
19322TIP3    H279382   5.941   2.019  13.551 -0.0319 -0.4384 -0.4967
19323TIP3   OH279383   6.305   4.733  14.316 -0.0435  0.6079 -0.3454
19323TIP3    H179384   6.316   4.668  14.247 -0.2497  1.2154 -0.9594
19323TIP3    H279385   6.389   4.780  14.318  0.8074 -0.8528  1.3645
19324TIP3   OH279386   5.443   4.523   5.270 -0.9346 -0.7414 -0.3125
19324TIP3    H179387   5.460   4.456   5.337 -1.3506  0.8244  1.4625
19324TIP3    H279388   5.485   4.489   5.191 -0.9963 -3.0026  0.5432
19325TIP3   OH279389   2.618   3.227   2.810 -0.0012  0.6355 -0.1161
19325TIP3    H179390   2.610   3.322   2.823  1.1815  0.5552  1.4948
19325TIP3    H279391   2.528   3.197   2.796 -0.5006  1.8778  0.3073
19326TIP3   OH279392   2.357   4.169   4.349 -0.1005 -0.2748 -0.6607
19326TIP3    H179393   2.334   4.204   4.435 -1.0576 -0.3782 -0.8649
19326TIP3    H279394   2.437   4.215   4.325 -1.7261  2.4872 -1.2923
19327TIP3   OH279395   4.585   4.396   1.428  0.2152 -0.2324  0.1754
19327TIP3    H179396   4.563   4.433   1.343  1.4008  1.0004  0.3541
19327TIP3    H279397   4.648   4.327   1.409  0.3064 -0.1097  0.0269
19328TIP3   OH279398   2.469   5.972   5.430 -0.3735 -0.1946 -0.2311
19328TIP3    H179399   2.462   5.992   5.337 -0.7477 -0.0112 -0.1673
19328TIP3    H279400   2.415   5.894   5.442  0.4496 -0.7939 -0.3367
19329TIP3   OH279401   3.855   6.055  10.794 -0.1828 -0.1305 -0.1066
19329TIP3    H179402   3.769   6.088  10.767 -0.5020  0.1405  1.1755
19329TIP3    H279403   3.917   6.103  10.739 -0.7208  1.5218  0.6381
19330TIP3   OH279404   1.903   5.183  15.742  0.0031 -0.7331 -0.4502
19330TIP3    H179405   1.913   5.207  15.835  1.4237 -0.1734 -0.7190
19330TIP3    H279406   1.992   5.160  15.714 -0.4797 -1.2498 -1.5830
19331TIP3   OH279407   3.975   6.437   0.782  0.8018 -0.1373 -0.8840
19331TIP3    H179408   3.890   6.420   0.822  0.8305  0.0990 -0.7215
19331TIP3    H279409   3.995   6.528   0.804  1.1007 -0.1918 -0.9129
19332TIP3   OH279410   3.999   5.744  14.717 -0.2478 -0.0359 -0.3810
19332TIP3    H179411   3.975   5.776  14.804  0.6609 -3.0585  1.1260
19332TIP3    H279412   4.086   5.707  14.728 -0.1905 -0.6922 -2.5379
19333TIP3   OH279413   2.690   6.212   4.301  0.5391  0.2308 -0.2004
19333TIP3    H179414   2.714   6.278   4.235 -0.4275  0.8218  0.0191
19333TIP3    H279415   2.735   6.241   4.381  0.5763  0.2977 -0.2446
19334TIP3   OH279416   3.645   2.883  17.034  0.5012  0.2689  0.2829
19334TIP3    H179417   3.566   2.830  17.034 -0.0862  1.0184 -2.5952
19334TIP3    H279418   3.714   2.822  17.060 -0.4424 -1.4068 -0.9681
19335TIP3   OH279419   6.416   3.671  16.605 -0.0178 -0.0131 -0.0174
19335TIP3    H179420   6.379   3.700  16.522  0.0484 -0.7893 -0.3164
19335TIP3    H279421   6.451   3.584  16.588  0.9202  0.2300  0.5579
19336TIP3   OH279422   5.232   1.783  11.252  0.4502 -0.3462 -0.1984
19336TIP3    H179423   5.246   1.690  11.232  0.2012 -0.1425 -1.3661
19336TIP3    H279424   5.196   1.820  11.172 -0.2813  0.5897  0.5383
19337TIP3   OH279425   2.690   2.958   4.825  0.5219 -0.4174  0.0022
19337TIP3    H179426   2.600   2.929   4.813 -0.0907  1.0728  0.6551
19337TIP3    H279427   2.683   3.053   4.837  2.3135 -0.0633 -1.2657
19338TIP3   OH279428   4.284   6.428  13.357 -0.3639  0.3044 -0.1408
19338TIP3    H179429   4.356   6.380  13.315 -0.8401 -0.3506 -0.2130
19338TIP3    H279430   4.328   6.487  13.419  0.2626  0.2644 -0.5311
19339TIP3   OH279431   2.546   2.209   5.137  0.1616 -0.2426  0.1044
19339TIP3    H179432   2.600   2.207   5.058 -0.2535  0.5604 -0.2049
19339TIP3    H279433   2.462   2.171   5.110 -0.0575  0.2414  0.0965
19340TIP3   OH279434   0.521   4.700  14.617 -0.3364  0.1772 -0.6709
19340TIP3    H179435   0.481   4.671  14.535 -0.4490 -0.8997 -0.2413
19340TIP3    H279436   0.541   4.793  14.602 -1.9418  0.4520 -1.3092
19341TIP3   OH279437   4.262   5.714  11.533  0.0809 -0.1741 -0.5356
19341TIP3    H179438   4.168   5.696  11.544 -0.3890  1.9334 -0.6867
19341TIP3    H279439   4.273   5.723  11.438  1.1290 -3.4835 -0.8454
19342TIP3   OH279440   2.598   3.699  11.852  0.3150 -0.2076 -0.1047
19342TIP3    H179441   2.633   3.786  11.868  2.0731 -0.4231 -2.2413
19342TIP3    H279442   2.630   3.647  11.926  1.7993  0.3521 -0.3108
19343TIP3   OH279443   5.503   3.016   4.469 -0.0295 -0.5993 -0.3769
19343TIP3    H179444   5.521   2.945   4.407  2.2153  1.2167 -1.9632
19343TIP3    H279445   5.438   3.070   4.425 -1.0236 -1.1223  0.4156
19344TIP3   OH279446   1.967   6.658  15.752  0.3428  0.3485  0.3061
19344TIP3    H179447   1.880   6.619  15.742  0.2663  0.6680 -0.3951
19344TIP3    H279448   1.988   6.648  15.844 -0.6503  0.7090  0.5783
19345TIP3   OH279449   3.444   0.996  15.683 -0.0246  0.0290 -0.6977
19345TIP3    H179450   3.379   1.028  15.746 -0.1840 -3.1001  0.9210
19345TIP3    H279451   3.393   0.952  15.615  0.2527 -1.9504  0.2876
19346TIP3   OH279452   6.487   2.029   0.989  0.7991  0.2209  0.5096
19346TIP3    H179453   6.416   1.990   1.041 -1.7857  1.5106 -1.7560
19346TIP3    H279454   6.491   2.120   1.018  0.1954  0.6264 -0.6062
19347TIP3   OH279455   4.628   6.401  16.359 -0.2960  0.1007 -0.0416
19347TIP3    H179456   4.616   6.449  16.278  0.5253  1.9889  0.9070
19347TIP3    H279457   4.568   6.442  16.421 -0.3799 -0.8374  0.5271
19348TIP3   OH279458   6.399   0.454  16.277 -0.1263 -0.1919  0.7248
19348TIP3    H179459   6.401   0.483  16.186  0.5368  1.3108  1.1847
19348TIP3    H279460   6.404   0.358  16.272  0.5867 -0.0998 -0.7929
19349TIP3   OH279461   2.073   2.321   0.836 -0.3084 -0.5559  0.1468
19349TIP3    H179462   1.990   2.360   0.864 -1.4290 -2.0464 -0.9742
19349TIP3    H279463   2.140   2.379   0.874 -1.8434  1.5006 -0.0801
19350TIP3   OH279464   6.448   5.261   5.089 -0.1499 -0.4986  0.0634
19350TIP3    H179465   6.458   5.315   5.011 -2.5843 -0.9181 -0.6344
19350TIP3    H279466   6.494   5.309   5.158  1.9767 -0.0649 -1.5561
19351TIP3   OH279467   6.479   0.092   4.510  0.6106  0.5067 -0.2762
19351TIP3    H179468   6.568   0.070   4.537  0.2230 -0.5569  0.1841
19351TIP3    H279469   6.455   0.023   4.448  0.1817  0.9193 -0.5825
19352TIP3   OH279470   5.031   2.032   5.037 -0.2125  0.2116 -0.7088
19352TIP3    H179471   4.942   2.026   5.073  0.0072  0.9658 -0.0035
19352TIP3    H279472   5.081   2.076   5.105  0.5025  0.5906 -1.4662
19353TIP3   OH279473   1.181   2.343  13.967  0.3075  0.1365  0.0428
19353TIP3    H179474   1.184   2.404  13.893 -1.7886  0.8811  0.5305
19353TIP3    H279475   1.251   2.280  13.948  0.4490  0.8600 -2.0773
19354TIP3   OH279476   2.573   3.628   2.546 -0.0824 -0.2724 -0.5036
19354TIP3    H179477   2.631   3.555   2.568 -1.5332 -1.0931  0.7785
19354TIP3    H279478   2.564   3.676   2.628 -0.0905  0.6840 -1.0529
19355TIP3   OH279479   6.606   2.888  10.495 -0.5112 -0.4260 -0.0685
19355TIP3    H179480   6.526   2.858  10.539 -0.6993 -1.9091 -1.3514
19355TIP3    H279481   6.612   2.835  10.416  1.6566 -0.2294 -0.1098
19356TIP3   OH279482   0.733   0.854  14.129  0.2240  0.0305 -0.2347
19356TIP3    H179483   0.729   0.807  14.212 -1.6046  0.2424 -0.1826
19356TIP3    H279484   0.671   0.926  14.138 -0.0963 -0.0028 -1.8327
19357TIP3   OH279485   1.244   2.573   0.453  0.2706  0.2603  0.1007
19357TIP3    H179486   1.166   2.538   0.496 -0.8694  3.6221  1.1608
19357TIP3    H279487   1.259   2.658   0.496  2.7850  1.0703 -2.0543
19358TIP3   OH279488   1.371   1.710  11.901 -0.2940  0.2951 -0.1152
19358TIP3    H179489   1.299   1.660  11.938 -0.2109 -0.0528 -0.4065
19358TIP3    H279490   1.445   1.648  11.901 -0.2174  0.3807 -0.5754
19359TIP3   OH279491   2.399   2.898  14.795  0.3434  0.2777 -0.2685
19359TIP3    H179492   2.483   2.912  14.839  0.2967  2.0823 -0.6532
19359TIP3    H279493   2.333   2.915  14.862  0.2771 -0.9894 -0.0056
19360TIP3   OH279494   0.507   0.507   5.524  0.1030 -0.3931  0.4548
19360TIP3    H179495   0.591   0.550   5.543 -0.9130  2.0634 -0.1545
19360TIP3    H279496   0.526   0.452   5.448  1.3739 -0.7518  0.9872
19361TIP3   OH279497   2.860   1.313  17.413 -0.0997  0.4582  0.6393
19361TIP3    H179498   2.877   1.235  17.359  1.3149 -0.1464  1.8690
19361TIP3    H279499   2.845   1.278  17.501  0.1240  1.5627  1.1332
19362TIP3   OH279500   4.847   3.207  13.449 -0.7540 -0.1334  0.4178
19362TIP3    H179501   4.912   3.228  13.382 -0.3559 -0.3186  0.7494
19362TIP3    H279502   4.843   3.112  13.450 -0.1342 -0.1645  1.2517
19363TIP3   OH279503   0.151   3.761  17.106 -0.1888 -0.6478 -0.3338
19363TIP3    H179504   0.246   3.757  17.119  0.1833  2.9609 -0.6706
19363TIP3    H279505   0.116   3.784  17.193 -0.3994  0.4711 -0.6914
19364TIP3   OH279506   3.967   6.600  10.360 -0.1720 -0.2349  0.3936
19364TIP3    H179507   3.973   6.534  10.430 -2.5251  0.6301  1.5429
19364TIP3    H279508   3.918   6.672  10.400 -0.4858  0.8329 -1.7941
19365TIP3   OH279509   1.747   4.917  10.862 -0.7355  0.0328 -0.0004
19365TIP3    H179510   1.799   4.970  10.922  0.6983 -1.4019  0.1023
19365TIP3    H279511   1.794   4.833  10.858 -1.9002 -0.5876 -1.5724
19366TIP3   OH279512   2.855   0.838  14.878  0.2597 -0.6663  0.0018
19366TIP3    H179513   2.949   0.828  14.864  0.2117  0.3910 -1.2700
19366TIP3    H279514   2.815   0.776  14.818  0.1276 -1.6191  1.0402
19367TIP3   OH279515   2.563   2.610   2.772 -0.4893 -0.2195  0.1311
19367TIP3    H179516   2.581   2.523   2.807  1.0661  0.1876  0.4372
19367TIP3    H279517   2.640   2.661   2.795 -1.0215  1.0312 -0.7469
19368TIP3   OH279518   0.019   0.557  14.927  0.2817 -0.2644  0.3209
19368TIP3    H179519   0.091   0.570  14.988 -0.9157  0.3559  1.6734
19368TIP3    H279520  -0.048   0.619  14.957 -1.2846 -1.6926 -0.0978
19369TIP3   OH279521   6.412   4.302   6.015 -1.0151 -0.0377  0.5112
19369TIP3    H179522   6.366   4.349   6.084 -2.5860  1.1116 -1.2154
19369TIP3    H279523   6.393   4.210   6.032 -0.3093  0.0957  2.2778
19370TIP3   OH279524   1.362   6.211   4.604 -0.4485 -0.0319 -0.4631
19370TIP3    H179525   1.425   6.187   4.537  0.0766  1.8622 -0.7147
19370TIP3    H279526   1.303   6.273   4.561 -0.7664  0.3732  0.5146
19371TIP3   OH279527   1.452   2.723   1.010  0.3270 -0.3146 -0.1118
19371TIP3    H179528   1.462   2.629   0.995  1.4479 -0.6127  2.1423
19371TIP3    H279529   1.532   2.761   0.975  0.7752 -0.4468  0.7551
19372TIP3   OH279530   4.349   5.536   0.254  0.0193 -0.2811 -0.0365
19372TIP3    H179531   4.387   5.568   0.173 -1.2957 -1.9955 -1.4023
19372TIP3    H279532   4.385   5.447   0.264 -0.7776 -0.5504  0.5910
19373TIP3   OH279533   4.791   2.666  13.205  0.6800  0.2847 -0.3130
19373TIP3    H179534   4.770   2.671  13.298  0.1264 -1.0121 -0.3496
19373TIP3    H279535   4.883   2.695  13.200  1.1651 -0.9520  0.8317
19374TIP3   OH279536   0.355   6.184   2.049 -0.3932  0.3776 -0.3077
19374TIP3    H179537   0.428   6.152   2.102 -0.8448 -1.9314 -0.9694
19374TIP3    H279538   0.394   6.213   1.967 -0.2270 -1.3232 -0.8556
19375TIP3   OH279539   0.498   0.957  14.014  0.0408 -0.3516 -0.5225
19375TIP3    H179540   0.541   0.948  13.929 -0.1666 -1.1347 -0.5552
19375TIP3    H279541   0.413   0.915  14.003  0.3139 -1.1559  0.2905
19376TIP3   OH279542   2.296   3.564   2.567 -0.0082  0.2750 -0.1738
19376TIP3    H179543   2.315   3.576   2.474 -0.1357 -0.5929 -0.3198
19376TIP3    H279544   2.380   3.538   2.605 -0.0810  0.0672 -0.1533
19377TIP3   OH279545   4.257   5.214   1.118 -0.4722 -0.3553  0.5246
19377TIP3    H179546   4.202   5.272   1.065  0.2901  0.1767  0.2873
19377TIP3    H279547   4.241   5.242   1.208  0.5663  0.8824  0.3631
19378TIP3   OH279548   1.466   3.417  12.087 -0.6773  0.0583 -0.4093
19378TIP3    H179549   1.546   3.459  12.056 -0.8893  0.4595 -0.4211
19378TIP3    H279550   1.432   3.371  12.011  0.3875 -1.4661 -0.0020
19379TIP3   OH279551   1.728   5.184  11.807 -0.2377  0.0338  0.0565
19379TIP3    H179552   1.697   5.161  11.719 -1.3369  0.5440  0.3024
19379TIP3    H279553   1.762   5.101  11.841  1.4024  0.0784 -1.2969
19380TIP3   OH279554   0.099   0.779   5.967  0.0150 -0.5650  0.0982
19380TIP3    H179555   0.074   0.737   6.049 -0.7713 -1.0398 -0.3782
19380TIP3    H279556   0.124   0.707   5.910 -1.8663 -0.4675 -0.9111
19381TIP3   OH279557   1.398   1.883  14.733  0.5206 -0.1372  0.1449
19381TIP3    H179558   1.303   1.874  14.744  0.2059  3.0878  0.8586
19381TIP3    H279559   1.434   1.865  14.821  0.5823 -0.9860 -0.0402
19382TIP3   OH279560   5.246   2.745   2.447 -0.0448  0.5023  0.1011
19382TIP3    H179561   5.191   2.721   2.521  0.1028  0.3933  0.1753
19382TIP3    H279562   5.335   2.721   2.474  0.0214  0.5500 -0.0725
19383TIP3   OH279563   3.419   0.430  13.870  0.2258  0.1688 -0.0980
19383TIP3    H179564   3.464   0.474  13.798 -0.4422  2.2667  0.6623
19383TIP3    H279565   3.482   0.430  13.941  1.0650 -2.3624 -0.7570
19384TIP3   OH279566   5.276   3.919   1.016 -0.2142 -0.0125  0.2177
19384TIP3    H179567   5.270   3.884   0.927 -1.6127  0.3195  0.1534
19384TIP3    H279568   5.186   3.942   1.039  0.1072 -0.1006  1.7280
19385TIP3   OH279569   2.622   3.067   2.293 -0.6093  0.3700  0.2797
19385TIP3    H179570   2.535   3.042   2.262 -0.3435 -0.5250  0.2242
19385TIP3    H279571   2.641   3.148   2.246 -1.2383  0.3469 -0.0308
19386TIP3   OH279572   6.571   2.455   6.143 -0.3999  0.0550 -0.0605
19386TIP3    H179573   6.658   2.420   6.126 -0.4150  0.6413 -1.4821
19386TIP3    H279574   6.562   2.451   6.238  0.5472 -1.4842  0.0124
19387TIP3   OH279575   4.667   6.575   1.719  0.3498 -0.2968  0.2524
19387TIP3    H179576   4.635   6.563   1.630 -1.5678  1.3566  0.6558
19387TIP3    H279577   4.699   6.488   1.744  0.4369 -0.9319 -1.8260
19388TIP3   OH279578   3.380   2.416   0.664  0.0244  0.1032  0.0673
19388TIP3    H179579   3.376   2.363   0.585  0.1452 -0.7088  0.5963
19388TIP3    H279580   3.317   2.376   0.724  0.5702  0.1631  0.6972
19389TIP3   OH279581   4.007   3.656   1.595 -0.0302  0.2078 -0.2786
19389TIP3    H179582   4.027   3.609   1.514  0.3692  0.2244 -0.1960
19389TIP3    H279583   4.092   3.662   1.640 -0.4282 -0.7669  0.6486
19390TIP3   OH279584   6.213   2.952   2.922  0.7976  0.0482  0.3409
19390TIP3    H179585   6.241   2.913   2.840  4.2735 -1.4919  2.0546
19390TIP3    H279586   6.176   2.879   2.972  2.3635  0.0091  1.5338
19391TIP3   OH279587   0.717   2.465   5.623  0.8991 -0.4587  0.0343
19391TIP3    H179588   0.651   2.468   5.554  0.7277 -2.0776  0.0950
19391TIP3    H279589   0.673   2.424   5.697  0.8429  1.9460  1.4288
19392TIP3   OH279590   0.097   0.265   1.210  0.1799 -0.6349 -0.2911
19392TIP3    H179591   0.111   0.332   1.277  0.3507 -0.4664 -0.4923
19392TIP3    H279592   0.004   0.243   1.216  0.1652 -0.5201 -0.0930
19393TIP3   OH279593   1.234   4.325  14.893 -0.4278 -0.0294 -0.1225
19393TIP3    H179594   1.222   4.254  14.956  0.6289 -0.7252 -0.6840
19393TIP3    H279595   1.220   4.405  14.945  2.2436 -0.4872  1.5261
19394TIP3   OH279596   0.723   0.472  14.161 -0.7899 -0.1942  0.1730
19394TIP3    H179597   0.798   0.478  14.101 -0.0040 -2.7065  0.8082
19394TIP3    H279598   0.747   0.529  14.235  0.3574 -0.7201  0.2242
19395TIP3   OH279599   4.993   0.531   4.596 -0.0103 -0.0337  0.2748
19395TIP3    H179600   5.079   0.516   4.558  0.1462  1.0348  0.1577
19395TIP3    H279601   4.984   0.627   4.598 -0.9017 -0.1131  0.9340
19396TIP3   OH279602   6.351   1.252   1.343  0.3306 -0.6228 -0.4117
19396TIP3    H179603   6.303   1.190   1.397  0.8363 -1.1300 -0.5335
19396TIP3    H279604   6.420   1.285   1.401  0.1704 -0.3084 -0.4007
19397TIP3   OH279605   2.926   3.623  14.626  0.4065 -0.1650  0.1733
19397TIP3    H179606   2.928   3.528  14.641  0.0163  0.1877  2.8409
19397TIP3    H279607   2.869   3.657  14.694  0.8771  2.0603 -0.4682
19398TIP3   OH279608   4.984   0.879  11.050  0.1431  0.3893  0.5445
19398TIP3    H179609   5.077   0.870  11.071  0.1465  2.7490  1.8724
19398TIP3    H279610   4.938   0.854  11.130 -0.6137 -3.0931 -0.7860
19399TIP3   OH279611   6.091   2.635  13.506 -0.4109 -0.6725  0.0018
19399TIP3    H179612   6.010   2.657  13.552  0.2328 -0.7965  1.2318
19399TIP3    H279613   6.107   2.709  13.448 -0.2678  0.3751  1.3280
19400TIP3   OH279614   2.413   5.026   1.339  0.0217 -0.3755 -0.3293
19400TIP3    H179615   2.496   5.071   1.323 -0.6153  1.1973  0.6002
19400TIP3    H279616   2.387   5.054   1.427 -2.7729  1.3359 -1.5510
19401TIP3   OH279617   1.484   3.127   1.375 -0.4546  0.5214  0.2312
19401TIP3    H179618   1.452   3.141   1.285 -0.5417  1.2582  0.3710
19401TIP3    H279619   1.567   3.174   1.378 -0.7367  0.9954  0.7069
19402TIP3   OH279620   4.668   4.795   4.819 -0.1308 -0.1359 -0.5595
19402TIP3    H179621   4.610   4.793   4.895  0.1914  1.4135 -0.2338
19402TIP3    H279622   4.648   4.879   4.776  0.0160 -0.7823 -1.9334
19403TIP3   OH279623   3.270   1.463  13.591  0.0054  0.0347  0.7709
19403TIP3    H179624   3.330   1.392  13.569 -0.2697 -0.6103  2.0296
19403TIP3    H279625   3.188   1.420  13.611 -0.4708  0.8032  0.5326
19404TIP3   OH279626   1.167   6.309  17.493  0.2478 -0.5013 -0.6633
19404TIP3    H179627   1.215   6.361  17.558 -1.0713  0.0262 -0.0696
19404TIP3    H279628   1.173   6.359  17.412  1.1878 -0.7377 -0.7439
19405TIP3   OH279629   2.160   6.163   3.833 -0.0384 -0.0908  0.7268
19405TIP3    H179630   2.124   6.215   3.904  0.7306  0.9411  0.3845
19405TIP3    H279631   2.255   6.171   3.843  0.1119 -1.8470  0.9638
19406TIP3   OH279632   3.542   4.468   1.786  0.1267 -0.8109  0.1199
19406TIP3    H179633   3.513   4.416   1.712 -0.5550 -0.0164 -0.1768
19406TIP3    H279634   3.522   4.559   1.762  1.0119 -0.4310  0.7566
19407TIP3   OH279635   5.832   1.298   0.456  0.0724 -0.1505 -0.0001
19407TIP3    H179636   5.885   1.219   0.471  0.5581  0.1797  0.0440
19407TIP3    H279637   5.788   1.281   0.372 -2.4872 -1.9113  1.5298
19408TIP3   OH279638   0.250   2.327   1.491  0.1324  0.3303  0.1943
19408TIP3    H179639   0.268   2.300   1.401 -1.5163 -0.8962  0.1884
19408TIP3    H279640   0.335   2.321   1.535  0.6496 -0.6319 -0.8867
19409TIP3   OH279641   4.485   0.710   1.331  0.0125  0.0667  0.1471
19409TIP3    H179642   4.553   0.761   1.375  0.3393 -0.5443  0.3674
19409TIP3    H279643   4.513   0.619   1.342 -0.3358 -0.1378 -0.6089
19410TIP3   OH279644   5.556   4.540  16.851 -0.1137 -0.1113  0.5270
19410TIP3    H179645   5.591   4.629  16.859 -0.9073  0.1316  1.5469
19410TIP3    H279646   5.596   4.492  16.923  0.5318 -0.6748 -0.1904
19411TIP3   OH279647   0.978   4.190   5.008  0.3155  0.1241  0.8225
19411TIP3    H179648   1.032   4.253   4.961 -0.8433  0.4410 -0.1163
19411TIP3    H279649   1.041   4.133   5.052  1.5256 -0.7259 -1.7907
19412TIP3   OH279650   6.403   6.498  14.778  0.0854  0.3730  0.0159
19412TIP3    H179651   6.399   6.493  14.683  0.9451 -1.6156  0.0389
19412TIP3    H279652   6.318   6.464  14.808  0.6028 -1.0094 -0.0359
19413TIP3   OH279653   2.683   1.262  15.336 -0.2743  0.1744 -0.0237
19413TIP3    H179654   2.667   1.188  15.277 -0.8545  0.4389 -0.2051
19413TIP3    H279655   2.628   1.244  15.412  1.8329 -1.1121  1.2992
19414TIP3   OH279656   4.874   0.995  11.564 -0.1512 -0.6220 -0.2870
19414TIP3    H179657   4.962   0.982  11.598  0.9122 -0.3864 -2.7516
19414TIP3    H279658   4.861   1.090  11.566  0.4979 -0.4812 -1.8082
19415TIP3   OH279659   6.454   6.022  13.776  0.5599 -0.0074 -0.2543
19415TIP3    H179660   6.390   6.079  13.733  1.4244  0.5276 -0.8666
19415TIP3    H279661   6.539   6.062  13.756  1.0114  0.3559  2.0971
19416TIP3   OH279662   1.164   4.831   6.128 -0.3127  0.0001  0.4402
19416TIP3    H179663   1.206   4.824   6.214 -0.1716 -0.2231  0.3533
19416TIP3    H279664   1.075   4.859   6.148 -1.2986 -3.1429  0.9298
19417TIP3   OH279665   6.397   0.611   1.416 -0.0045 -0.0357  0.0679
19417TIP3    H179666   6.392   0.703   1.391 -0.4014  0.8187  2.9355
19417TIP3    H279667   6.376   0.610   1.510 -1.6352 -3.2424 -0.1904
19418TIP3   OH279668   1.013   3.093   0.479  0.1505 -0.0142 -0.2722
19418TIP3    H179669   1.031   3.030   0.409 -1.0844 -0.2791 -0.3635
19418TIP3    H279670   0.975   3.168   0.435  0.0446  0.1110  0.0285
19419TIP3   OH279671   4.542   3.958   6.740  0.1647  0.2285 -0.0931
19419TIP3    H179672   4.589   3.932   6.819  2.0424  1.1884 -0.8445
19419TIP3    H279673   4.542   3.880   6.685 -0.9434 -0.3722  0.7070
19420TIP3   OH279674   3.522   2.247   1.503 -0.2907 -0.5481  0.5313
19420TIP3    H179675   3.511   2.333   1.542 -0.2738  0.2382 -1.1056
19420TIP3    H279676   3.617   2.233   1.501 -0.1749  0.2615 -0.9085
19421TIP3   OH279677   3.629   1.181  11.930 -0.5926  0.6237 -0.9991
19421TIP3    H179678   3.619   1.127  11.851 -2.1050  2.0873 -1.9021
19421TIP3    H279679   3.597   1.126  12.001 -0.7860 -0.1570 -1.6708
19422TIP3   OH279680   1.696   1.332  17.457  0.1036 -0.1339 -0.7796
19422TIP3    H179681   1.790   1.333  17.475 -0.1713  1.0777  0.8737
19422TIP3    H279682   1.655   1.339  17.544 -1.4791  0.3728 -1.5313
19423TIP3   OH279683   4.488   1.694   3.151 -0.2278  0.1312 -0.0600
19423TIP3    H179684   4.578   1.699   3.120 -0.2847  0.2034 -0.2151
19423TIP3    H279685   4.447   1.628   3.095  0.5168 -2.1826  1.9468
19424TIP3   OH279686   4.788   4.381   1.944  0.1858 -0.2298  0.0865
19424TIP3    H179687   4.737   4.351   1.868 -0.2328  1.2954 -0.2860
19424TIP3    H279688   4.782   4.310   2.007 -1.7171 -0.4579 -0.2853
19425TIP3   OH279689   3.059   4.890   2.929 -0.0990  0.1336 -0.2634
19425TIP3    H179690   3.012   4.820   2.975 -0.1228  1.0794  1.1931
19425TIP3    H279691   2.995   4.959   2.918 -0.1766 -0.1674 -2.0342
19426TIP3   OH279692   2.126   4.806  17.515 -0.4252  0.6534  0.2716
19426TIP3    H179693   2.137   4.889  17.560  2.0399  0.8665 -0.5600
19426TIP3    H279694   2.112   4.829  17.423  0.5075  0.1905 -0.0051
19427TIP3   OH279695   2.891   2.491   5.451 -0.1606  0.0394  0.1181
19427TIP3    H179696   2.892   2.586   5.445 -0.1487  0.0730  0.6342
19427TIP3    H279697   2.982   2.465   5.438  0.0767  0.1925  1.3368
19428TIP3   OH279698   4.155   0.069   1.277  0.4235 -0.2637  0.0245
19428TIP3    H179699   4.172  -0.023   1.255  0.3323  0.1600 -2.0166
19428TIP3    H279700   4.066   0.084   1.244  0.2077  0.4161  0.8940
19429TIP3   OH279701   6.575   1.531  11.672  0.8151  0.3661  0.3291
19429TIP3    H179702   6.659   1.500  11.706 -0.2223 -2.2014  0.8056
19429TIP3    H279703   6.518   1.535  11.748 -0.1030 -0.2111 -0.3014
19430TIP3   OH279704   1.235   0.770  12.922 -0.1570  0.1349 -0.5371
19430TIP3    H179705   1.264   0.826  12.850 -0.9191  1.7032  0.3272
19430TIP3    H279706   1.266   0.814  13.001  0.1123 -1.2247  0.1514
19431TIP3   OH279707   4.973   3.688   0.791 -0.2754  0.2455  0.3099
19431TIP3    H179708   4.936   3.624   0.852 -0.4446 -0.2587 -0.3057
19431TIP3    H279709   4.902   3.751   0.776 -0.3667  0.1439  0.3157
19432TIP3   OH279710   5.214   3.388   2.116 -0.2755  0.2203  0.4335
19432TIP3    H179711   5.309   3.388   2.123 -0.3527 -2.0148  2.8546
19432TIP3    H279712   5.197   3.390   2.021  2.1326  0.8793 -0.0378
19433TIP3   OH279713   2.349   0.495   3.024 -0.5184  0.4910 -0.6053
19433TIP3    H179714   2.373   0.575   3.072 -0.5798 -0.1725  0.5837
19433TIP3    H279715   2.295   0.526   2.952  1.5858  1.7556 -1.7266
19434TIP3   OH279716   3.970   5.979   3.636 -0.6828  0.0342 -0.1076
19434TIP3    H179717   4.045   6.039   3.633  0.7356 -1.5058  1.9939
19434TIP3    H279718   3.924   6.003   3.717 -1.5288 -0.1116 -0.5351
19435TIP3   OH279719   4.445   0.734   4.579  0.2946  0.2966  0.4115
19435TIP3    H179720   4.453   0.681   4.500  0.4499  1.9940 -0.7581
19435TIP3    H279721   4.351   0.733   4.598  0.0969  0.7908 -0.4742
19436TIP3   OH279722   2.995   3.888  14.565 -0.4281  0.5050  0.1218
19436TIP3    H179723   2.988   3.798  14.596 -1.8317  0.3154 -0.6609
19436TIP3    H279724   2.930   3.894  14.494 -0.0058  1.9854 -0.1694
19437TIP3   OH279725   0.179   3.447   1.914 -0.2638 -0.1717  0.0954
19437TIP3    H179726   0.143   3.426   1.827 -1.7299 -2.5926  1.1806
19437TIP3    H279727   0.215   3.363   1.945 -1.2831  0.1909  2.4749
19438TIP3   OH279728   6.523   2.977  16.342 -0.1607  0.2278  0.3766
19438TIP3    H179729   6.429   2.971  16.323 -0.4277 -0.7813  1.8743
19438TIP3    H279730   6.527   3.022  16.427  0.7262  0.4231  0.2399
19439TIP3   OH279731   6.633   2.050   6.006  0.0850 -0.2315  0.2288
19439TIP3    H179732   6.693   2.046   6.081 -1.1741  0.7269  1.3259
19439TIP3    H279733   6.635   1.962   5.969  1.7436 -0.3675  0.5542
19440TIP3   OH279734   5.698   1.209   1.687  0.3229  0.1651 -0.5592
19440TIP3    H179735   5.730   1.233   1.600  0.6671 -1.1912 -0.8390
19440TIP3    H279736   5.714   1.114   1.693  1.0839  0.3701  1.3164
19441TIP3   OH279737   6.066   0.999   5.998 -0.4631 -0.4091  0.0503
19441TIP3    H179738   6.010   0.962   6.066 -2.1135 -0.9799 -1.5423
19441TIP3    H279739   6.119   0.925   5.967 -0.6878 -0.4590 -0.2136
19442TIP3   OH279740   6.525   4.248   1.032 -0.1948 -0.1427  0.1580
19442TIP3    H179741   6.546   4.187   0.961  0.1447  1.1804 -0.9373
19442TIP3    H279742   6.587   4.320   1.020 -1.3195  0.9534  0.6840
19443TIP3   OH279743   5.676   5.592  14.970 -0.8947  0.0756  0.2795
19443TIP3    H179744   5.737   5.522  14.995  1.1454  1.5801 -0.2754
19443TIP3    H279745   5.612   5.594  15.041 -1.8202 -3.1612 -0.2833
19444TIP3   OH279746   1.804   6.676   6.244 -0.1932 -0.0878 -0.6874
19444TIP3    H179747   1.758   6.672   6.160 -1.6204  1.0341  0.0079
19444TIP3    H279748   1.764   6.606   6.296  0.6042 -0.6986 -0.8643
19445TIP3   OH279749   0.747   2.537  16.771  0.2745  0.8850 -0.0574
19445TIP3    H179750   0.686   2.604  16.740  0.3671  0.4837 -1.1533
19445TIP3    H279751   0.738   2.466  16.708  1.0486  0.3568  0.4157
19446TIP3   OH279752   2.149   0.478  13.056 -0.1753 -0.5690 -0.1811
19446TIP3    H179753   2.056   0.490  13.077 -0.0371  0.3745 -0.0465
19446TIP3    H279754   2.149   0.426  12.976 -0.7954 -1.2655  0.2554
19447TIP3   OH279755   3.233   1.298  16.999  0.6133 -0.4908  0.0779
19447TIP3    H179756   3.155   1.287  16.945  0.8258 -1.5475 -0.0298
19447TIP3    H279757   3.273   1.378  16.966 -0.2368 -0.1253 -0.0943
19448TIP3   OH279758   6.388   1.488  12.374 -0.6499  0.6885  0.2963
19448TIP3    H179759   6.435   1.489  12.457 -2.3654  0.3088  1.3304
19448TIP3    H279760   6.313   1.545  12.388 -1.4925 -0.1374 -0.6587
19449TIP3   OH279761   0.540   2.466   5.404  0.0467 -0.0164  0.1421
19449TIP3    H179762   0.576   2.391   5.357  1.0158 -0.3968  1.4149
19449TIP3    H279763   0.445   2.454   5.399  0.0812  0.2458 -2.0926
19450TIP3   OH279764   3.816   6.495  14.599 -0.0180  0.1586  0.0830
19450TIP3    H179765   3.767   6.457  14.526  1.4912 -0.1358 -0.8186
19450TIP3    H279766   3.901   6.517  14.562  0.4023  1.0575  1.4983
19451TIP3   OH279767   2.474   4.837   0.124  0.0732 -0.5797  0.1459
19451TIP3    H179768   2.461   4.923   0.166 -1.3979 -1.0591  0.7470
19451TIP3    H279769   2.490   4.858   0.032 -0.1563  0.3580  0.3029
19452TIP3   OH279770   5.790   2.378   3.695 -0.3654 -0.0272 -0.1105
19452TIP3    H179771   5.869   2.432   3.688 -0.7700  0.7921  1.2403
19452TIP3    H279772   5.774   2.373   3.789 -1.8342 -0.3224 -0.3663
19453TIP3   OH279773   0.879   1.712  15.500  0.5677 -0.2022  0.1848
19453TIP3    H179774   0.871   1.807  15.510  2.8593  0.4685 -2.9300
19453TIP3    H279775   0.859   1.677  15.587 -2.5100  2.8758  0.9559
19454TIP3   OH279776   6.064   0.276  13.109  0.2157  0.2277  0.4901
19454TIP3    H179777   6.046   0.200  13.164 -2.3415  1.1567  1.0504
19454TIP3    H279778   6.078   0.239  13.022 -1.5533 -0.8694  0.6337
19455TIP3   OH279779   1.252   6.220   1.759  0.3404 -0.1305 -0.6040
19455TIP3    H179780   1.213   6.209   1.672  2.3282 -1.4755 -1.3827
19455TIP3    H279781   1.321   6.154   1.764 -0.3196 -0.7723  2.4030
19456TIP3   OH279782   4.410   4.032  17.003  0.1968  0.2962  0.4000
19456TIP3    H179783   4.431   3.987  16.921  1.2210 -0.3994  1.0218
19456TIP3    H279784   4.316   4.050  16.997  0.0651 -0.6089 -0.5055
19457TIP3   OH279785   3.883   5.791  10.858  0.3771  0.0763  0.4208
19457TIP3    H179786   3.825   5.866  10.846  0.9940  0.3621 -1.0023
19457TIP3    H279787   3.934   5.787  10.777  0.7452 -1.5493  0.6943
19458TIP3   OH279788   4.564   1.805  14.430 -0.5145 -0.6371  0.1481
19458TIP3    H179789   4.481   1.768  14.461  0.4890 -1.6674  1.7385
19458TIP3    H279790   4.581   1.878  14.489 -0.2602 -0.4445 -0.1602
19459TIP3   OH279791   3.517   2.577   5.847  0.3697 -0.1202  0.6047
19459TIP3    H179792   3.498   2.663   5.885  1.3117  0.3976 -0.0479
19459TIP3    H279793   3.568   2.597   5.768  0.2170 -1.2617  0.2036
19460TIP3   OH279794   5.157   4.139   4.511  0.3427 -0.0340 -0.3082
19460TIP3    H179795   5.075   4.096   4.486  0.5115 -1.3738  1.2664
19460TIP3    H279796   5.131   4.197   4.583  0.5349  0.7114 -0.8297
19461TIP3   OH279797   0.560   3.142  17.143 -0.4664  0.4205 -0.2944
19461TIP3    H179798   0.547   3.178  17.055 -1.5229  0.5182 -0.1177
19461TIP3    H279799   0.630   3.196  17.181 -0.1337  0.4989 -1.0044
19462TIP3   OH279800   1.627   5.618   2.307  0.1801  0.5170 -0.0750
19462TIP3    H179801   1.609   5.574   2.224  2.4526  1.6610 -1.2633
19462TIP3    H279802   1.704   5.574   2.342 -2.0305 -1.4958  2.7333
19463TIP3   OH279803   4.880   3.653  15.858  0.5544  0.5115  0.0316
19463TIP3    H179804   4.795   3.609  15.864 -0.0742  1.7199  0.3104
19463TIP3    H279805   4.863   3.730  15.803  1.7686  0.0876 -0.9665
19464TIP3   OH279806   0.563   2.713   1.247  0.2365 -0.1689 -0.0459
19464TIP3    H179807   0.476   2.674   1.259  0.5657 -0.8847  0.0844
19464TIP3    H279808   0.604   2.659   1.179  0.3453  0.5720 -0.5805
19465TIP3   OH279809   3.819   2.396   2.505  0.1534  0.3905 -0.1576
19465TIP3    H179810   3.855   2.322   2.554  3.6447  2.0989  0.1669
19465TIP3    H279811   3.768   2.445   2.569  2.8490  1.4144  1.3690
19466TIP3   OH279812   4.972   4.820   6.356  0.4353 -0.2625  0.2693
19466TIP3    H179813   4.975   4.832   6.451  1.6190  0.7487  0.1329
19466TIP3    H279814   4.887   4.781   6.339  0.5728 -1.3440  1.8431
19467TIP3   OH279815   4.758   5.443   1.378 -0.4607  0.5223 -0.2620
19467TIP3    H179816   4.806   5.460   1.297 -1.7093  1.6635 -0.8087
19467TIP3    H279817   4.825   5.429   1.444  0.6105  1.7295 -1.0551
19468TIP3   OH279818   2.955   4.138  17.421  0.6106 -0.1450  0.0348
19468TIP3    H179819   2.924   4.052  17.449 -0.9557  0.0922 -0.8465
19468TIP3    H279820   3.024   4.119  17.357 -0.1740 -0.7845 -0.6497
19469TIP3   OH279821   4.117   0.322  16.054 -0.3571  0.9859  0.0306
19469TIP3    H179822   4.168   0.367  15.987  1.9352 -1.2143  0.1367
19469TIP3    H279823   4.172   0.248  16.080 -2.4614  0.0556  2.2183
19470TIP3   OH279824   3.466   5.189  14.583 -0.8261  0.0947  0.0006
19470TIP3    H179825   3.394   5.194  14.645 -0.5102 -0.0211  0.3855
19470TIP3    H279826   3.437   5.239  14.507 -1.4726 -0.3007 -0.0156
19471TIP3   OH279827   6.075   5.625   4.985  0.3400  0.3570  0.3169
19471TIP3    H179828   6.038   5.641   5.071 -0.2621  0.5945  0.0160
19471TIP3    H279829   6.017   5.670   4.924  1.3437  1.0752 -0.1362
19472TIP3   OH279830   2.061   4.125  11.510  0.4232  0.9657  0.2739
19472TIP3    H179831   2.075   4.196  11.448  1.2898 -0.0699 -0.7527
19472TIP3    H279832   2.082   4.045  11.462  1.0832  0.1158  1.8767
19473TIP3   OH279833   1.805   2.320  16.394 -0.0681 -0.5082 -0.1204
19473TIP3    H179834   1.819   2.333  16.301 -2.9671 -0.8120 -0.6883
19473TIP3    H279835   1.842   2.233  16.412  1.3921 -0.0322 -0.7201
19474TIP3   OH279836   3.583   0.268  11.189 -0.5266  0.8598  0.3123
19474TIP3    H179837   3.604   0.182  11.151  1.1018  1.4415 -0.1920
19474TIP3    H279838   3.633   0.271  11.271 -1.7640  0.7557  1.0895
19475TIP3   OH279839   6.545   6.205  15.717 -0.5163  0.2343  0.2743
19475TIP3    H179840   6.600   6.276  15.684  0.3834 -0.1771  0.8670
19475TIP3    H279841   6.484   6.188  15.645 -0.6095  1.4452  0.0325
19476TIP3   OH279842   5.376   3.605  11.685  0.0446 -0.6465  0.0890
19476TIP3    H179843   5.327   3.585  11.764  0.1566  0.1140  0.3634
19476TIP3    H279844   5.330   3.679  11.646  0.0040 -0.9977 -0.5521
19477TIP3   OH279845   3.149   6.192  14.299 -0.2352 -0.3533  0.0015
19477TIP3    H179846   3.104   6.127  14.354 -0.0442 -0.8288 -0.3896
19477TIP3    H279847   3.204   6.241  14.360  0.6171 -1.4215  0.1347
19478TIP3   OH279848   0.533   4.822  14.069  0.1633  0.1355  0.4005
19478TIP3    H179849   0.511   4.915  14.063 -0.4457 -0.0866 -1.5422
19478TIP3    H279850   0.487   4.791  14.147  1.6974  1.7767  2.0362
19479TIP3   OH279851   3.266   3.401  13.664  0.0003 -0.2947  0.1942
19479TIP3    H179852   3.262   3.399  13.568 -1.1786 -0.7065  0.2412
19479TIP3    H279853   3.272   3.309  13.690 -1.1842 -0.2822  0.5570
19480TIP3   OH279854   5.281   1.447   2.469  0.2026 -0.0576  0.2577
19480TIP3    H179855   5.332   1.392   2.528  1.0918 -0.3242 -0.7187
19480TIP3    H279856   5.261   1.525   2.520  0.2945 -0.6116  1.1519
19481TIP3   OH279857   3.907   0.580  11.248 -0.6150  0.2651  0.0372
19481TIP3    H179858   3.818   0.561  11.215  0.0015  1.0922 -2.3246
19481TIP3    H279859   3.893   0.635  11.325 -2.1775 -1.8248  1.3371
19482TIP3   OH279860   1.487   2.548   1.848 -0.6701 -0.2988  0.6147
19482TIP3    H179861   1.580   2.525   1.850 -0.4519  0.6071  1.5985
19482TIP3    H279862   1.486   2.641   1.828 -1.2487  0.2365  2.9123
19483TIP3   OH279863   1.968   6.323   3.432  0.4905  0.1874 -0.4796
19483TIP3    H179864   1.909   6.275   3.374 -0.2277  0.3808  0.0821
19483TIP3    H279865   1.924   6.323   3.517  1.7297 -0.4874  0.1992
19484TIP3   OH279866   5.035   2.149   4.383  0.3730  0.5872  0.1367
19484TIP3    H179867   5.117   2.112   4.351  0.4813  1.0728 -0.1664
19484TIP3    H279868   5.030   2.121   4.474  1.1136  0.9303  0.2986
19485TIP3   OH279869   0.360   0.929  11.379 -0.1388 -0.4048  0.0735
19485TIP3    H179870   0.344   0.986  11.454 -0.4234  0.2225 -0.4499
19485TIP3    H279871   0.448   0.952  11.349 -0.7473  0.7242 -0.9366
19486TIP3   OH279872   2.839   3.942  12.251 -0.3599 -0.4231  0.0650
19486TIP3    H179873   2.843   3.868  12.312  0.2598 -1.0609 -0.7238
19486TIP3    H279874   2.828   3.901  12.165  1.6119  0.2794 -0.5842
19487TIP3   OH279875   5.734   1.683  12.687 -0.0866  0.2529  0.0470
19487TIP3    H179876   5.662   1.735  12.652  0.9899  0.6077 -1.7639
19487TIP3    H279877   5.749   1.718  12.775 -1.5575  0.7224  0.1348
19488TIP3   OH279878   3.639   1.475  11.877  0.1277 -0.1564  0.3183
19488TIP3    H179879   3.682   1.391  11.864 -2.8371 -1.5614 -1.6005
19488TIP3    H279880   3.667   1.528  11.802 -0.9196 -0.8625 -0.6078
19489TIP3   OH279881   3.249   3.479  14.601  0.2016 -0.0256  0.6189
19489TIP3    H179882   3.233   3.495  14.508 -0.8068 -2.2751  0.3518
19489TIP3    H279883   3.195   3.544  14.645 -2.1074 -1.1629 -0.3845
19490TIP3   OH279884   4.940   0.053  10.804  0.2264  0.1564 -0.4531
19490TIP3    H179885   4.979  -0.015  10.860 -0.7916 -0.1346 -0.0724
19490TIP3    H279886   4.928   0.128  10.863  1.6531  0.8109 -0.9485
19491TIP3   OH279887   4.624   5.665   5.794 -0.6486  0.6561  0.0126
19491TIP3    H179888   4.717   5.681   5.810 -0.7765  0.2576  1.2814
19491TIP3    H279889   4.587   5.648   5.881 -1.6604 -0.4852 -0.6079
19492TIP3   OH279890   5.402   4.682  16.039 -0.0668 -0.2796  0.2380
19492TIP3    H179891   5.415   4.677  16.134  0.2655 -0.6464  0.1776
19492TIP3    H279892   5.446   4.763  16.013 -2.4386  1.2730  0.7490
19493TIP3   OH279893   0.777   1.503   5.788 -0.7069 -0.3164 -0.8203
19493TIP3    H179894   0.690   1.468   5.807  0.0542 -0.6505  2.6261
19493TIP3    H279895   0.826   1.429   5.753 -0.9978 -0.9027  0.0079
19494TIP3   OH279896   3.436   0.342  16.760 -0.4755  0.2210  0.0083
19494TIP3    H179897   3.410   0.401  16.689 -1.7003  0.8503  0.9383
19494TIP3    H279898   3.496   0.395  16.814  1.3293 -0.6067 -1.0931
19495TIP3   OH279899   3.235   1.465   4.972 -0.3300 -0.3825  0.4013
19495TIP3    H179900   3.232   1.374   4.942  0.0899 -0.6896  1.2610
19495TIP3    H279901   3.179   1.465   5.050 -0.1726  0.0554  0.5112
19496TIP3   OH279902   5.129   6.032   4.375  0.0270  0.3378  0.2151
19496TIP3    H179903   5.222   6.037   4.398  0.9983  0.0976 -3.1880
19496TIP3    H279904   5.123   5.959   4.314 -2.0628  1.3897 -0.9463
19497TIP3   OH279905   3.447   1.154   5.102  0.5340 -0.0220  0.5086
19497TIP3    H179906   3.422   1.064   5.122  1.5151 -0.6920 -1.0968
19497TIP3    H279907   3.541   1.158   5.123  0.3116  0.9138  1.4259
19498TIP3   OH279908   2.815   0.529  12.314 -0.3733  0.2275  0.1296
19498TIP3    H179909   2.881   0.566  12.373 -1.1215  0.0115  1.1149
19498TIP3    H279910   2.866   0.501  12.238  0.5874  0.6855  0.5733
19499TIP3   OH279911   6.434   5.918  16.253 -0.9116  0.0739  0.2676
19499TIP3    H179912   6.350   5.921  16.207 -0.9556 -0.8083  0.2843
19499TIP3    H279913   6.412   5.887  16.341 -0.6845  0.7356  0.5661
19500TIP3   OH279914   5.989   3.064  16.231  0.1309  0.0852 -0.0720
19500TIP3    H179915   5.894   3.071  16.221 -0.1245  0.7352  2.3389
19500TIP3    H279916   6.011   2.981  16.189 -1.9424 -1.5634  1.8853
19501TIP3   OH279917   0.467   2.316   6.289 -0.4934  0.0381  0.3279
19501TIP3    H179918   0.444   2.231   6.251  1.3119 -1.3118  2.0487
19501TIP3    H279919   0.562   2.315   6.296 -0.3316  2.5668 -0.2766
19502TIP3   OH279920   2.941   3.650  13.628  0.0571 -0.4785  0.1645
19502TIP3    H179921   2.871   3.712  13.649 -0.3236 -0.4890 -0.9653
19502TIP3    H279922   3.008   3.704  13.586  0.8137 -0.4411  1.3848
19503TIP3   OH279923   3.314   0.409  11.076  0.3641  0.1030  0.4314
19503TIP3    H179924   3.254   0.342  11.042  0.8309  0.1233 -0.4548
19503TIP3    H279925   3.390   0.360  11.107  1.2920  0.2835 -1.4497
19504TIP3   OH279926   3.948   2.101  11.985 -0.0376  0.3585 -0.2981
19504TIP3    H179927   3.983   2.131  11.901 -1.8814  1.5321 -0.7135
19504TIP3    H279928   3.942   2.006  11.976  0.7823  0.3707 -1.0948
19505TIP3   OH279929   5.732   4.818  14.979  0.2613 -0.1518  0.4232
19505TIP3    H179930   5.723   4.850  14.889  1.2752  0.4514  0.5187
19505TIP3    H279931   5.824   4.834  15.000 -0.2063  0.7255  1.9356
19506TIP3   OH279932   6.441   0.868   4.233  0.0190 -0.4877 -0.5194
19506TIP3    H179933   6.441   0.964   4.233  0.6766 -0.4251 -2.6799
19506TIP3    H279934   6.407   0.844   4.319  0.3582  1.6748  0.2922
19507TIP3   OH279935   5.953   5.603  17.266 -0.1600 -0.2941  0.6107
19507TIP3    H179936   6.043   5.635  17.252  0.2684 -0.7395  2.1615
19507TIP3    H279937   5.956   5.561  17.352 -1.7067 -0.9190  0.3827
19508TIP3   OH279938   5.116   1.650   4.307  0.2173  0.0943 -0.3237
19508TIP3    H179939   5.112   1.554   4.314  2.3633 -0.3466 -3.1644
19508TIP3    H279940   5.040   1.673   4.254 -0.5724  0.0666  0.7658
19509TIP3   OH279941   1.505   4.927  15.826  0.2963  0.5570 -0.3828
19509TIP3    H179942   1.577   4.881  15.868  1.6309  1.5418 -1.4768
19509TIP3    H279943   1.465   4.862  15.768  0.9090  0.2411 -0.4599
19510TIP3   OH279944   1.484   5.344  17.331 -0.1275 -0.2239  0.2800
19510TIP3    H179945   1.558   5.390  17.291 -1.8970  1.8963 -0.7807
19510TIP3    H279946   1.475   5.385  17.418 -1.5997  1.4314 -0.6003
19511TIP3   OH279947   0.473   4.072   2.774  0.2619 -0.1236  0.6677
19511TIP3    H179948   0.458   3.978   2.762  2.8940 -0.6733  1.1662
19511TIP3    H279949   0.502   4.103   2.688  0.5120 -0.0184  0.7896
19512TIP3   OH279950   2.070   3.750   2.232  0.5594 -0.4306 -0.2453
19512TIP3    H179951   2.045   3.834   2.193 -1.8196 -0.4904  1.0066
19512TIP3    H279952   2.118   3.706   2.162 -0.5804  0.8328 -1.9294
19513TIP3   OH279953   0.574   1.764  11.910 -0.1536  0.0127  0.0323
19513TIP3    H179954   0.532   1.842  11.873 -3.6263 -0.9462  1.5312
19513TIP3    H279955   0.508   1.696  11.904  1.8489 -2.1682  1.1233
19514TIP3   OH279956   6.699   4.497   6.380 -0.8512 -0.1985  0.5066
19514TIP3    H179957   6.606   4.500   6.356 -1.0440  3.2704  1.2060
19514TIP3    H279958   6.700   4.509   6.475  0.3153  0.2856  0.4512
19515TIP3   OH279959   4.385   1.404  15.366  0.1807 -0.2001  0.1275
19515TIP3    H179960   4.316   1.407  15.433 -2.6704  0.0405 -2.5803
19515TIP3    H279961   4.411   1.495  15.354  0.9052 -0.2685  0.9852
19516TIP3   OH279962   1.216   6.417   0.811  0.5846  0.0693 -0.3190
19516TIP3    H179963   1.245   6.329   0.835  0.8434 -0.2282 -1.6702
19516TIP3    H279964   1.128   6.404   0.775  0.5124  0.4013 -0.2641
19517TIP3   OH279965   3.674   4.304   1.358 -0.3218  0.3703  0.0224
19517TIP3    H179966   3.716   4.323   1.274 -0.8440 -2.8071 -1.0985
19517TIP3    H279967   3.593   4.259   1.335  0.0682 -1.6431  2.1817
19518TIP3   OH279968   6.711   4.869   6.567 -0.5786 -0.0775  0.2413
19518TIP3    H179969   6.698   4.951   6.518  0.3001 -0.0954 -0.0329
19518TIP3    H279970   6.713   4.801   6.500  0.0022 -0.1749  0.3559
19519TIP3   OH279971   3.204   4.968  17.153  0.2501 -0.0490 -0.3456
19519TIP3    H179972   3.188   4.916  17.232  1.1379  2.3400  1.5465
19519TIP3    H279973   3.252   4.910  17.095 -1.4541 -2.2773  0.3444
19520TIP3   OH279974   3.758   2.431  16.086 -0.0453  0.5081 -0.0294
19520TIP3    H179975   3.698   2.468  16.020 -0.8748  1.8123  1.3661
19520TIP3    H279976   3.737   2.480  16.165 -0.0922 -1.9836  1.5876
19521TIP3   OH279977   4.989   6.151   0.512 -0.8511  0.2196 -0.8640
19521TIP3    H179978   4.979   6.083   0.446  0.6058  0.0268 -0.9280
19521TIP3    H279979   5.013   6.229   0.463  0.1127  0.1062 -0.6072
19522TIP3   OH279980   5.449   4.081  14.173 -0.1167  0.0004 -0.0995
19522TIP3    H179981   5.483   4.016  14.235 -0.3581  0.3319  0.3843
19522TIP3    H279982   5.515   4.150  14.172  0.2506 -0.3384 -0.7850
19523TIP3   OH279983   5.020   3.855  17.228 -0.0947  0.1149 -0.2144
19523TIP3    H179984   5.045   3.868  17.137  0.5156 -0.4050 -0.1268
19523TIP3    H279985   5.067   3.777  17.255 -0.1539  0.3488  0.5946
19524TIP3   OH279986   6.239   2.216  14.291 -0.2625 -0.4116 -0.4009
19524TIP3    H179987   6.327   2.193  14.261  0.3473 -0.3425  1.2121
19524TIP3    H279988   6.194   2.132  14.299 -0.6944 -0.3761 -2.1798
19525TIP3   OH279989   2.115   5.089   6.093 -0.1186  0.3796  0.2685
19525TIP3    H179990   2.052   5.119   6.159 -1.1137 -0.4837 -0.2724
19525TIP3    H279991   2.180   5.159   6.089 -1.3405  1.5663  0.4320
19526TIP3   OH279992   5.396   1.255  11.766  0.1006 -0.1314  0.2169
19526TIP3    H179993   5.467   1.300  11.812  1.7792 -1.3829 -1.0249
19526TIP3    H279994   5.344   1.214  11.835  1.6723 -0.7379  1.0784
19527TIP3   OH279995   1.390   6.631  17.382 -0.2346  0.2304  0.3423
19527TIP3    H179996   1.379   6.697  17.450  0.9099  0.9954 -0.1962
19527TIP3    H279997   1.389   6.680  17.300 -1.7720 -0.6978 -0.2411
19528TIP3   OH279998   3.014   6.557  13.813 -0.2192 -0.0539 -0.5685
19528TIP3    H179999   3.093   6.601  13.843 -2.2124  1.5380  2.9052
19528TIP3    H280000   2.965   6.624  13.765 -1.3908  0.3810  1.1510
19529TIP3   OH280001   3.888   5.494  11.462  0.0328  0.0050 -0.1278
19529TIP3    H180002   3.942   5.569  11.488  0.6179  0.1065 -1.5125
19529TIP3    H280003   3.825   5.531  11.401 -0.4088 -0.4391  0.0566
19530TIP3   OH280004   4.029   0.340   0.020 -0.0672  0.6613  0.2797
19530TIP3    H180005   4.103   0.299  -0.025  0.3232  1.0397  0.5740
19530TIP3    H280006   3.997   0.273   0.080 -0.9577 -0.0559 -0.9569
19531TIP3   OH280007   4.763   5.270  17.006 -0.4174 -0.4841 -0.5949
19531TIP3    H180008   4.825   5.342  16.995  0.8386 -1.1218  1.7918
19531TIP3    H280009   4.797   5.200  16.950 -0.0171 -0.2088 -0.6967
19532TIP3   OH280010   4.741   2.057   4.011  0.0305  0.5756  0.5281
19532TIP3    H180011   4.750   2.070   4.106 -1.5708 -0.1264  0.8017
19532TIP3    H280012   4.827   2.079   3.976  0.4811  1.4248  2.0829
19533TIP3   OH280013   3.234   0.591   2.572  0.8741 -0.5637 -0.1343
19533TIP3    H180014   3.253   0.557   2.485  1.3252  1.0441 -0.7062
19533TIP3    H280015   3.138   0.595   2.577  0.8605  0.4453 -1.0242
19534TIP3   OH280016   1.999   1.081  13.536 -0.4759 -0.4389  0.1394
19534TIP3    H180017   2.055   1.121  13.470 -0.6247  0.4535  0.5381
19534TIP3    H280018   1.964   1.155  13.585 -1.4533 -1.0270  0.3394
19535TIP3   OH280019   4.461   4.750  12.329 -0.0273 -0.2473 -0.1821
19535TIP3    H180020   4.523   4.794  12.387  0.6333  0.1769 -1.1881
19535TIP3    H280021   4.477   4.787  12.243 -0.2661 -1.6059 -0.8489
19536TIP3   OH280022   3.323   3.574   2.124  0.2405 -0.3791 -0.3572
19536TIP3    H180023   3.292   3.510   2.059 -0.4961 -0.3955  0.0020
19536TIP3    H280024   3.333   3.523   2.204 -0.9767  0.0790  0.0996
19537TIP3   OH280025   3.347   2.747  13.859  0.6468  0.8347  0.2212
19537TIP3    H180026   3.350   2.835  13.897  0.5735  0.5749  0.8453
19537TIP3    H280027   3.299   2.757  13.777 -1.0422  1.0433  1.2105
19538TIP3   OH280028   5.667   0.266  11.538 -0.3753 -0.1189 -0.1999
19538TIP3    H180029   5.596   0.320  11.505 -2.0407 -1.3079  1.2639
19538TIP3    H280030   5.706   0.318  11.608 -2.0650 -0.7627  1.3020
19539TIP3   OH280031   2.910   3.975   1.018 -0.0364 -0.4533  0.8325
19539TIP3    H180032   2.958   3.893   1.030 -0.0481 -0.4883  0.6533
19539TIP3    H280033   2.867   3.990   1.102 -2.0886 -1.9819  0.1486
19540TIP3   OH280034   0.509   2.249   3.575 -0.6647  0.5403 -0.2491
19540TIP3    H180035   0.573   2.297   3.523  0.5332  0.0450  0.7289
19540TIP3    H280036   0.460   2.198   3.511  2.5545 -2.1929 -0.8042
19541TIP3   OH280037   1.573   5.156  13.321 -0.3801 -0.6801 -0.0930
19541TIP3    H180038   1.516   5.135  13.394 -2.0761 -0.8309 -1.4031
19541TIP3    H280039   1.516   5.200  13.257  1.5292  1.6402 -0.3633
19542TIP3   OH280040   2.205   5.434   4.602  0.6876  0.1234 -0.0564
19542TIP3    H180041   2.185   5.518   4.560 -0.9171  1.0899  2.3967
19542TIP3    H280042   2.140   5.374   4.567  0.4531  0.4793 -0.2432
19543TIP3   OH280043   4.244   2.161  12.302  0.2729  0.0463  0.2683
19543TIP3    H180044   4.296   2.151  12.222 -0.3422  0.1951 -0.1507
19543TIP3    H280045   4.153   2.164  12.272 -0.2089 -2.6652  1.1597
19544TIP3   OH280046   5.894   2.773   3.464 -0.0937  0.4876  0.5420
19544TIP3    H180047   5.891   2.847   3.525  0.0090 -0.0263  1.1879
19544TIP3    H280048   5.959   2.799   3.398 -0.7489  1.3618  0.2231
19545TIP3   OH280049   1.563   6.331  12.489 -0.1895 -0.1834 -0.0988
19545TIP3    H180050   1.613   6.263  12.443  0.0579 -0.4900  0.6113
19545TIP3    H280051   1.600   6.413  12.457 -0.2576 -0.3879 -0.7072
19546TIP3   OH280052   1.100   0.254   5.115  0.2163  0.9288  0.3033
19546TIP3    H180053   1.193   0.255   5.092  0.5143  0.8767  1.4260
19546TIP3    H280054   1.094   0.314   5.189 -0.6961  1.1133  0.0902
19547TIP3   OH280055   0.511   5.804   0.200  0.0690 -0.0039 -0.4882
19547TIP3    H180056   0.564   5.869   0.246  1.7945 -1.2112 -0.6725
19547TIP3    H280057   0.442   5.781   0.263 -0.3609  1.7020 -0.2943
19548TIP3   OH280058   2.458   2.604  13.967 -0.9740  0.2905  0.6202
19548TIP3    H180059   2.406   2.650  14.033  0.0369  1.7395  0.4791
19548TIP3    H280060   2.430   2.513  13.973 -4.5552  1.1669 -0.4606
19549TIP3   OH280061   2.434   0.492   1.106  0.1102  0.2024  0.3037
19549TIP3    H180062   2.490   0.566   1.077  0.2094 -0.4884 -1.4253
19549TIP3    H280063   2.472   0.416   1.063 -1.9402 -0.3562 -0.6396
19550TIP3   OH280064   1.696   0.437  14.854 -0.0681 -0.1594  0.0270
19550TIP3    H180065   1.763   0.388  14.900  0.5891 -1.1712 -1.9085
19550TIP3    H280066   1.736   0.459  14.770 -1.7149  0.3195 -0.6686
19551TIP3   OH280067   2.129   3.724   5.914  0.0064 -0.0298 -0.1836
19551TIP3    H180068   2.168   3.812   5.908  0.1141  0.0307  1.1108
19551TIP3    H280069   2.065   3.722   5.844 -1.2913  1.7628  0.8532
19552TIP3   OH280070   2.036   3.604  14.229  0.3294  0.0448 -0.3007
19552TIP3    H180071   2.114   3.654  14.205  0.8209  0.4778  1.9316
19552TIP3    H280072   2.065   3.549  14.302 -1.1893 -0.5993 -0.1487
19553TIP3   OH280073   5.797   0.979  12.238 -0.3797  0.1580  0.1093
19553TIP3    H180074   5.760   1.008  12.321 -0.8084  0.1655 -0.0815
19553TIP3    H280075   5.868   0.919  12.263 -2.7779 -2.7797  0.5086
19554TIP3   OH280076   6.338   3.047   5.108  0.0819 -0.0818  0.1673
19554TIP3    H180077   6.263   3.048   5.049  0.2105  2.4450 -0.0902
19554TIP3    H280078   6.403   3.104   5.066  1.0205  0.0720  1.7209
19555TIP3   OH280079   2.887   5.727   4.442  0.1114 -0.0205 -0.1984
19555TIP3    H180080   2.861   5.774   4.521  0.8049  0.4218 -0.2288
19555TIP3    H280081   2.884   5.634   4.467 -1.0500  0.0260 -0.0784
19556TIP3   OH280082   3.685   3.899   3.169 -0.4312 -0.4923  0.0157
19556TIP3    H180083   3.722   3.818   3.133 -0.8082  0.2147 -2.1167
19556TIP3    H280084   3.746   3.968   3.141 -2.1407  0.4228 -1.7305
19557TIP3   OH280085   5.153   1.465   0.456  0.0101 -0.0308  0.0496
19557TIP3    H180086   5.205   1.421   0.524  0.2651  0.6401  0.3015
19557TIP3    H280087   5.200   1.448   0.375  0.8520  0.8778  0.3228
19558TIP3   OH280088   2.558   5.723   5.796  0.0815  0.1568 -0.3297
19558TIP3    H180089   2.487   5.695   5.854  1.5297 -1.7109  0.6637
19558TIP3    H280090   2.605   5.791   5.846 -0.3276  0.5846 -0.5197
19559TIP3   OH280091   3.087   5.695   3.378 -0.1950  0.0902  0.3345
19559TIP3    H180092   3.078   5.601   3.364 -1.1025  0.3352 -0.8234
19559TIP3    H280093   3.057   5.708   3.468 -1.6486 -0.5308 -0.0204
19560TIP3   OH280094   3.861   4.338  15.887 -0.1066  0.5572 -0.2832
19560TIP3    H180095   3.846   4.333  15.981 -2.7533  0.2930 -0.6424
19560TIP3    H280096   3.952   4.368  15.879  1.1467 -2.0506  2.2785
19561TIP3   OH280097   3.444   5.372  15.851 -0.4926 -0.3866 -0.4409
19561TIP3    H180098   3.483   5.350  15.766 -0.2090  0.8413 -0.6445
19561TIP3    H280099   3.479   5.459  15.872 -1.1095 -0.3756  0.6061
19562TIP3   OH280100   2.902   2.539  14.696  0.0028 -0.2945  0.3053
19562TIP3    H180101   2.831   2.602  14.687 -0.5505 -1.0922 -1.4094
19562TIP3    H280102   2.948   2.566  14.775 -0.3626  2.1046 -0.2047
19563TIP3   OH280103   4.925   1.998   6.145  0.0908 -0.3109 -0.1527
19563TIP3    H180104   4.961   1.939   6.211  0.7951 -2.2030 -2.1150
19563TIP3    H280105   4.990   1.998   6.074 -0.4543  1.9378 -0.7504
19564TIP3   OH280106   0.623   1.758  16.258  0.9020 -0.7246  0.1083
19564TIP3    H180107   0.625   1.753  16.353 -0.9229  0.6287  0.2690
19564TIP3    H280108   0.664   1.842  16.238  1.3715 -1.0499 -0.3088
19565TIP3   OH280109   1.766   4.191  13.303 -0.2392 -0.2568 -0.1473
19565TIP3    H180110   1.816   4.121  13.259 -0.3472  0.4343 -1.4133
19565TIP3    H280111   1.767   4.264  13.241 -2.6270 -0.1309 -0.1216
19566TIP3   OH280112   2.878   2.312  11.887 -0.2990 -0.1234  0.4453
19566TIP3    H180113   2.846   2.289  11.974 -0.6848 -0.3414  0.2473
19566TIP3    H280114   2.940   2.242  11.865 -1.6725 -1.1741 -0.2672
19567TIP3   OH280115   2.017   5.120  16.851 -0.0753  0.2794  0.3839
19567TIP3    H180116   2.030   5.028  16.873 -1.6687 -0.1877 -0.4151
19567TIP3    H280117   2.075   5.136  16.777  0.9666  0.2360  1.1619
19568TIP3   OH280118   5.180   2.252   6.317 -0.0025  0.2902 -0.2920
19568TIP3    H180119   5.138   2.186   6.262 -1.7956  0.6667  0.5384
19568TIP3    H280120   5.177   2.332   6.264 -0.8269  0.4236 -0.0694
19569TIP3   OH280121   0.241   3.843  14.599  0.1823 -0.1682  0.1446
19569TIP3    H180122   0.162   3.876  14.559  0.7505 -0.7192 -1.4963
19569TIP3    H280123   0.210   3.786  14.670 -0.8740 -0.0536 -0.2128
19570TIP3   OH280124   3.551   5.656   6.567 -0.2693  0.1108  0.3765
19570TIP3    H180125   3.644   5.676   6.578 -0.3237  0.8459 -0.3800
19570TIP3    H280126   3.549   5.589   6.498 -0.2637 -0.4478  0.9105
19571TIP3   OH280127   3.729   1.406   4.960  0.1222 -0.4446 -0.0589
19571TIP3    H180128   3.711   1.380   5.050  1.1154  0.6585  0.4905
19571TIP3    H280129   3.642   1.423   4.922 -0.2593  0.0087  0.9863
19572TIP3   OH280130   4.958   6.345  11.855 -0.6811  0.2451 -0.1410
19572TIP3    H180131   4.889   6.279  11.853 -0.0578 -0.4065 -1.0073
19572TIP3    H280132   5.021   6.313  11.920 -1.3967  1.0722  0.9882
19573TIP3   OH280133   1.852   5.108   2.432 -0.2910 -0.6341  0.0792
19573TIP3    H180134   1.930   5.076   2.387  0.0269 -0.7961  0.7345
19573TIP3    H280135   1.788   5.038   2.422 -0.3973 -0.4507 -0.5631
19574TIP3   OH280136   0.887   5.807   1.208 -0.0419  0.3042 -0.4892
19574TIP3    H180137   0.882   5.728   1.261  1.7950  0.9318  0.6883
19574TIP3    H280138   0.850   5.876   1.263  0.5000  0.6872 -0.5979
19575TIP3   OH280139   6.052   4.868  13.000  0.1950 -1.0028  0.7165
19575TIP3    H180140   6.028   4.813  12.925  1.3970 -1.8179  0.9076
19575TIP3    H280141   5.985   4.937  13.001  0.3588 -0.7279 -1.3529
19576TIP3   OH280142   6.186   2.662  10.776  0.6811  0.3641 -0.2329
19576TIP3    H180143   6.092   2.679  10.781  0.5901  0.0297 -0.7960
19576TIP3    H280144   6.196   2.572  10.807  0.7562  0.2339 -0.6262
19577TIP3   OH280145   4.298   4.563   6.009 -0.4426 -0.4839  0.0847
19577TIP3    H180146   4.282   4.640   6.064 -2.4501 -2.3935  2.4201
19577TIP3    H280147   4.392   4.546   6.018 -0.3201  0.6020  1.0450
19578TIP3   OH280148   3.839   0.899   1.337 -0.9845 -0.4413 -0.2974
19578TIP3    H180149   3.903   0.919   1.404 -1.1285  0.1814 -0.3440
19578TIP3    H280150   3.759   0.876   1.385 -0.4365 -2.3413 -0.2051
19579TIP3   OH280151   5.387   0.182   0.382 -0.3023 -0.1513 -0.0299
19579TIP3    H180152   5.396   0.259   0.326 -0.6322 -0.3559 -0.3765
19579TIP3    H280153   5.440   0.115   0.339  1.3217  0.3283  1.1544
19580TIP3   OH280154   0.421   0.724   0.396  0.8624 -0.2981 -0.0688
19580TIP3    H180155   0.350   0.753   0.339  1.9001 -0.1948 -1.3599
19580TIP3    H280156   0.379   0.669   0.462 -0.4658  0.1493 -0.5234
19581TIP3   OH280157   3.846   0.492  16.860 -0.5072 -0.6512  0.4806
19581TIP3    H180158   3.860   0.531  16.946  2.7981  0.2646 -0.3288
19581TIP3    H280159   3.817   0.403  16.879 -2.1964  0.2473  2.4545
19582TIP3   OH280160   3.616   4.520  12.032 -0.2898  0.0028 -0.2319
19582TIP3    H180161   3.659   4.511  12.116 -0.1655 -0.8472 -0.3729
19582TIP3    H280162   3.582   4.432  12.013  0.3223 -0.0031 -1.3983
19583TIP3   OH280163   2.041   2.200  10.948 -0.2283  0.0542 -0.0839
19583TIP3    H180164   2.060   2.147  10.871 -0.0441 -1.5726  1.0350
19583TIP3    H280165   2.114   2.262  10.954 -0.5299  0.5648 -1.5020
19584TIP3   OH280166   2.718   6.364   2.792 -1.0568 -0.7348  0.1303
19584TIP3    H180167   2.744   6.435   2.734  0.3505 -0.6844  0.8040
19584TIP3    H280168   2.637   6.395   2.833 -2.1251 -0.7999 -1.8050
19585TIP3   OH280169   2.068   4.722  12.207  0.4640 -0.1354  0.0045
19585TIP3    H180170   1.979   4.714  12.242 -1.2954 -0.7388 -4.0666
19585TIP3    H280171   2.082   4.641  12.158  2.0441  1.1682 -1.8754
19586TIP3   OH280172   4.506   0.428   1.357  0.0252 -0.1342 -0.3045
19586TIP3    H180173   4.547   0.406   1.273 -0.7468 -1.2271 -0.4122
19586TIP3    H280174   4.429   0.372   1.361 -1.7815  2.1993 -0.3422
19587TIP3   OH280175   1.422   5.819   6.460  0.5271 -0.2117  0.2942
19587TIP3    H180176   1.460   5.778   6.538  0.8049  0.2330  0.3949
19587TIP3    H280177   1.427   5.913   6.477 -0.1184 -0.1331  0.0698
19588TIP3   OH280178   1.789   6.521   3.243 -0.5857 -0.4012 -0.5524
19588TIP3    H180179   1.812   6.429   3.259 -2.2720 -0.5957  1.1562
19588TIP3    H280180   1.857   6.571   3.290  0.2979 -0.7472 -1.4290
19589TIP3   OH280181   2.744   3.480  10.820  0.3551  0.1156 -0.5038
19589TIP3    H180182   2.692   3.413  10.865 -1.1305  0.2651 -1.8903
19589TIP3    H280183   2.826   3.484  10.869 -0.6568 -0.6480  1.3381
19590TIP3   OH280184   2.990   3.498   4.469 -0.4561  0.1797 -0.1175
19590TIP3    H180185   3.056   3.471   4.405 -0.2322 -0.5981  0.4244
19590TIP3    H280186   2.977   3.591   4.452 -0.3192  0.0083 -1.2159
19591TIP3   OH280187   4.810   5.254  14.403  0.0943  0.2113 -0.3742
19591TIP3    H180188   4.727   5.207  14.395 -1.1630  2.0812  0.6888
19591TIP3    H280189   4.841   5.264  14.313 -0.4992 -1.0606 -0.7438
19592TIP3   OH280190   1.555   3.141  12.068  0.1251 -0.1618  1.1418
19592TIP3    H180191   1.482   3.201  12.080  0.6226  0.2345  2.2225
19592TIP3    H280192   1.619   3.166  12.134  1.0957 -0.7402  0.4478
19593TIP3   OH280193   3.193   0.925   6.137  0.5546 -0.6330 -0.1542
19593TIP3    H180194   3.104   0.897   6.162 -0.6281  2.0693 -0.9949
19593TIP3    H280195   3.231   0.958   6.219  0.4473 -0.9690  0.0333
19594TIP3   OH280196   5.783   6.503   3.529  0.2995 -0.2037 -0.0565
19594TIP3    H180197   5.748   6.592   3.524 -1.4313 -0.6808  2.0895
19594TIP3    H280198   5.860   6.511   3.585  1.4350  0.2175 -1.5985
19595TIP3   OH280199   0.267   1.122  11.514  0.4409 -0.1268  0.4206
19595TIP3    H180200   0.252   1.175  11.593  0.7174 -0.2742  0.5726
19595TIP3    H280201   0.256   1.184  11.442 -1.4637 -0.3364  0.4776
19596TIP3   OH280202   0.333   3.765   3.478 -0.5019 -0.3065  0.1613
19596TIP3    H180203   0.404   3.744   3.538 -0.6935  0.5862  0.7054
19596TIP3    H280204   0.313   3.681   3.435  0.4341 -0.6985  0.4629
19597TIP3   OH280205   2.783   1.672  10.774  0.3262 -0.4846  0.2292
19597TIP3    H180206   2.833   1.737  10.723  0.6237 -0.1003  0.9973
19597TIP3    H280207   2.750   1.611  10.708  0.0094  0.4626 -0.5207
19598TIP3   OH280208   4.051   5.396  11.136  0.6265 -0.8245 -0.2513
19598TIP3    H180209   4.029   5.438  11.219 -0.4234 -0.3764 -0.7490
19598TIP3    H280210   4.035   5.303  11.152 -0.5192 -0.6343 -0.2409
19599TIP3   OH280211   6.237   0.809  16.650 -0.0708  0.1334 -0.2624
19599TIP3    H180212   6.227   0.750  16.725 -0.3748  0.0701 -0.3520
19599TIP3    H280213   6.236   0.751  16.573 -2.7668  0.4247 -0.5316
19600TIP3   OH280214   3.601   4.434  15.927  0.1211  0.2836 -0.0494
19600TIP3    H180215   3.582   4.345  15.897 -1.3312  0.3620  0.5617
19600TIP3    H280216   3.692   4.449  15.900  0.9133 -1.9096  1.1027
19601TIP3   OH280217   0.096   4.484  16.508 -0.1674  0.1269 -0.6739
19601TIP3    H180218   0.035   4.514  16.576  1.7908  0.4470  1.0191
19601TIP3    H280219   0.149   4.561  16.488 -0.0669 -0.2431 -1.8698
19602TIP3   OH280220   2.857   1.274  13.070 -0.6828 -0.0297  0.4301
19602TIP3    H180221   2.881   1.311  12.985 -0.7666  1.2659  0.9426
19602TIP3    H280222   2.888   1.184  13.067  3.0089  1.0902  0.5092
19603TIP3   OH280223   1.192   5.338  14.329  0.1780 -0.4870  0.0616
19603TIP3    H180224   1.286   5.325  14.321  0.1369 -1.2674  0.6600
19603TIP3    H280225   1.154   5.252  14.308 -0.4766  0.0907 -1.2743
19604TIP3   OH280226   6.680   3.909   3.877  0.4681 -0.3029  0.1872
19604TIP3    H180227   6.771   3.880   3.868  1.0614  0.8815  2.0353
19604TIP3    H280228   6.686   4.003   3.889 -1.0722 -0.1367 -0.2141
19605TIP3   OH280229   6.318   2.107  12.889  0.5730 -0.8484 -0.1309
19605TIP3    H180230   6.402   2.092  12.933  0.5580 -0.2585  0.1014
19605TIP3    H280231   6.287   2.191  12.923 -1.0561 -1.9376  1.2652
19606TIP3   OH280232   5.455   6.172  14.828  0.4616 -0.5932  0.1923
19606TIP3    H180233   5.429   6.083  14.804  0.1355 -0.9041  1.6046
19606TIP3    H280234   5.453   6.221  14.745  1.9969 -2.1888 -0.8485
19607TIP3   OH280235   6.039   6.180   1.076 -0.2488  0.1394 -0.2606
19607TIP3    H180236   6.017   6.188   0.983 -1.0883  0.7028 -0.0181
19607TIP3    H280237   6.099   6.105   1.079  0.8807  0.9527 -1.4346
19608TIP3   OH280238   3.420   6.670   2.321 -0.2745  0.2774 -0.5231
19608TIP3    H180239   3.349   6.607   2.306  1.4254 -2.2963  1.3554
19608TIP3    H280240   3.400   6.708   2.407 -0.4291  1.1345 -0.9258
19609TIP3   OH280241   4.201   2.352  12.916  0.1327 -0.1454  0.6438
19609TIP3    H180242   4.134   2.361  12.849 -0.0319  0.0347  0.8341
19609TIP3    H280243   4.180   2.419  12.981  1.0336  0.5358  0.2528
19610TIP3   OH280244   3.010   2.417   2.399  0.5794 -0.5096 -0.3472
19610TIP3    H180245   2.937   2.406   2.460 -0.6391 -0.0561 -1.6568
19610TIP3    H280246   3.018   2.512   2.388  1.9902 -0.5152  0.4743
19611TIP3   OH280247   1.364   4.757   0.246  0.1699 -0.0650  0.4548
19611TIP3    H180248   1.286   4.721   0.202  2.0975 -1.9643 -1.6973
19611TIP3    H280249   1.330   4.799   0.324 -2.8365 -2.8228  0.8551
19612TIP3   OH280250   1.931   0.482   5.555  0.0643  0.1296 -0.1810
19612TIP3    H180251   1.893   0.431   5.483 -2.2856  1.0775  0.3019
19612TIP3    H280252   1.906   0.572   5.537  3.4882  1.1359 -0.6059
19613TIP3   OH280253   4.442   0.479  12.051 -0.4581  0.0090 -0.4822
19613TIP3    H180254   4.417   0.507  11.963 -1.7777 -0.8589 -0.4180
19613TIP3    H280255   4.381   0.408  12.072  0.9074 -0.9462  0.4794
19614TIP3   OH280256   2.078   1.480   3.791 -0.2517  0.3423  0.1527
19614TIP3    H180257   2.010   1.546   3.803  0.6050  1.0176  1.6654
19614TIP3    H280258   2.032   1.403   3.757 -1.5629  1.1479  0.0523
19615TIP3   OH280259   6.214   3.362  12.854  0.1013 -0.1393 -0.4336
19615TIP3    H180260   6.216   3.333  12.945  0.6564  1.5772  0.1249
19615TIP3    H280261   6.126   3.340  12.824  0.2970 -1.8509  0.0964
19616TIP3   OH280262   1.415   4.000   2.952 -0.2262  0.0202 -0.1873
19616TIP3    H180263   1.324   4.000   2.923 -0.5457  0.7137  0.7756
19616TIP3    H280264   1.448   4.087   2.931  0.2374 -0.2401 -0.5706
19617TIP3   OH280265   4.040   0.806   6.769  0.0773 -0.1779 -0.2179
19617TIP3    H180266   3.989   0.726   6.754 -0.0590 -0.4944  1.6957
19617TIP3    H280267   4.131   0.778   6.765  0.0529 -0.1974 -0.6754
19618TIP3   OH280268   6.529   4.197   3.591  0.0789 -0.2918 -0.1245
19618TIP3    H180269   6.586   4.152   3.528  0.0818 -0.0735 -0.2790
19618TIP3    H280270   6.587   4.222   3.662 -0.0705 -1.2634  0.3576
19619TIP3   OH280271   0.991   0.972  14.921  0.0497  0.3981  1.1254
19619TIP3    H180272   0.973   1.026  14.844 -0.1752  0.2838  1.0996
19619TIP3    H280273   1.084   0.950  14.913 -0.8344 -3.3886 -1.5742
19620TIP3   OH280274   3.923   3.170  12.109 -0.3119  0.2687 -0.0615
19620TIP3    H180275   3.935   3.228  12.184 -0.7683 -0.0815  0.2838
19620TIP3    H280276   3.969   3.214  12.037  2.7611 -0.8122  1.0828
19621TIP3   OH280277   0.868   2.195  13.752 -0.1523  0.2297 -0.3583
19621TIP3    H180278   0.955   2.237  13.754  0.3040 -0.7118  0.4054
19621TIP3    H280279   0.843   2.195  13.660  0.0106  1.8011 -0.4312
19622TIP3   OH280280   5.499   1.617   4.996 -0.2179  0.1320 -0.5065
19622TIP3    H180281   5.570   1.553   5.007  0.1889  0.4059 -1.4687
19622TIP3    H280282   5.530   1.676   4.928 -1.8032 -0.3433 -1.6905
19623TIP3   OH280283   2.251   1.506   1.806  0.1450  0.1330  0.0180
19623TIP3    H180284   2.279   1.505   1.897  1.3111 -1.4812 -0.2973
19623TIP3    H280285   2.158   1.487   1.809 -0.2680  2.1185  0.9458
19624TIP3   OH280286   6.449   1.165  14.406 -0.2278 -0.1277  0.5347
19624TIP3    H180287   6.386   1.237  14.403 -1.2143 -0.9091  1.5375
19624TIP3    H280288   6.428   1.111  14.329  1.5632  1.4448 -1.1435
19625TIP3   OH280289   3.272   3.624   2.614  0.0800  0.1196 -0.7887
19625TIP3    H180290   3.238   3.536   2.630 -1.1595  0.5555 -0.9218
19625TIP3    H280291   3.203   3.683   2.645  0.6657  1.0433 -1.1894
19626TIP3   OH280292   3.069   4.104   1.753  0.0060  0.4047 -0.0699
19626TIP3    H180293   3.099   4.190   1.722 -1.6038  1.2296  0.5623
19626TIP3    H280294   3.078   4.047   1.677  0.6600  1.2240 -0.6338
19627TIP3   OH280295   5.530   0.237  17.396 -0.0760  0.2175 -0.2233
19627TIP3    H180296   5.530   0.295  17.320  1.6495 -0.5964 -0.9121
19627TIP3    H280297   5.532   0.149  17.360  2.4961 -0.1893  0.6434
19628TIP3   OH280298   5.093   6.091   3.426 -0.9428  0.0645 -0.2023
19628TIP3    H180299   5.154   6.033   3.471 -0.7949  1.0568  0.9255
19628TIP3    H280300   5.030   6.117   3.492 -0.5962  1.7334 -0.4755
19629TIP3   OH280301   6.048   5.025  11.833  0.3889  0.0218  0.5070
19629TIP3    H180302   5.962   4.984  11.834  1.8069 -3.3047  0.9239
19629TIP3    H280303   6.057   5.064  11.920 -0.3603 -0.3706  0.7683
19630TIP3   OH280304   6.227   6.644  12.897 -0.3548 -0.1269 -0.0027
19630TIP3    H180305   6.261   6.658  12.985 -0.4044 -0.3045  0.0448
19630TIP3    H280306   6.164   6.572  12.906 -1.1565  0.5691  0.0039
19631TIP3   OH280307   2.493   4.908   5.962  0.0537  0.0597  0.0581
19631TIP3    H180308   2.541   4.933   6.041 -1.0938 -0.2151  0.8594
19631TIP3    H280309   2.527   4.822   5.939 -1.5225 -1.1272  1.8865
19632TIP3   OH280310   1.285   4.298  14.373  0.2368  0.5236  0.1839
19632TIP3    H180311   1.208   4.354  14.362  0.7059  1.6532  2.1940
19632TIP3    H280312   1.359   4.358  14.365  0.8334 -0.1872  0.3089
19633TIP3   OH280313   3.195   3.439  14.298  0.2893  0.1066 -1.0647
19633TIP3    H180314   3.281   3.403  14.275  0.6664  0.3941 -0.1402
19633TIP3    H280315   3.138   3.362  14.309  1.1256 -0.2734  1.0682
19634TIP3   OH280316   6.071   3.918  12.871 -0.1612 -0.1633  0.0536
19634TIP3    H180317   6.160   3.892  12.850  0.1978  0.8001  0.3406
19634TIP3    H280318   6.052   3.989  12.810 -0.7952 -0.4736 -0.1170
19635TIP3   OH280319   6.630   3.343  16.936  0.5968 -0.2760  0.1443
19635TIP3    H180320   6.609   3.270  16.876  2.6877 -0.9579  0.1486
19635TIP3    H280321   6.716   3.320  16.971  1.3471  2.2313  0.1280
19636TIP3   OH280322   1.468   1.085   2.705 -0.7109  0.4015  0.2098
19636TIP3    H180323   1.559   1.073   2.676  0.8686  0.3883  4.3352
19636TIP3    H280324   1.456   1.180   2.708 -0.1883  0.4585  1.0912
19637TIP3   OH280325   3.271   3.816  11.712  0.3783  0.1532  0.8526
19637TIP3    H180326   3.266   3.745  11.648 -1.3898  1.4461 -0.5692
19637TIP3    H280327   3.182   3.821  11.749  0.6319  1.2204  1.3590
19638TIP3   OH280328   0.894   3.673  13.337 -0.4733 -0.1736 -0.1774
19638TIP3    H180329   0.891   3.612  13.264  0.6601 -1.4181  0.7592
19638TIP3    H280330   0.870   3.620  13.414  1.1191  0.3533  0.7454
19639TIP3   OH280331   0.505   1.507   2.137  0.4845  0.5013 -0.1132
19639TIP3    H180332   0.569   1.578   2.146  0.6394  0.4556 -0.7855
19639TIP3    H280333   0.557   1.428   2.129  0.3161  0.3373  0.3480
19640TIP3   OH280334   5.233   2.470   3.216 -0.6539 -0.6006 -0.5996
19640TIP3    H180335   5.170   2.449   3.285 -0.4956 -0.7284 -0.4931
19640TIP3    H280336   5.294   2.532   3.256 -0.5378 -0.7059 -0.6100
19641TIP3   OH280337   3.557   1.742   1.744  0.3408  0.0207 -0.2215
19641TIP3    H180338   3.509   1.802   1.687  0.4946  1.7690  1.4000
19641TIP3    H280339   3.648   1.752   1.719  0.2886 -0.1351 -0.4783
19642TIP3   OH280340   0.031   3.952  12.688 -0.0849  0.4588 -0.1426
19642TIP3    H180341   0.042   4.001  12.770  1.1014 -1.8304  1.1831
19642TIP3    H280342   0.108   3.976  12.635  1.1570 -0.7555  1.0039
19643TIP3   OH280343   4.739   3.892  16.816  0.1469  0.2096  0.3141
19643TIP3    H180344   4.824   3.871  16.777 -0.0371 -0.1511  0.1048
19643TIP3    H280345   4.750   3.982  16.849 -0.0111  0.9164 -1.4739
19644TIP3   OH280346   2.585   0.542   5.650 -0.2906 -0.0340  0.0963
19644TIP3    H180347   2.587   0.554   5.745 -0.0093  0.8848 -0.0237
19644TIP3    H280348   2.676   0.529   5.625 -0.4752 -1.5840  0.0950
19645TIP3   OH280349   0.809   0.934   5.643  0.3989  0.6058  0.0376
19645TIP3    H180350   0.760   0.978   5.713 -1.5866 -0.7566 -0.4121
19645TIP3    H280351   0.747   0.930   5.570  1.2457 -1.0172 -0.6357
19646TIP3   OH280352   5.414   5.840  17.012  0.1300 -0.5611  0.8656
19646TIP3    H180353   5.423   5.807  17.102 -0.2368  0.9980  1.5067
19646TIP3    H280354   5.350   5.911  17.019  1.1637  0.5404 -0.3800
19647TIP3   OH280355   0.889   2.724  14.501  0.1611 -0.2468 -0.5444
19647TIP3    H180356   0.951   2.652  14.511 -1.4476 -1.6347  0.0267
19647TIP3    H280357   0.903   2.756  14.412  2.2476  0.0704 -0.1553
19648TIP3   OH280358   4.729   5.162   2.980 -0.0129 -0.4305 -0.1760
19648TIP3    H180359   4.666   5.229   2.953  0.2311 -0.6056 -1.2120
19648TIP3    H280360   4.813   5.193   2.946  0.0529 -1.4052 -0.9424
19649TIP3   OH280361   4.389   0.123   0.998  0.0410  0.2138 -0.0450
19649TIP3    H180362   4.340   0.137   1.079  0.4889  0.4044  0.1954
19649TIP3    H280363   4.419   0.032   1.003  2.1097  0.8895  1.1506
19650TIP3   OH280364   1.607   5.271  16.020 -0.4137  0.0765  0.2091
19650TIP3    H180365   1.678   5.330  15.993 -0.2022  0.0044  0.6024
19650TIP3    H280366   1.528   5.308  15.979 -0.7416  2.1272  2.4578
19651TIP3   OH280367   1.036   1.496  11.745 -0.5367 -0.3297 -0.1452
19651TIP3    H180368   1.105   1.508  11.680  0.4569  0.1450  0.9646
19651TIP3    H280369   0.957   1.478  11.693  0.1265  0.4756 -1.4812
19652TIP3   OH280370   4.789   4.952  13.161  0.2206 -0.1071  0.8976
19652TIP3    H180371   4.871   4.984  13.124 -0.1891  0.8391  0.7591
19652TIP3    H280372   4.756   4.890  13.096  1.5206 -1.6419  1.6308
19653TIP3   OH280373   0.946   4.662   5.684 -0.1196 -0.3085  0.0683
19653TIP3    H180374   0.990   4.699   5.760  0.7683 -0.0079 -0.5709
19653TIP3    H280375   1.007   4.677   5.611 -0.2065 -2.0781 -0.4148
19654TIP3   OH280376   4.537   1.203   0.088 -0.1233  0.4732  0.5721
19654TIP3    H180377   4.476   1.255   0.140 -0.2791 -0.2345  1.1186
19654TIP3    H280378   4.604   1.176   0.150 -1.3984 -2.1348  0.9572
19655TIP3   OH280379   1.096   4.440  12.220  0.6091 -0.1330  0.3714
19655TIP3    H180380   1.080   4.515  12.277 -2.6865  0.5791 -1.2785
19655TIP3    H280381   1.135   4.478  12.141  0.9094 -0.4610  0.3621
19656TIP3   OH280382   3.922   5.405   1.681 -0.1257 -0.2102  0.1749
19656TIP3    H180383   3.946   5.413   1.774  0.7073 -0.3122 -0.0217
19656TIP3    H280384   3.884   5.490   1.659 -0.0849 -0.0926  0.5472
19657TIP3   OH280385   0.230   6.537  13.172 -0.0254 -0.3976 -0.9014
19657TIP3    H180386   0.320   6.529  13.140  0.9124 -1.2840  1.6785
19657TIP3    H280387   0.217   6.631  13.182  0.3094 -0.2158 -2.0140
19658TIP3   OH280388   5.938   2.450  14.380 -0.2976  0.3696  0.0567
19658TIP3    H180389   5.924   2.530  14.431 -1.0598 -0.2362  0.8309
19658TIP3    H280390   6.002   2.400  14.431  0.9538  0.9041 -0.9330
19659TIP3   OH280391   6.720   3.832  11.332  0.1738 -0.5019 -0.2291
19659TIP3    H180392   6.811   3.836  11.364  1.1248 -2.3247 -2.4350
19659TIP3    H280393   6.713   3.903  11.268 -0.0193 -0.2585  0.0594
19660TIP3   OH280394   3.853   2.854  13.599 -0.3167 -0.1391  0.1841
19660TIP3    H180395   3.832   2.855  13.692 -2.9945  0.9426 -0.3426
19660TIP3    H280396   3.920   2.923  13.588 -0.6814  0.3835  1.1605
19661TIP3   OH280397   2.202   2.861  12.356  0.1559 -0.0509  0.5195
19661TIP3    H180398   2.204   2.782  12.410  2.5824  0.7685  1.7635
19661TIP3    H280399   2.284   2.906  12.375 -0.5529  2.1500 -1.1269
19662TIP3   OH280400   4.367   3.226   5.618  0.0708  0.6044 -0.2224
19662TIP3    H180401   4.282   3.185   5.600 -0.2791  2.0141 -2.0880
19662TIP3    H280402   4.367   3.240   5.713 -0.9818 -1.0669  0.0701
19663TIP3   OH280403   0.391   2.106   3.365  0.5403 -0.0330  0.4175
19663TIP3    H180404   0.419   2.135   3.278 -0.2470  0.2623  0.2515
19663TIP3    H280405   0.337   2.029   3.347 -0.5871  0.7061  0.5357
19664TIP3   OH280406   0.518   5.790  11.064 -0.2867  0.3959  0.2536
19664TIP3    H180407   0.541   5.873  11.106  0.5648  1.2943 -1.8200
19664TIP3    H280408   0.582   5.727  11.096  0.3336  1.0503  0.3240
19665TIP3   OH280409   3.964   5.359   5.371 -0.1341  0.1929 -0.2279
19665TIP3    H180410   4.003   5.429   5.423  0.3835  0.0020 -0.3628
19665TIP3    H280411   3.913   5.404   5.304  0.2796  0.4346 -0.3744
19666TIP3   OH280412   4.840   1.308   1.869 -0.3983  0.5542 -0.0454
19666TIP3    H180413   4.796   1.236   1.913  1.0754 -1.7700 -2.1304
19666TIP3    H280414   4.770   1.354   1.823 -1.4300  0.8250  1.7265
19667TIP3   OH280415   3.332   2.951   4.115 -0.4069 -0.6125 -0.3066
19667TIP3    H180416   3.325   2.861   4.084  0.1541 -0.4413 -0.9616
19667TIP3    H280417   3.426   2.965   4.126 -0.5876 -0.9118  2.2848
19668TIP3   OH280418   3.535   1.128   3.620 -0.0885 -0.2530 -0.1545
19668TIP3    H180419   3.440   1.122   3.620 -0.0545 -1.3691 -1.1747
19668TIP3    H280420   3.564   1.044   3.582  1.3142 -0.2080  0.7469
19669TIP3   OH280421   2.594   0.739   5.436  0.0621  0.0843  0.3057
19669TIP3    H180422   2.629   0.791   5.508  1.2157 -0.1163 -0.0930
19669TIP3    H280423   2.593   0.649   5.470  3.3664 -0.5153 -0.8024
19670TIP3   OH280424   5.075   4.398  12.971 -0.0218 -0.2937 -0.5387
19670TIP3    H180425   5.061   4.326  13.032 -0.6340  1.1547  1.1118
19670TIP3    H280426   5.170   4.404  12.962  0.0744 -0.6230  0.1788
19671TIP3   OH280427   6.058   0.767  15.998 -0.0842  0.3533 -0.6791
19671TIP3    H180428   6.044   0.786  16.091 -0.7165  0.7365 -0.8466
19671TIP3    H280429   5.973   0.734  15.968  0.9738 -3.1587 -0.3258
19672TIP3   OH280430   5.878   0.512  17.158 -0.0336 -0.5765 -0.6387
19672TIP3    H180431   5.841   0.443  17.102 -0.3502 -1.1170  0.2173
19672TIP3    H280432   5.863   0.593  17.108 -2.9182 -0.6920 -0.1261
19673TIP3   OH280433   4.568   4.311  11.899 -0.2351 -0.2793 -0.5933
19673TIP3    H180434   4.598   4.221  11.911 -0.8045 -0.3018  0.9196
19673TIP3    H280435   4.496   4.304  11.836  1.5138 -0.4709 -2.6895
19674TIP3   OH280436   3.626   5.293   5.670  0.3211 -0.0352 -0.8818
19674TIP3    H180437   3.567   5.344   5.614 -1.9285  0.4651  1.7410
19674TIP3    H280438   3.713   5.330   5.653 -0.4804  1.1128 -2.8258
19675TIP3   OH280439   5.374   2.689   4.345 -0.3844  0.0715  0.2031
19675TIP3    H180440   5.316   2.691   4.268 -0.0511  2.9037 -0.0776
19675TIP3    H280441   5.427   2.768   4.337 -0.3392  0.4856  3.3717
19676TIP3   OH280442   5.923   2.968  11.327  0.4763  0.3709 -0.9021
19676TIP3    H180443   5.869   3.036  11.286 -1.1191 -0.4957 -0.3171
19676TIP3    H280444   5.883   2.885  11.299  0.1772 -0.2671  1.2587
19677TIP3   OH280445   6.656   1.380   3.561 -0.0836  0.7218 -0.3753
19677TIP3    H180446   6.621   1.343   3.481  0.2310 -0.8192  0.1612
19677TIP3    H280447   6.750   1.365   3.556  0.1655  2.2257 -0.5101
19678TIP3   OH280448   6.713   1.150  10.667 -0.4483 -0.1662  0.0581
19678TIP3    H180449   6.770   1.221  10.638  0.4641 -1.1850 -0.7269
19678TIP3    H280450   6.735   1.139  10.759  0.2568 -0.1953 -0.1043
19679TIP3   OH280451   4.631   2.304  12.636  0.2785 -0.2377  0.5229
19679TIP3    H180452   4.622   2.224  12.687 -1.5266 -1.4803 -1.5695
19679TIP3    H280453   4.671   2.276  12.553 -1.0464  0.8557 -0.5397
19680TIP3   OH280454   1.078   5.075   1.930 -0.3047  0.3120  0.0810
19680TIP3    H180455   1.100   5.021   1.854 -0.0071 -1.8824  1.6294
19680TIP3    H280456   1.151   5.136   1.938 -0.1853  0.3691 -1.1661
19681TIP3   OH280457   2.027   2.995  15.163  0.6250 -0.0021  0.0894
19681TIP3    H180458   1.956   2.935  15.143  0.2607  0.4149  0.1080
19681TIP3    H280459   2.101   2.939  15.186  0.4951 -0.4599 -0.5618
19682TIP3   OH280460   2.948   5.562   1.149 -0.6428  0.6254  0.3320
19682TIP3    H180461   3.026   5.591   1.103 -1.0164  1.1580  0.0245
19682TIP3    H280462   2.969   5.572   1.242 -0.3073  0.6641  0.2511
19683TIP3   OH280463   4.091   2.476  17.173  0.4012 -0.5353  0.4305
19683TIP3    H180464   3.999   2.495  17.151  0.4529  0.0152  0.6858
19683TIP3    H280465   4.142   2.530  17.112  0.5553 -0.7201  0.3956
19684TIP3   OH280466   0.107   3.965   5.604 -0.1040 -0.3843 -0.2200
19684TIP3    H180467   0.102   4.032   5.672 -0.0372 -0.5525 -0.0483
19684TIP3    H280468   0.099   3.882   5.651  0.2108 -0.5128 -0.3876
19685TIP3   OH280469   4.779   5.708   3.991  0.0786 -0.5434  0.0419
19685TIP3    H180470   4.785   5.795   3.951  1.7279 -0.3270  0.6404
19685TIP3    H280471   4.750   5.726   4.081 -0.2827 -0.6756 -0.0515
19686TIP3   OH280472   6.382   6.258  15.486 -0.1454 -1.0156 -0.1334
19686TIP3    H180473   6.419   6.338  15.523  0.2172 -2.4043  2.7835
19686TIP3    H280474   6.304   6.287  15.439 -2.2170  0.8152  3.9287
19687TIP3   OH280475   2.440   3.659   5.537 -0.6676  0.4758 -0.4265
19687TIP3    H180476   2.519   3.698   5.501 -0.8653 -0.5358 -2.0801
19687TIP3    H280477   2.426   3.704   5.620  1.9188  0.3046  0.1866
19688TIP3   OH280478   1.939   0.032   5.939  0.0862 -0.9849 -0.9907
19688TIP3    H180479   1.938  -0.061   5.916  1.5393 -1.1689 -0.4596
19688TIP3    H280480   1.990   0.035   6.020  0.4394  0.3244 -1.2537
19689TIP3   OH280481   3.724   1.122   2.143  0.1548  0.8693  0.1655
19689TIP3    H180482   3.806   1.161   2.112  1.6767 -1.7971  0.5657
19689TIP3    H280483   3.710   1.047   2.086 -1.8074  1.0228  0.3938
19690TIP3   OH280484   3.472   4.170   0.299 -0.2704 -0.0531 -0.9227
19690TIP3    H180485   3.422   4.095   0.266 -0.2733 -1.5024  2.0733
19690TIP3    H280486   3.563   4.148   0.280 -0.1146 -1.7380  1.3905
19691TIP3   OH280487   4.410   2.588  14.151 -0.5886  0.0929  0.0664
19691TIP3    H180488   4.425   2.620  14.063  1.9035 -2.6994 -0.6792
19691TIP3    H280489   4.479   2.630  14.204 -0.0141 -0.7102 -0.0304
19692TIP3   OH280490   6.569   6.397  13.778  0.1667 -0.1956  0.3517
19692TIP3    H180491   6.547   6.404  13.871 -0.5394  0.3722  0.1469
19692TIP3    H280492   6.637   6.330  13.775 -0.9538 -1.4090  1.1031
19693TIP3   OH280493   4.906   4.646  14.570  0.2579  0.0208 -0.3187
19693TIP3    H180494   4.961   4.687  14.636  0.0038  0.3597 -0.3169
19693TIP3    H280495   4.967   4.617  14.502  0.4744  0.0605 -0.1414
19694TIP3   OH280496   2.225   5.522   6.167  0.1285 -0.7044 -0.2976
19694TIP3    H180497   2.271   5.545   6.087  2.6281  0.9292  1.4786
19694TIP3    H280498   2.220   5.426   6.166  0.7510 -0.7384 -2.0240
19695TIP3   OH280499   2.537   3.996  15.607  0.2935 -0.6160 -0.0663
19695TIP3    H180500   2.514   4.036  15.691  0.7793 -1.4599  0.4768
19695TIP3    H280501   2.632   3.982  15.612  0.0920 -2.1013 -0.1245
19696TIP3   OH280502   2.662   1.482   4.347 -0.3357 -0.1492 -0.4604
19696TIP3    H180503   2.716   1.403   4.340  0.4991  0.4238 -0.5232
19696TIP3    H280504   2.606   1.478   4.269  0.2981 -0.2463 -0.9241
19697TIP3   OH280505   6.091   2.889  11.903 -0.5718  0.0162  0.2897
19697TIP3    H180506   6.049   2.858  11.984  1.6322 -1.2506  1.0262
19697TIP3    H280507   6.024   2.877  11.835 -0.9787 -3.3242  1.1298
19698TIP3   OH280508   5.739   0.310   1.035 -0.3790 -0.5369  0.2887
19698TIP3    H180509   5.805   0.280   0.972  0.0249 -0.0993  0.4974
19698TIP3    H280510   5.711   0.230   1.079 -0.5425 -0.8267 -0.3272
19699TIP3   OH280511   0.611   1.863  15.618 -0.5659  0.7450 -0.1185
19699TIP3    H180512   0.632   1.790  15.676 -0.7553  1.1670  0.4862
19699TIP3    H280513   0.571   1.822  15.541  2.0425 -0.0675 -1.1443
19700TIP3   OH280514   2.242   3.438  14.991  0.4531  0.0373 -0.2666
19700TIP3    H180515   2.234   3.455  14.898  1.7915  0.0209 -0.4049
19700TIP3    H280516   2.161   3.394  15.015  0.0324  0.1775 -1.3860
19701TIP3   OH280517   6.674   5.711   0.150 -0.2175  0.0487 -0.5879
19701TIP3    H180518   6.663   5.806   0.140 -1.9905 -0.2059 -1.5893
19701TIP3    H280519   6.586   5.679   0.173  0.8644 -1.0869  2.6180
19702TIP3   OH280520   1.620   5.942   2.727 -0.5946 -0.4912 -0.4481
19702TIP3    H180521   1.612   5.856   2.768 -1.9020 -0.2941 -0.2275
19702TIP3    H280522   1.700   5.937   2.674  0.2075 -1.3079  0.7954
19703TIP3   OH280523   2.911   1.259   2.814  0.0945 -0.3489  0.2344
19703TIP3    H180524   2.843   1.203   2.851 -0.3503 -0.2670 -0.4406
19703TIP3    H280525   2.921   1.228   2.724 -0.1476  0.6362 -0.1452
19704TIP3   OH280526   5.081   3.328  14.837  0.1876 -0.0261  0.3563
19704TIP3    H180527   5.096   3.422  14.838 -0.9341  0.1838 -0.3261
19704TIP3    H280528   4.990   3.318  14.808 -0.1093 -1.2795  1.5887
19705TIP3   OH280529   5.709   2.484  12.939 -0.2002 -0.1606  0.4169
19705TIP3    H180530   5.690   2.508  13.029  0.3892 -2.1734  1.1138
19705TIP3    H280531   5.747   2.564  12.901  1.8819  0.0467  2.6590
19706TIP3   OH280532   0.804   2.740  12.302 -0.6278 -0.2451  0.4061
19706TIP3    H180533   0.774   2.755  12.212 -0.9016  0.7776  0.6451
19706TIP3    H280534   0.800   2.827  12.343 -1.3573 -0.8463  1.6669
19707TIP3   OH280535   5.260   6.358  17.089  0.5018 -0.5178  0.4507
19707TIP3    H180536   5.167   6.380  17.093  0.5766 -0.2373  0.7777
19707TIP3    H280537   5.288   6.386  17.002  0.3368 -0.3510  0.4498
19708TIP3   OH280538   5.806   6.422  15.477  0.3406 -0.1977  0.0534
19708TIP3    H180539   5.831   6.365  15.550 -0.6501 -0.4495  0.2084
19708TIP3    H280540   5.712   6.408  15.467  0.0997  1.2852 -0.0138
19709TIP3   OH280541   3.273   5.051   5.205  1.0159 -0.3817  0.5871
19709TIP3    H180542   3.304   4.988   5.140 -0.4623 -0.0350 -0.5103
19709TIP3    H280543   3.347   5.110   5.218  1.4884 -0.7185 -0.4449
19710TIP3   OH280544   5.158   6.687  16.546  0.0910  0.7926  0.1492
19710TIP3    H180545   5.095   6.754  16.572 -1.8705 -0.8064 -0.1983
19710TIP3    H280546   5.164   6.695  16.450 -1.0388 -0.1935 -0.0325
19711TIP3   OH280547   3.762   0.085   0.578  0.0440 -0.1622 -0.3529
19711TIP3    H180548   3.852   0.115   0.587 -0.8160  2.7596 -0.2974
19711TIP3    H280549   3.723   0.100   0.665 -0.9433  0.5255 -0.8887
19712TIP3   OH280550   2.042   4.228   6.186 -0.1718 -0.6528  0.7688
19712TIP3    H180551   2.057   4.318   6.216  0.1674 -0.6567  0.6188
19712TIP3    H280552   2.109   4.176   6.231  1.7923 -0.3367 -1.5942
19713TIP3   OH280553   1.865   0.957  16.385 -0.3474 -0.0318  0.0897
19713TIP3    H180554   1.780   1.002  16.390  0.7243  2.2625 -0.9740
19713TIP3    H280555   1.911   1.001  16.314  1.9128 -0.9412  0.9069
19714TIP3   OH280556   6.179   0.206  11.235 -0.0382 -0.1798  0.7753
19714TIP3    H180557   6.119   0.280  11.245 -0.7950 -0.3671 -1.7047
19714TIP3    H280558   6.256   0.243  11.192  0.0181 -0.6220  0.4864
19715TIP3   OH280559   3.131   5.226  11.468  0.1737  0.6857  0.2917
19715TIP3    H180560   3.117   5.297  11.405  0.2808  0.5761  0.1424
19715TIP3    H280561   3.222   5.235  11.494 -0.1998  1.4913  1.3771
19716TIP3   OH280562   6.185   4.999  11.375  0.0948  0.0177  0.0467
19716TIP3    H180563   6.102   4.996  11.423 -0.5185 -0.0230 -0.9872
19716TIP3    H280564   6.185   5.084  11.331 -0.3707 -0.8010 -1.6070
19717TIP3   OH280565   2.883   3.032   1.421  0.2265 -0.6252  0.1153
19717TIP3    H180566   2.936   2.955   1.402  1.6907  0.5449 -0.8521
19717TIP3    H280567   2.939   3.106   1.395 -1.3051  0.7403  0.5335
19718TIP3   OH280568   1.418   5.753   3.682  0.1564  0.1139  0.1391
19718TIP3    H180569   1.426   5.664   3.717  1.4241 -0.1271 -0.6868
19718TIP3    H280570   1.393   5.807   3.757  0.8599 -0.7042  0.9741
19719TIP3   OH280571   4.201   2.107   2.531 -0.2550  0.2057 -0.1720
19719TIP3    H180572   4.236   2.107   2.442 -0.3352  0.4882 -0.2054
19719TIP3    H280573   4.262   2.162   2.581  0.0783 -0.3772  0.0624
19720TIP3   OH280574   0.113   3.805   1.155 -0.0088  0.6761  0.2273
19720TIP3    H180575   0.148   3.820   1.067 -1.0580 -0.6084 -0.4480
19720TIP3    H280576   0.163   3.731   1.189 -1.0474 -0.2369 -0.1750
19721TIP3   OH280577   0.482   3.477  17.134 -0.2154  0.2318  0.0578
19721TIP3    H180578   0.421   3.420  17.181  0.4997 -1.2357 -0.7229
19721TIP3    H280579   0.546   3.417  17.096  0.2876  1.5311 -1.2342
19722TIP3   OH280580   1.134   3.629  11.297 -0.6862  0.3988  0.3736
19722TIP3    H180581   1.065   3.650  11.360 -1.6598  1.1059 -0.9015
19722TIP3    H280582   1.201   3.695  11.312 -0.4854  0.0034  1.2834
19723TIP3   OH280583   3.273   4.489  17.139  0.2410 -0.5458 -0.0614
19723TIP3    H180584   3.325   4.560  17.176  2.1631 -2.6528  1.6042
19723TIP3    H280585   3.279   4.501  17.045  0.6053  1.4001  0.1714
19724TIP3   OH280586   5.258   2.729   0.829  0.0251 -0.4288 -0.2257
19724TIP3    H180587   5.264   2.778   0.746  1.5575  0.8765  0.6018
19724TIP3    H280588   5.333   2.669   0.826  0.6014  0.2359  0.5708
19725TIP3   OH280589   5.525   3.503   3.888  0.2229 -0.2562  0.0505
19725TIP3    H180590   5.534   3.483   3.981  0.7322 -0.7353 -0.0969
19725TIP3    H280591   5.587   3.574   3.872 -1.0419  0.9739  0.4126
19726TIP3   OH280592   2.304   2.289  12.492  0.1037  0.6855 -0.0581
19726TIP3    H180593   2.317   2.195  12.483 -0.2047  0.7704 -1.7519
19726TIP3    H280594   2.343   2.311  12.577 -0.0905 -0.9996  0.5048
19727TIP3   OH280595   0.186   2.676  15.785  0.2496  0.0863  0.2811
19727TIP3    H180596   0.096   2.689  15.816  0.0912  1.2430 -0.6250
19727TIP3    H280597   0.215   2.596  15.830 -1.6158 -0.9619 -0.2581
19728TIP3   OH280598   5.476   2.031   3.198  0.9062  0.1663 -0.0156
19728TIP3    H180599   5.411   2.012   3.266  0.0365 -1.0026 -1.1111
19728TIP3    H280600   5.437   2.103   3.147  1.9787  1.6786  1.2341
19729TIP3   OH280601   5.992   1.020   2.530  0.1501 -0.1432  0.1883
19729TIP3    H180602   5.901   1.048   2.537  0.4303  0.5076  1.6295
19729TIP3    H280603   6.041   1.102   2.515  0.4633 -0.5509 -1.1793
19730TIP3   OH280604   1.653   2.898   1.007  0.2420 -0.2616  0.1477
19730TIP3    H180605   1.575   2.944   1.038  0.6160  0.3954  0.1248
19730TIP3    H280606   1.725   2.958   1.024  0.7104 -0.7396 -0.1153
19731TIP3   OH280607   1.530   3.114  12.415  0.2764  0.4349  0.4057
19731TIP3    H180608   1.584   3.124  12.494  1.6222 -1.7658 -0.1461
19731TIP3    H280609   1.570   3.173  12.351  1.5934 -0.5645  0.2597
19732TIP3   OH280610   5.055   1.822   4.860  0.2626  0.0634  0.0313
19732TIP3    H180611   5.077   1.884   4.930  2.1496  0.1561 -0.5715
19732TIP3    H280612   5.055   1.876   4.780  2.8934 -0.7808 -0.6367
19733TIP3   OH280613   4.677   3.859   5.871  0.1795 -0.0021 -0.2524
19733TIP3    H180614   4.636   3.921   5.812 -0.7863 -1.5256 -1.2565
19733TIP3    H280615   4.759   3.834   5.828 -0.2963 -0.7512 -0.7525
19734TIP3   OH280616   1.780   1.700  15.810 -0.2051  0.8526 -0.3640
19734TIP3    H180617   1.772   1.750  15.891 -1.3792 -0.5599  0.4300
19734TIP3    H280618   1.872   1.677  15.805 -0.2485  0.3066  0.9861
19735TIP3   OH280619   1.665   5.539   0.743 -0.2389 -0.4995  0.3190
19735TIP3    H180620   1.659   5.610   0.680 -1.3611 -0.4611  0.4518
19735TIP3    H280621   1.637   5.461   0.695 -4.2594  0.0052  1.4772
19736TIP3   OH280622   0.485   5.389   5.101 -0.0883  0.0997 -0.8050
19736TIP3    H180623   0.555   5.334   5.066  1.0393  1.5239 -0.8687
19736TIP3    H280624   0.520   5.423   5.184 -1.1156  0.0306 -0.3261
19737TIP3   OH280625   4.983   1.494   2.664 -0.3964  0.5236 -0.2114
19737TIP3    H180626   5.064   1.540   2.639  1.0872 -1.3647  0.8182
19737TIP3    H280627   4.963   1.439   2.588  1.1501 -1.3307  0.6279
19738TIP3   OH280628   6.660   4.093  13.785 -0.4790 -0.2652  0.0250
19738TIP3    H180629   6.671   4.023  13.849  0.6243 -0.8717 -0.7970
19738TIP3    H280630   6.566   4.110  13.784 -0.6098 -0.8714  1.1414
19739TIP3   OH280631   0.492   5.970   1.615 -0.2811  0.2982 -0.0998
19739TIP3    H180632   0.524   6.044   1.564  1.2037 -0.7531 -0.7441
19739TIP3    H280633   0.496   6.000   1.706  2.1694  0.3973 -0.1848
19740TIP3   OH280634   4.882   5.499   6.649 -0.2232 -0.1734  0.1267
19740TIP3    H180635   4.874   5.406   6.629  0.3798 -0.1530 -0.2487
19740TIP3    H280636   4.964   5.526   6.606  0.6992  0.0704  1.9521
19741TIP3   OH280637   3.927   2.344   0.713  0.0123  0.7771  0.3513
19741TIP3    H180638   3.993   2.295   0.763  0.1951  1.5589  0.8796
19741TIP3    H280639   3.977   2.413   0.670 -0.2315  0.4457 -0.4899
19742TIP3   OH280640   0.925   6.127   2.933  0.2110  0.4612  0.0627
19742TIP3    H180641   0.971   6.104   3.013  1.5440 -1.5661 -1.2025
19742TIP3    H280642   0.849   6.069   2.930  0.1447  0.5535 -0.1209
19743TIP3   OH280643   5.891   3.591   4.057 -1.1938 -0.0822  0.1714
19743TIP3    H180644   5.853   3.577   4.144 -0.4478 -1.7868  0.2716
19743TIP3    H280645   5.985   3.596   4.074 -1.0949  0.3510 -0.4787
19744TIP3   OH280646   3.190   3.153   1.042 -0.1483  0.5023 -0.0213
19744TIP3    H180647   3.268   3.106   1.072 -0.8922  0.1409  1.4634
19744TIP3    H280648   3.141   3.088   0.992  1.1130  1.1125 -2.1536
19745TIP3   OH280649   4.892   1.699  13.451 -0.4337  0.1023  0.4275
19745TIP3    H180650   4.866   1.703  13.543  0.1801  1.7031  0.5660
19745TIP3    H280651   4.971   1.646  13.450 -1.0920 -0.9253  0.6308
19746TIP3   OH280652   6.715   0.049   0.145  0.1876 -0.7800 -0.3755
19746TIP3    H180653   6.730   0.004   0.229  3.7420  1.0668  0.1680
19746TIP3    H280654   6.677   0.133   0.169  0.9661 -0.3541 -0.5831
19747TIP3   OH280655   6.358   3.596   1.894  0.1260  0.4672 -0.3822
19747TIP3    H180656   6.353   3.535   1.967  2.4164 -1.1886 -1.4754
19747TIP3    H280657   6.267   3.619   1.875 -0.8596 -2.4767  0.2236
19748TIP3   OH280658   4.022   0.862   3.024  0.2956  0.1408  0.4232
19748TIP3    H180659   3.935   0.896   3.003 -0.6597 -2.0264  0.6167
19748TIP3    H280660   4.019   0.846   3.119  0.0888 -1.9583  0.1084
19749TIP3   OH280661   1.034   2.818   2.999  0.3505 -0.0421  0.2919
19749TIP3    H180662   1.035   2.774   3.084 -1.7009  0.0210  0.3851
19749TIP3    H280663   1.122   2.856   2.991  1.7256 -2.8283  0.8716
19750TIP3   OH280664   5.984   4.403  11.315  0.5222 -0.3056 -0.2950
19750TIP3    H180665   6.010   4.316  11.346  0.1074 -0.3554 -0.0859
19750TIP3    H280666   5.930   4.439  11.385 -1.6023 -0.9850 -1.4918
19751TIP3   OH280667   4.980   6.697  12.559 -0.1344  0.6246  0.0616
19751TIP3    H180668   4.993   6.682  12.465 -0.3612  0.7643  0.0055
19751TIP3    H280669   4.956   6.611  12.594 -3.6547  1.1609 -0.6393
19752TIP3   OH280670   2.119   4.093   3.839  0.3417  0.0414  0.3762
19752TIP3    H180671   2.074   4.064   3.760 -0.3301  2.1393 -0.0578
19752TIP3    H280672   2.206   4.054   3.833 -0.3731 -1.5085 -0.3353
19753TIP3   OH280673   6.394   6.521   2.062 -0.2728  0.2279 -0.1448
19753TIP3    H180674   6.402   6.432   2.030  0.5146 -0.0383  0.7520
19753TIP3    H280675   6.312   6.522   2.112 -0.5943  0.1797 -0.6651
19754TIP3   OH280676   0.160   0.118  13.106 -0.4883  0.7179  0.0845
19754TIP3    H180677   0.236   0.152  13.155 -0.1161 -0.0914  0.0997
19754TIP3    H280678   0.199   0.067  13.035 -1.0276  0.8387 -0.2978
19755TIP3   OH280679   5.619   4.578   3.796  0.0994  1.0609  0.1337
19755TIP3    H180680   5.687   4.529   3.841  0.6711  0.7678 -1.0066
19755TIP3    H280681   5.657   4.598   3.710 -1.9590 -0.9137 -1.3575
19756TIP3   OH280682   1.514   5.771  14.724 -0.2423  0.0707  0.6474
19756TIP3    H180683   1.476   5.859  14.731  0.9319  0.5402  1.3961
19756TIP3    H280684   1.438   5.713  14.715 -1.1345  1.0030  1.7479
19757TIP3   OH280685   3.740   0.015   2.569 -0.3138 -0.0446 -0.4579
19757TIP3    H180686   3.663  -0.039   2.591  0.2376  0.1754  2.2709
19757TIP3    H280687   3.709   0.105   2.577  0.0172  0.0416 -0.1366
19758TIP3   OH280688   5.325   0.611  14.914  0.1348 -0.4757 -0.5721
19758TIP3    H180689   5.250   0.626  14.971 -0.3627  0.6817 -1.4842
19758TIP3    H280690   5.352   0.521  14.933  0.4488  0.0809  1.9936
19759TIP3   OH280691   2.598   3.581  13.455 -0.5222  0.6962  0.1703
19759TIP3    H180692   2.638   3.606  13.372  0.2388  0.0039  0.3121
19759TIP3    H280693   2.656   3.617  13.522  0.8051 -1.6645  0.3756
19760TIP3   OH280694   6.419   0.282  12.345  0.2055 -0.5515  0.6835
19760TIP3    H180695   6.458   0.205  12.305  1.6456 -0.1893  1.3272
19760TIP3    H280696   6.384   0.251  12.429  0.3158 -0.6076  0.7086
19761TIP3   OH280697   0.104   4.190   6.626  0.5899 -0.4864 -0.0942
19761TIP3    H180698   0.163   4.115   6.618 -0.2939 -0.9837 -3.0025
19761TIP3    H280699   0.017   4.154   6.616  0.1546  0.9351 -1.8836
19762TIP3   OH280700   4.776   2.800  15.116 -0.1498  0.0730  0.2109
19762TIP3    H180701   4.769   2.895  15.105 -0.3868  0.3122  2.1002
19762TIP3    H280702   4.800   2.768  15.029 -0.5549  1.8026 -0.5893
19763TIP3   OH280703   0.619   3.071  11.110 -0.3160  0.4668 -0.2105
19763TIP3    H180704   0.649   3.155  11.146  0.1817  0.2189 -0.0332
19763TIP3    H280705   0.574   3.094  11.029 -3.0067  1.2236  1.3698
19764TIP3   OH280706   2.918   3.855   5.732 -0.4796  0.4256  0.1516
19764TIP3    H180707   2.965   3.938   5.742  0.3440  0.1233 -1.0481
19764TIP3    H280708   2.985   3.788   5.736 -1.0406 -0.1399  0.2570
19765TIP3   OH280709   5.202   3.717   4.085 -0.3337 -0.5684 -0.1069
19765TIP3    H180710   5.236   3.805   4.073  0.4199 -0.6395  1.2908
19765TIP3    H280711   5.241   3.666   4.015  0.0121 -0.0058 -0.3272
19766TIP3   OH280712   3.332   2.126   3.319 -0.3998  0.0567 -0.4388
19766TIP3    H180713   3.277   2.069   3.373 -0.3427  0.4151 -0.0001
19766TIP3    H280714   3.421   2.109   3.350 -0.4544  0.9995  0.2769
19767TIP3   OH280715   2.707   0.911   2.922  0.2388 -0.4509  0.1979
19767TIP3    H180716   2.753   0.954   2.995 -0.8741  0.2616  0.5073
19767TIP3    H280717   2.639   0.973   2.897 -1.0437 -1.7670  0.2591
19768TIP3   OH280718   6.665   3.273  13.475 -0.5488 -0.4537  0.6097
19768TIP3    H180719   6.602   3.208  13.506  0.2769 -0.6341  2.0279
19768TIP3    H280720   6.739   3.264  13.535 -0.1602  1.3823  0.4549
19769TIP3   OH280721   4.762   1.679   2.543 -0.0724  0.7950  0.0248
19769TIP3    H180722   4.749   1.584   2.543  0.1121  0.7105 -2.5030
19769TIP3    H280723   4.690   1.712   2.597 -0.2613 -0.7485  0.7789
19770TIP3   OH280724   2.619   2.972  14.967  0.9423 -0.1032  1.0208
19770TIP3    H180725   2.686   2.905  14.981  1.7848  0.3528 -0.5555
19770TIP3    H280726   2.666   3.055  14.974  1.1108  0.2031 -2.2185
19771TIP3   OH280727   1.995   0.709  16.395 -0.2387  0.0617 -0.1818
19771TIP3    H180728   1.945   0.790  16.398  0.8418  0.7613  2.9743
19771TIP3    H280729   1.945   0.652  16.337 -2.6019  2.0020 -0.2083
19772TIP3   OH280730   5.544   6.638   2.690 -0.0218  0.0915 -0.2798
19772TIP3    H180731   5.591   6.626   2.773  0.4944  1.4536 -0.3451
19772TIP3    H280732   5.596   6.590   2.626 -0.4196 -0.9629  0.1736
19773TIP3   OH280733   1.074   1.032   4.230 -0.4843 -0.3601 -0.1150
19773TIP3    H180734   1.161   1.058   4.201 -1.2619  2.6556 -0.0631
19773TIP3    H280735   1.090   0.962   4.293  1.9809  0.8829  0.7608
19774TIP3   OH280736   0.187   4.728   1.444 -0.0572  1.1990 -0.0341
19774TIP3    H180737   0.218   4.721   1.354 -0.4576 -0.0551 -0.0872
19774TIP3    H280738   0.092   4.728   1.437 -0.1582 -1.1268  0.4913
19775TIP3   OH280739   6.344   2.101   2.757  0.3173  0.6455 -0.4293
19775TIP3    H180740   6.278   2.128   2.822 -0.4823  1.2695 -1.4641
19775TIP3    H280741   6.319   2.148   2.677  1.1118 -0.3334 -1.2743
19776TIP3   OH280742   3.773   4.781   0.161 -0.3975  0.0055 -0.0338
19776TIP3    H180743   3.704   4.779   0.228 -0.0406  1.1669  0.3829
19776TIP3    H280744   3.849   4.817   0.206 -0.6593  2.6180 -1.4797
19777TIP3   OH280745   4.768   1.455  13.628  0.2646 -0.0429  0.2975
19777TIP3    H180746   4.761   1.392  13.699 -0.5366  0.6718  0.8715
19777TIP3    H280747   4.777   1.540  13.672 -0.9675  0.4856 -0.4376
19778TIP3   OH280748   0.106   3.691   2.478 -0.5036 -0.0850  0.4391
19778TIP3    H180749   0.065   3.741   2.407 -1.4550 -0.0992  0.9621
19778TIP3    H280750   0.054   3.713   2.556  1.0834  0.6539  1.3342
19779TIP3   OH280751   6.356   1.402  13.827 -0.1041 -0.4968 -0.0447
19779TIP3    H180752   6.423   1.337  13.847  0.4325 -0.1420 -0.6659
19779TIP3    H280753   6.316   1.371  13.746  1.2336  0.7430 -1.2409
19780TIP3   OH280754   4.873   0.354  17.403 -0.3427  0.3727  0.4778
19780TIP3    H180755   4.802   0.292  17.387 -0.0567  0.4034 -1.0629
19780TIP3    H280756   4.888   0.349  17.498  0.1359 -2.4609  0.3497
19781TIP3   OH280757   5.508   0.991   1.442  0.2308  0.3648  0.4085
19781TIP3    H180758   5.568   1.059   1.411  2.4136 -0.4183  2.6068
19781TIP3    H280759   5.526   0.916   1.386  0.1409  0.6026  0.0543
19782TIP3   OH280760   4.252   3.536   2.362  0.5600  0.0468  0.0732
19782TIP3    H180761   4.342   3.523   2.390  1.0401  0.8214 -1.0321
19782TIP3    H280762   4.259   3.567   2.272 -0.8673 -1.4809 -0.6324
19783TIP3   OH280763   6.683   1.045   4.874 -0.0888  0.6969  0.4646
19783TIP3    H180764   6.636   1.121   4.838 -0.8763  0.9790  1.9897
19783TIP3    H280765   6.616   0.997   4.922  1.0455  0.7507  2.1711
19784TIP3   OH280766   5.559   1.199  12.705 -0.2922 -0.1927 -0.4463
19784TIP3    H180767   5.600   1.274  12.749  1.9925 -0.6137 -1.7311
19784TIP3    H280768   5.505   1.159  12.774  0.4285  1.1501  0.9822
19785TIP3   OH280769   0.452   6.130   0.836  0.0059  0.4799 -0.6676
19785TIP3    H180770   0.492   6.107   0.920 -1.0396 -2.0275 -0.7788
19785TIP3    H280771   0.441   6.225   0.840  1.6570  0.6556  1.2532
19786TIP3   OH280772   3.715   4.813   3.191 -0.2753 -0.6167 -0.5055
19786TIP3    H180773   3.640   4.755   3.202  0.1595 -0.8658  1.3345
19786TIP3    H280774   3.765   4.804   3.271  0.4979  1.3247 -0.7164
19787TIP3   OH280775   3.764   1.797  13.290  0.4782 -0.2731 -0.4235
19787TIP3    H180776   3.741   1.712  13.329  2.8814 -1.5091 -1.4986
19787TIP3    H280777   3.681   1.845  13.287 -0.9588 -2.5457  0.2845
19788TIP3   OH280778   1.355   3.334   0.266  0.1811  0.3251  0.0081
19788TIP3    H180779   1.418   3.285   0.319 -0.5892 -0.3646  0.3069
19788TIP3    H280780   1.290   3.269   0.239 -0.8115  1.1468  0.3241
19789TIP3   OH280781   0.647   2.299  14.596 -0.3149  0.5322 -1.0000
19789TIP3    H180782   0.691   2.328  14.676 -0.2971  0.0832 -0.8434
19789TIP3    H280783   0.662   2.370  14.534  0.6888  0.3718 -0.9621
19790TIP3   OH280784   0.193   3.132  11.724  0.4253 -0.2452  0.3150
19790TIP3    H180785   0.278   3.112  11.763  0.7872  0.7500  0.0589
19790TIP3    H280786   0.198   3.096  11.635  1.2925  1.3875 -0.3453
19791TIP3   OH280787   4.219   2.106   4.566 -0.3959 -0.1018  0.2678
19791TIP3    H180788   4.161   2.125   4.492  0.8145  0.0541 -0.6579
19791TIP3    H280789   4.195   2.171   4.632 -3.2220 -1.7576  1.0612
19792TIP3   OH280790   2.326   5.431  15.129  0.0380 -0.0178 -0.2689
19792TIP3    H180791   2.314   5.370  15.057  0.9493 -0.2977 -0.1980
19792TIP3    H280792   2.341   5.516  15.087 -1.9477  0.3306 -0.3599
19793TIP3   OH280793   5.920   2.148  16.046  0.3916 -0.4406  0.3205
19793TIP3    H180794   5.943   2.167  15.955  0.7656 -1.2083  0.2394
19793TIP3    H280795   5.910   2.053  16.048 -0.9440 -0.3139  0.7888
19794TIP3   OH280796   3.354   2.441   6.725  0.7021  0.2773 -0.0527
19794TIP3    H180797   3.400   2.460   6.807 -1.6771  1.0228  1.2016
19794TIP3    H280798   3.357   2.524   6.677 -0.1497  0.6405  0.4904
19795TIP3   OH280799   5.444   4.336  11.737  0.0747  0.0764 -0.3962
19795TIP3    H180800   5.353   4.306  11.733 -0.5254  1.7733 -0.3372
19795TIP3    H280801   5.492   4.275  11.682 -1.5163  0.5023 -2.3639
19796TIP3   OH280802   1.306   5.318  12.849  0.4424  0.0150  0.3253
19796TIP3    H180803   1.380   5.269  12.816  1.2924  1.5698 -0.1929
19796TIP3    H280804   1.343   5.402  12.876 -0.9702  0.4527  1.0067
19797TIP3   OH280805   2.523   3.205  15.831 -0.2003 -0.1955 -0.0597
19797TIP3    H180806   2.524   3.111  15.810  0.1916 -0.3940  0.7764
19797TIP3    H280807   2.553   3.209  15.922  1.7163  0.9001 -0.6924
19798TIP3   OH280808   3.607   5.343   6.380  0.5203 -0.3244  0.6845
19798TIP3    H180809   3.610   5.300   6.465  0.6354 -0.6586  0.5120
19798TIP3    H280810   3.580   5.275   6.319 -2.0480  0.4661  0.8058
19799TIP3   OH280811   5.404   2.490  12.929 -0.7053  0.2442  0.1273
19799TIP3    H180812   5.418   2.565  12.872 -1.7519  1.6175  1.5765
19799TIP3    H280813   5.486   2.441  12.925  0.4530  2.0915  0.0369
19800TIP3   OH280814   6.245   5.043   1.885  0.4508 -0.0898 -0.5119
19800TIP3    H180815   6.196   5.122   1.904  0.1896 -0.3105 -0.2616
19800TIP3    H280816   6.223   4.983   1.956 -0.8355 -1.0652 -1.6754
19801TIP3   OH280817   1.327   1.209   3.617 -0.3728 -0.3295 -0.5097
19801TIP3    H180818   1.325   1.254   3.532 -1.6673 -1.5681 -1.1705
19801TIP3    H280819   1.321   1.280   3.681  2.1559  0.7666 -1.3520
19802TIP3   OH280820   5.433   4.447   1.241 -0.5420 -0.3493 -0.2927
19802TIP3    H180821   5.422   4.539   1.217 -0.0660 -0.1468  0.2474
19802TIP3    H280822   5.517   4.422   1.200 -0.0662 -0.1956  0.5773
19803TIP3   OH280823   4.756   2.963   4.216  0.2176 -0.2552  0.6842
19803TIP3    H180824   4.750   3.023   4.141  1.2877 -0.6426  0.2736
19803TIP3    H280825   4.713   2.883   4.186 -0.6776  0.0846  1.0226
19804TIP3   OH280826   5.036   6.208   4.191  0.0570 -0.2385  0.0618
19804TIP3    H180827   4.951   6.178   4.224  0.1019 -0.9242 -0.4072
19804TIP3    H280828   5.097   6.138   4.215  0.3266 -0.1525 -0.3559
19805TIP3   OH280829   6.217   5.568   3.511 -0.3609  0.1710  0.3384
19805TIP3    H180830   6.272   5.578   3.589  2.6355 -0.6377 -1.4987
19805TIP3    H280831   6.149   5.505   3.537  1.0747 -0.7605  2.0503
19806TIP3   OH280832   3.022   0.247   2.800  0.2145 -0.5985 -0.1133
19806TIP3    H180833   3.036   0.153   2.814 -1.2540 -0.9588 -0.9621
19806TIP3    H280834   3.034   0.260   2.706  1.4358  0.2831  0.1282
19807TIP3   OH280835   0.616   2.829  11.253  0.6440  1.5985  0.2273
19807TIP3    H180836   0.595   2.904  11.197  0.1506  1.6022  0.4102
19807TIP3    H280837   0.547   2.766  11.234  1.3895  0.9446 -0.3623
19808TIP3   OH280838   6.396   3.304   3.641  0.3723 -0.7092  0.4613
19808TIP3    H180839   6.416   3.385   3.595  0.3935 -0.2451  1.2698
19808TIP3    H280840   6.422   3.235   3.580 -0.5113 -0.1268 -0.6123
19809TIP3   OH280841   3.667   3.762  12.480  0.3966 -0.6086 -0.5140
19809TIP3    H180842   3.676   3.680  12.430  1.9991 -1.0943  0.5011
19809TIP3    H280843   3.751   3.773  12.523 -0.2054  0.9776  0.3218
19810TIP3   OH280844   3.618   3.740  13.113  0.0999  0.1080  0.5250
19810TIP3    H180845   3.570   3.659  13.096 -0.4826  0.2449  1.4318
19810TIP3    H280846   3.565   3.786  13.177  1.1671  0.5357  1.1316
19811TIP3   OH280847   6.491   2.682   3.776  0.0978  0.2206  0.5815
19811TIP3    H180848   6.438   2.662   3.854 -1.6826  1.1280 -0.3401
19811TIP3    H280849   6.494   2.777   3.772  1.4783  0.1933  0.3508
19812TIP3   OH280850   1.032   2.612  12.261  0.7101  0.3695  0.0068
19812TIP3    H180851   1.093   2.677  12.298  1.0046 -0.0842  0.3281
19812TIP3    H280852   0.946   2.650  12.276  0.8630  0.5294  0.5267
19813TIP3   OH280853   2.743   2.296  16.111  0.1023  0.3629  0.3393
19813TIP3    H180854   2.812   2.286  16.045 -0.3800  1.9709 -0.4623
19813TIP3    H280855   2.716   2.207  16.131  1.3809 -0.2272 -0.4396
19814TIP3   OH280856   2.169   6.603   0.440  0.0494 -0.0809  0.0130
19814TIP3    H180857   2.173   6.596   0.344  0.1942 -0.7517  0.0619
19814TIP3    H280858   2.085   6.645   0.458  0.2270  0.4765 -0.4252
19815TIP3   OH280859   4.938   3.835   0.433 -0.0658 -0.3476 -0.2248
19815TIP3    H180860   4.972   3.749   0.457 -1.7241 -0.5564  1.7059
19815TIP3    H280861   4.843   3.827   0.445 -0.2237  1.8471  0.4448
19816TIP3   OH280862   3.169   6.288  15.419  0.0810  0.4836  0.5352
19816TIP3    H180863   3.229   6.283  15.494 -0.0144 -0.3926  0.5589
19816TIP3    H280864   3.099   6.227  15.439 -0.0833  0.4354 -0.1554
19817TIP3   OH280865   3.673   5.836   0.072  0.0898  0.0910 -0.4874
19817TIP3    H180866   3.721   5.754   0.083  0.6123  0.4787  0.2555
19817TIP3    H280867   3.605   5.816   0.008  1.5292 -0.3693 -1.9532
19818TIP3   OH280868   6.234   1.856  12.640  0.1114 -0.6994  0.1880
19818TIP3    H180869   6.276   1.919  12.581  2.3188 -0.9453  1.3816
19818TIP3    H280870   6.152   1.833  12.596 -0.9924  3.2094 -0.1647
19819TIP3   OH280871   4.448   4.741   4.986  0.2335 -0.1942 -0.7392
19819TIP3    H180872   4.474   4.657   5.025  0.9731  0.5966  0.5497
19819TIP3    H280873   4.360   4.725   4.952  0.3759 -1.4996 -0.5655
19820TIP3   OH280874   4.917   1.234  13.621  0.0798  0.0661  0.2776
19820TIP3    H180875   4.854   1.214  13.552  0.7582 -0.1699 -0.2852
19820TIP3    H280876   4.864   1.246  13.700 -0.5911 -0.9452 -0.0122
19821TIP3   OH280877   5.544   2.165   4.678 -0.3348  0.4118  0.2202
19821TIP3    H180878   5.633   2.151   4.645 -0.7085  2.2172 -1.7992
19821TIP3    H280879   5.555   2.225   4.752  0.0819  1.9000 -0.9922
19822TIP3   OH280880   4.997   3.589  16.667 -0.0942  0.0613 -0.5473
19822TIP3    H180881   4.946   3.559  16.741 -0.4777  0.5499 -0.6071
19822TIP3    H280882   5.013   3.510  16.615  2.0868 -0.7277  1.1563
19823TIP3   OH280883   0.317   6.325  16.649 -0.6087  0.0172 -0.0987
19823TIP3    H180884   0.297   6.248  16.596 -2.1070 -0.0398  0.4692
19823TIP3    H280885   0.262   6.395  16.612 -0.0772  0.5229  0.0575
19824TIP3   OH280886   2.896   2.245   2.214 -0.5032 -0.0321 -0.3917
19824TIP3    H180887   2.857   2.198   2.288 -1.8169  0.2603 -0.8611
19824TIP3    H280888   2.973   2.288   2.250 -0.1383 -1.3066  0.3941
19825TIP3   OH280889   2.148   2.792  11.218  0.2772 -0.0025  0.5288
19825TIP3    H180890   2.071   2.779  11.274 -0.0782  0.4179  0.1428
19825TIP3    H280891   2.118   2.771  11.130  0.2116  1.4790  0.1641
19826TIP3   OH280892   4.869   0.132   0.792 -0.2608  0.0957  1.0105
19826TIP3    H180893   4.809   0.072   0.838 -1.2699  0.0525 -0.2929
19826TIP3    H280894   4.816   0.168   0.721  1.3451 -0.1587 -0.3686
19827TIP3   OH280895   2.398   3.984  13.545 -0.2024 -0.0889  0.3140
19827TIP3    H180896   2.420   3.968  13.636 -0.9245  0.3504  0.5781
19827TIP3    H280897   2.396   4.080  13.537  1.5021 -0.0859 -0.5854
19828TIP3   OH280898   0.555   1.500  13.559 -0.0982 -0.1779  0.4707
19828TIP3    H180899   0.510   1.464  13.636 -0.6076 -0.3686  0.0923
19828TIP3    H280900   0.577   1.590  13.583 -0.6009 -0.1128  0.6984
19829TIP3   OH280901   4.069   4.736  17.253 -0.6007 -0.2217 -0.0886
19829TIP3    H180902   4.054   4.830  17.267  3.1299  0.2352  2.1681
19829TIP3    H280903   3.997   4.694  17.301 -1.5291  1.4665  0.1063
19830TIP3   OH280904   5.961   6.684  16.379 -0.2632 -0.5612 -0.4736
19830TIP3    H180905   5.987   6.736  16.456  2.0993  2.5682 -3.0919
19830TIP3    H280906   5.866   6.685  16.381 -0.2908  1.5342  1.1560
19831TIP3   OH280907   2.861   1.395  10.608  0.1107  0.1122  0.0014
19831TIP3    H180908   2.765   1.395  10.600  0.0996 -0.6908  0.0832
19831TIP3    H280909   2.878   1.362  10.696  0.4461  1.3431  0.4236
19832TIP3   OH280910   1.501   0.522   3.737  0.0499 -0.1999  0.1916
19832TIP3    H180911   1.496   0.563   3.651  0.3352  0.6154  0.5582
19832TIP3    H280912   1.409   0.507   3.761 -0.1199  1.2753  0.5416
19833TIP3   OH280913   0.313   3.371   5.188  0.1034 -0.1187 -0.3924
19833TIP3    H180914   0.250   3.425   5.140  1.2451 -0.0738 -1.9490
19833TIP3    H280915   0.398   3.394   5.150  0.5919 -3.6797 -1.9067
19834TIP3   OH280916   0.140   5.685  10.712  0.5357  0.4193  0.3055
19834TIP3    H180917   0.067   5.649  10.762  1.7697 -0.4370  1.5746
19834TIP3    H280918   0.142   5.777  10.736 -1.1287  0.8512 -1.0511
19835TIP3   OH280919   6.639   1.481   4.314 -0.5154 -0.0942 -1.0489
19835TIP3    H180920   6.662   1.399   4.358  0.7527  0.7382 -0.0971
19835TIP3    H280921   6.560   1.510   4.358 -0.1651 -0.0932 -0.4118
19836TIP3   OH280922   0.367   0.969   4.938  0.3453  0.1207  0.3141
19836TIP3    H180923   0.319   0.959   4.855 -1.3891  0.2732  1.2463
19836TIP3    H280924   0.310   0.929   5.003  1.3558  0.6310  1.5524
19837TIP3   OH280925   3.747   4.216   0.263  0.1354  0.3095 -0.6800
19837TIP3    H180926   3.784   4.214   0.175  0.3658  0.0041 -0.5775
19837TIP3    H280927   3.729   4.309   0.279  1.1501  0.4962 -0.6062
19838TIP3   OH280928   1.857   0.172  14.473 -0.4868  0.0209  0.1166
19838TIP3    H180929   1.846   0.080  14.497 -2.7456  0.2423  0.0925
19838TIP3    H280930   1.774   0.197  14.433 -0.4644  2.4520  1.3855
19839TIP3   OH280931   2.455   2.831   5.029 -0.3184  0.0735  0.8989
19839TIP3    H180932   2.462   2.809   4.936 -0.4563  1.4224  0.5514
19839TIP3    H280933   2.369   2.871   5.037 -0.3808 -0.2092  1.6548
19840TIP3   OH280934   6.582   4.577   0.396 -0.1314  0.7103 -0.1776
19840TIP3    H180935   6.507   4.530   0.432  0.9352  0.5383  2.0019
19840TIP3    H280936   6.577   4.562   0.301 -2.3375  0.0077 -0.0034
19841TIP3   OH280937   2.712   4.521  17.287  0.0696  0.3279 -0.3404
19841TIP3    H180938   2.711   4.531  17.191 -0.3349  0.2881 -0.3438
19841TIP3    H280939   2.802   4.539  17.312 -0.1116  1.6686 -0.5886
19842TIP3   OH280940   2.767   4.268  16.061 -0.1144 -0.2090 -0.0077
19842TIP3    H180941   2.682   4.305  16.036 -0.4538  1.4688  3.0774
19842TIP3    H280942   2.821   4.345  16.082  1.4323 -1.3264  0.2445
19843TIP3   OH280943   1.900   4.964   2.797  0.1444 -0.8229 -0.1154
19843TIP3    H180944   1.930   5.052   2.819 -1.0178 -0.1010 -1.2408
19843TIP3    H280945   1.935   4.947   2.709 -0.7637 -0.8913 -0.4867
19844TIP3   OH280946   1.072   3.189   6.185  0.1638  0.0508 -0.0791
19844TIP3    H180947   1.062   3.253   6.114 -1.3444 -2.0495 -1.9210
19844TIP3    H280948   1.166   3.177   6.194  0.5250  2.9474  0.8069
19845TIP3   OH280949   4.381   2.983  11.433  0.4478 -0.8903  0.3351
19845TIP3    H180950   4.405   3.075  11.429 -2.8431  0.1064  0.1649
19845TIP3    H280951   4.319   2.972  11.361  1.9033 -3.6855 -0.6321
19846TIP3   OH280952   5.489   5.351   4.186  0.4740  0.5581  0.4318
19846TIP3    H180953   5.406   5.342   4.141  1.4300  0.8071 -1.4747
19846TIP3    H280954   5.484   5.289   4.259 -1.3712  0.6054  0.3875
19847TIP3   OH280955   1.920   4.785  17.030  0.7264 -0.3798  0.2943
19847TIP3    H180956   1.838   4.808  16.986 -0.0778  0.2987  2.0335
19847TIP3    H280957   1.986   4.788  16.961 -0.3842  1.1254 -0.7740
19848TIP3   OH280958   1.294   1.416   3.839  0.0303 -0.0214  0.1711
19848TIP3    H180959   1.204   1.449   3.845  0.6111  1.7788 -0.6190
19848TIP3    H280960   1.348   1.487   3.872  1.2889 -0.4280 -0.9648
19849TIP3   OH280961   3.123   3.314   0.358 -0.0579  0.3211  0.2900
19849TIP3    H180962   3.053   3.271   0.307 -1.1078  0.0012  1.9344
19849TIP3    H280963   3.197   3.255   0.350 -0.5230 -0.2367 -0.0253
19850TIP3   OH280964   4.364   4.917   3.070 -0.1283  0.2352  0.2736
19850TIP3    H180965   4.343   4.847   3.009 -0.5529 -0.8208  1.5878
19850TIP3    H280966   4.458   4.910   3.085 -0.2325 -0.3215  0.6999
19851TIP3   OH280967   0.064   2.334   2.905 -0.4953 -0.3310 -0.2509
19851TIP3    H180968   0.109   2.250   2.918 -0.4139 -0.4967 -1.4917
19851TIP3    H280969   0.127   2.387   2.856 -0.5234  0.4881  0.5774
19852TIP3   OH280970   3.784   3.228   1.712  0.0254  0.0544 -0.3934
19852TIP3    H180971   3.846   3.230   1.785 -0.9206  0.4627  0.4371
19852TIP3    H280972   3.710   3.177   1.746 -0.4573  0.3139 -1.0438
19853TIP3   OH280973   2.665   3.397   3.419  0.4337  0.2137 -0.3825
19853TIP3    H180974   2.753   3.365   3.437  1.1828  2.3787  0.1551
19853TIP3    H280975   2.676   3.491   3.407 -1.9409  0.6789  0.5463
19854TIP3   OH280976   3.898   3.116  12.393 -0.1466 -0.0837 -0.0384
19854TIP3    H180977   3.892   3.203  12.433  0.0452  0.4963 -1.2295
19854TIP3    H280978   3.981   3.081  12.427  0.6514  0.9138 -0.8680
19855TIP3   OH280979   1.584   4.092  12.434 -0.6596  0.5146  0.7501
19855TIP3    H180980   1.537   4.125  12.358 -3.4109 -2.8617  0.7697
19855TIP3    H280981   1.659   4.045  12.398 -2.4520 -1.8686 -0.1245
19856TIP3   OH280982   6.035   0.175   5.842  0.0258 -0.4072  0.0197
19856TIP3    H180983   5.997   0.105   5.895 -0.9718 -0.1422 -0.3353
19856TIP3    H280984   6.124   0.185   5.877 -0.1529 -1.1650  0.7308
19857TIP3   OH280985   0.857   2.230  14.367  0.0921 -0.2851 -1.0515
19857TIP3    H180986   0.799   2.235  14.291 -0.7578  2.5975 -0.3468
19857TIP3    H280987   0.928   2.291  14.346 -0.1539  0.5478  0.4061
19858TIP3   OH280988   5.969   0.378  11.301 -0.2371 -0.5006 -0.1619
19858TIP3    H180989   5.925   0.303  11.341  1.1530 -1.1814  0.1395
19858TIP3    H280990   5.981   0.440  11.372 -0.1678 -0.5755 -0.1081
19859TIP3   OH280991   4.428   5.647   2.086 -0.1439 -0.5230 -0.5934
19859TIP3    H180992   4.340   5.611   2.089 -1.4856  2.4973 -0.0555
19859TIP3    H280993   4.474   5.604   2.158 -1.6866 -0.9713  0.1654
19860TIP3   OH280994   6.409   4.692  14.902 -0.0969 -0.2747 -0.2934
19860TIP3    H180995   6.412   4.757  14.832  0.8259 -1.5860 -1.5209
19860TIP3    H280996   6.316   4.672  14.912 -0.5972  2.2722  1.1841
19861TIP3   OH280997   5.284   0.468   3.877 -0.0234  0.1222  0.2455
19861TIP3    H180998   5.324   0.533   3.818  0.9556 -0.1037  0.6418
19861TIP3    H280999   5.190   0.472   3.857  0.3477 -0.4587 -1.8556
19862TIP3   OH281000   6.397   1.093  13.274  0.6991  0.0409 -0.2003
19862TIP3    H181001   6.479   1.140  13.289  1.4676 -1.3355  0.1872
19862TIP3    H281002   6.425   1.008  13.238 -0.5870 -0.2821 -0.4921
19863TIP3   OH281003   3.710   4.054  14.447 -0.3963  0.0566 -0.3814
19863TIP3    H181004   3.709   4.005  14.364 -0.3736 -1.0532  0.2534
19863TIP3    H281005   3.801   4.084  14.455  0.0109 -1.2059 -0.0013
19864TIP3   OH281006   4.694   5.034  16.748  0.1620 -0.6419  0.5794
19864TIP3    H181007   4.621   4.972  16.741  0.2315 -0.8014  1.2115
19864TIP3    H281008   4.659   5.116  16.714  0.1807 -1.1113 -0.6052
19865TIP3   OH281009   3.845   5.868  12.670 -0.2842 -0.6269  0.2774
19865TIP3    H181010   3.905   5.907  12.607 -0.5671 -1.6079 -0.6193
19865TIP3    H281011   3.782   5.937  12.689 -0.4947 -0.4719 -0.9180
19866TIP3   OH281012   1.050   1.255  16.596  0.7926 -0.1152 -0.3022
19866TIP3    H181013   0.959   1.274  16.575  1.0058  0.0130 -1.1118
19866TIP3    H281014   1.046   1.218  16.685  0.0874  1.0353  0.1753
19867TIP3   OH281015   6.303   5.143  12.505 -0.7739  0.4002 -0.9205
19867TIP3    H181016   6.342   5.148  12.592  1.4550  0.8086 -1.8896
19867TIP3    H281017   6.320   5.054  12.476 -2.1672  0.0351 -0.6909
19868TIP3   OH281018   2.086   4.635   3.579 -0.1862  0.5516 -0.5028
19868TIP3    H181019   2.059   4.648   3.670  2.1239  0.3810  0.2872
19868TIP3    H281020   2.111   4.543   3.575 -0.0710  0.6130 -1.2608
19869TIP3   OH281021   3.199   0.585   5.380 -0.7723 -0.3952 -0.4825
19869TIP3    H181022   3.123   0.627   5.419 -1.8402 -2.0833 -0.6707
19869TIP3    H281023   3.204   0.499   5.423  0.7364 -0.5022 -0.8206
19870TIP3   OH281024   3.291   4.219  13.264 -0.0350  0.2673  1.0094
19870TIP3    H181025   3.326   4.293  13.313  0.9452  0.8559 -0.5006
19870TIP3    H281026   3.366   4.162  13.249 -0.3681 -0.0261  0.4157
19871TIP3   OH281027   4.102   4.750   4.092 -0.1971 -0.4245 -0.2949
19871TIP3    H181028   4.031   4.803   4.129 -1.4550 -1.0386 -1.7135
19871TIP3    H281029   4.182   4.788   4.129 -1.1941  0.8685  0.6494
19872TIP3   OH281030   5.813   5.357   6.242 -0.5179  0.0889 -0.4752
19872TIP3    H181031   5.782   5.266   6.247 -2.5971  0.5425 -2.8323
19872TIP3    H281032   5.874   5.365   6.315 -0.9676 -2.9170  0.4058
19873TIP3   OH281033   1.701   4.698   6.926  0.2372 -0.6797  0.3131
19873TIP3    H181034   1.760   4.648   6.982 -1.5598 -2.2175  0.9177
19873TIP3    H281035   1.614   4.683   6.963 -0.7746 -0.0167 -1.6464
19874TIP3   OH281036   3.836   3.855  15.844  0.1593  0.6390 -0.1270
19874TIP3    H181037   3.779   3.778  15.842  0.8971  0.0935 -1.2097
19874TIP3    H281038   3.806   3.905  15.919 -0.9220 -0.2620  0.0688
19875TIP3   OH281039   4.688   5.589  14.281  0.1816  0.9235  0.3079
19875TIP3    H181040   4.696   5.551  14.193 -1.1065 -0.0385  0.5782
19875TIP3    H281041   4.775   5.579  14.319  0.5377  0.5866 -0.5562
19876TIP3   OH281042   6.254   5.297  17.486 -0.2932 -0.4231 -0.6379
19876TIP3    H181043   6.341   5.320  17.455  0.4560 -1.2887  0.7326
19876TIP3    H281044   6.264   5.211  17.527 -1.5133  0.0012  0.6424
19877TIP3   OH281045   4.890   6.547   0.699 -0.2512 -0.0295  0.2650
19877TIP3    H181046   4.808   6.594   0.712 -0.3409 -0.4461  1.3244
19877TIP3    H281047   4.917   6.569   0.610 -1.6822 -0.1433 -0.2210
19878TIP3   OH281048   2.815   6.058   3.851 -0.0575 -0.3674 -0.7797
19878TIP3    H181049   2.783   6.085   3.765  1.2266 -0.5060 -1.3186
19878TIP3    H281050   2.744   6.005   3.887 -2.2814  2.8796 -0.0480
19879TIP3   OH281051   1.025   5.009  11.560 -0.3729 -0.3003  0.2972
19879TIP3    H181052   0.982   4.975  11.638 -0.9491  1.7678  0.9528
19879TIP3    H281053   0.961   4.993  11.490 -0.4269 -0.9585  0.4876
19880TIP3   OH281054   6.466   6.184   5.396  0.4166 -0.0262  0.3468
19880TIP3    H181055   6.385   6.179   5.345  1.4766  3.0539 -2.0192
19880TIP3    H281056   6.515   6.106   5.371 -0.4045 -0.1578 -0.9611
19881TIP3   OH281057   0.084   3.435   0.569 -0.3188  0.1441 -0.0655
19881TIP3    H181058   0.023   3.365   0.593  0.5128 -1.1407 -1.6101
19881TIP3    H281059   0.040   3.482   0.498 -0.0750  0.0630 -0.2675
19882TIP3   OH281060   3.753   4.067  13.051 -0.0935 -0.6289  0.6593
19882TIP3    H181061   3.744   4.019  13.133 -0.8300 -1.5242  0.0763
19882TIP3    H281062   3.698   4.145  13.063 -0.2482 -0.7868  0.9888
19883TIP3   OH281063   3.494   2.967   5.480 -0.1290 -0.0836  0.0161
19883TIP3    H181064   3.489   3.055   5.518 -0.8412 -0.9724  2.1503
19883TIP3    H281065   3.481   2.980   5.386 -2.2217  1.9306  0.4934
19884TIP3   OH281066   1.804   1.862   3.652 -0.0603  0.2582  0.0797
19884TIP3    H181067   1.767   1.834   3.568 -1.8572 -0.1293  0.9442
19884TIP3    H281068   1.893   1.891   3.631 -0.7419  0.9818 -2.0964
19885TIP3   OH281069   4.983   3.581   0.543 -0.1268  0.4577  0.5058
19885TIP3    H181070   4.913   3.519   0.522 -0.7792  1.9509 -2.1729
19885TIP3    H281071   4.967   3.606   0.633 -2.8503  0.4619  0.0941
19886TIP3   OH281072   2.746   4.279  17.458  0.0744 -0.2895  0.6329
19886TIP3    H181073   2.826   4.229  17.443  0.7995  1.3752 -1.6805
19886TIP3    H281074   2.777   4.368  17.478 -1.1319  0.6529 -1.3977
19887TIP3   OH281075   6.264   5.759  12.404  0.2754 -0.1946 -0.1611
19887TIP3    H181076   6.266   5.847  12.440  1.3176  0.5984 -2.0410
19887TIP3    H281077   6.318   5.707  12.464 -1.5466  0.0160  1.8019
19888TIP3   OH281078   5.313   5.469   2.020 -0.4306  0.3840 -0.0782
19888TIP3    H181079   5.376   5.538   2.043 -0.3309  1.2856 -2.7433
19888TIP3    H281080   5.254   5.465   2.096  0.9565  1.7391  1.1449
19889TIP3   OH281081   0.218   6.710  12.555  0.5905 -0.3378  0.2991
19889TIP3    H181082   0.190   6.647  12.621 -1.4555 -1.6641 -1.6657
19889TIP3    H281083   0.160   6.695  12.481  0.1775  3.6862 -0.4619
19890TIP3   OH281084   2.062   4.963  12.614  0.5036  0.2428  0.1926
19890TIP3    H181085   2.121   4.899  12.654  1.0606  1.1660  0.8624
19890TIP3    H281086   1.998   4.909  12.566  1.5204 -0.7815 -0.0492
19891TIP3   OH281087   0.687   1.759   5.676  0.0084 -0.0286  0.0497
19891TIP3    H181088   0.759   1.714   5.721  0.4594  1.3598  0.7570
19891TIP3    H281089   0.727   1.838   5.640 -1.5629  2.0516  2.5111
19892TIP3   OH281090   3.474   4.174  16.124 -0.8560  0.0007 -0.3238
19892TIP3    H181091   3.434   4.254  16.160  1.0149  0.5890  0.5960
19892TIP3    H281092   3.478   4.190  16.030 -2.3866  0.0755 -0.4014
19893TIP3   OH281093   0.270   0.671  11.710  0.4075  0.2322  0.2030
19893TIP3    H181094   0.238   0.687  11.621  2.2711 -0.0512 -0.5651
19893TIP3    H281095   0.360   0.705  11.710 -0.0432  1.6374  2.4546
19894TIP3   OH281096   2.511   5.092  14.664 -0.6201  0.3413 -0.1245
19894TIP3    H181097   2.450   5.139  14.606 -1.9181 -0.3364  0.6635
19894TIP3    H281098   2.481   5.001  14.662  0.3537  0.0036  0.3128
19895TIP3   OH281099   2.969   4.997  13.386 -0.3094  0.1213  0.1070
19895TIP3    H181100   2.883   5.039  13.382  0.1937  1.5635  2.3119
19895TIP3    H281101   2.964   4.940  13.463 -0.0121 -1.6866 -1.1459
19896TIP3   OH281102   6.187   0.923   1.082 -0.0429  0.2996 -0.0121
19896TIP3    H181103   6.273   0.965   1.094  0.2437  0.2661 -1.7485
19896TIP3    H281104   6.206   0.829   1.085 -0.1600  0.2900  0.4772
19897TIP3   OH281105   6.148   3.156   5.863 -0.0572 -0.1536 -0.0125
19897TIP3    H181106   6.202   3.082   5.838 -1.0223 -0.5837 -0.9137
19897TIP3    H281107   6.068   3.146   5.812 -0.6410  0.9330  0.6347
19898TIP3   OH281108   1.777   1.203   6.270 -0.0453  0.3829 -0.8511
19898TIP3    H181109   1.690   1.239   6.290 -0.2396 -0.5051 -0.0342
19898TIP3    H281110   1.832   1.231   6.343  0.2920  0.6758 -1.2101
19899TIP3   OH281111   3.628   6.175   0.487 -0.1495  0.1143  0.0271
19899TIP3    H181112   3.651   6.130   0.406  0.2034 -0.4128  0.4109
19899TIP3    H281113   3.651   6.113   0.556  1.0169  1.1614  0.6130
19900TIP3   OH281114   2.544   5.351  15.920  0.1087  0.1148 -0.5794
19900TIP3    H181115   2.623   5.383  15.965 -1.5022  0.2484  2.4288
19900TIP3    H281116   2.537   5.259  15.945 -0.3949 -0.0565 -1.3005
19901TIP3   OH281117   3.690   0.843   6.232 -0.2984  0.6530 -0.0467
19901TIP3    H181118   3.614   0.794   6.262 -0.2033 -0.2613 -1.1791
19901TIP3    H281119   3.686   0.927   6.277 -0.0876 -0.6428  2.5391
19902TIP3   OH281120   0.363   1.844   1.591  0.2515  0.0195 -0.5050
19902TIP3    H181121   0.342   1.870   1.502  1.4067  0.8718 -0.5507
19902TIP3    H281122   0.321   1.759   1.602 -0.8286  0.4005 -1.4772
19903TIP3   OH281123   2.095   0.864  11.812  0.1775  0.8272 -0.2114
19903TIP3    H181124   2.113   0.958  11.807 -0.0778  0.8076 -2.5090
19903TIP3    H281125   2.074   0.838  11.722 -1.0168 -1.1929  0.5730
19904TIP3   OH281126   4.118   4.994  13.508 -0.5102  0.0837 -0.0154
19904TIP3    H181127   4.141   5.086  13.513 -3.8793  1.0921 -0.1993
19904TIP3    H281128   4.083   4.982  13.419 -0.6511 -1.2140  0.1853
19905TIP3   OH281129   3.423   2.850   6.029  0.2172  0.5192  0.1277
19905TIP3    H181130   3.440   2.944   6.034  0.2612  0.5066  0.2232
19905TIP3    H281131   3.337   2.839   6.069  0.5606  0.4218  0.8596
19906TIP3   OH281132   4.547   1.093  13.960 -0.1830 -0.4501  0.3116
19906TIP3    H181133   4.526   1.009  14.001  0.2382 -0.3792  0.6764
19906TIP3    H281134   4.523   1.081  13.868  0.0369 -1.0287  0.3226
19907TIP3   OH281135   0.982   6.200  16.451  0.7436  0.2633  0.1328
19907TIP3    H181136   0.943   6.143  16.518  2.0690  0.5920  1.2291
19907TIP3    H281137   1.075   6.176  16.450  0.7797  0.3324 -1.5593
19908TIP3   OH281138   0.813   0.125   3.553  0.6154  0.0503 -0.1846
19908TIP3    H181139   0.734   0.089   3.593  1.1014  1.3872  2.1717
19908TIP3    H281140   0.879   0.120   3.623  1.9433  1.1714 -1.3008
19909TIP3   OH281141   4.768   0.380  14.213  0.4330  0.1661  0.2839
19909TIP3    H181142   4.711   0.303  14.212  0.0038  0.4324  1.4964
19909TIP3    H281143   4.720   0.446  14.164 -0.1529  0.2684  0.9728
19910TIP3   OH281144   3.082   5.946  14.455  0.2351  0.0391 -0.1379
19910TIP3    H181145   3.138   5.870  14.437  1.4980  1.4807 -2.9749
19910TIP3    H281146   2.994   5.916  14.431  0.7853 -0.4351 -1.7160
19911TIP3   OH281147   2.589   1.961  17.118 -0.1353 -0.0754 -0.3445
19911TIP3    H181148   2.542   1.989  17.196 -0.1525  1.5105 -0.8929
19911TIP3    H281149   2.521   1.932  17.057 -0.2796  0.5825 -0.5011
19912TIP3   OH281150   0.206   5.600  15.829 -0.4066 -0.1583  0.6058
19912TIP3    H181151   0.293   5.595  15.868  0.6344 -0.2984 -1.6153
19912TIP3    H281152   0.157   5.529  15.871  0.7147 -0.4489  1.4689
19913TIP3   OH281153   0.056   0.352  11.497 -0.1426  0.6718  0.1806
19913TIP3    H181154   0.086   0.269  11.460 -0.8488  0.0334  0.9712
19913TIP3    H281155   0.064   0.415  11.426 -0.6135 -0.3196 -0.7765
19914TIP3   OH281156   4.097   0.334  16.487 -0.0452  0.0065  0.0538
19914TIP3    H181157   4.006   0.363  16.486 -0.4546 -1.2344  0.1539
19914TIP3    H281158   4.097   0.253  16.437  1.2522  0.6431 -1.0351
19915TIP3   OH281159   0.047   4.187  11.397  0.1236  0.6508 -0.0594
19915TIP3    H181160   0.097   4.265  11.421 -0.5461  1.0218  0.1625
19915TIP3    H281161   0.012   4.206  11.310  2.5482 -0.6947 -1.4328
19916TIP3   OH281162   3.208   4.003   1.957 -0.0367 -0.2332  0.1571
19916TIP3    H181163   3.176   4.043   1.876  1.0287 -1.0029 -0.6864
19916TIP3    H281164   3.203   4.072   2.023  3.1198  1.8599 -1.5443
19917TIP3   OH281165   6.433   6.031  14.690 -0.2940 -0.3412 -0.5045
19917TIP3    H181166   6.344   6.063  14.678 -0.4090 -0.5537 -0.2273
19917TIP3    H281167   6.487   6.109  14.701 -0.3175 -0.1657 -1.4814
19918TIP3   OH281168   4.713   1.669  13.199  0.1541 -0.2434  0.0962
19918TIP3    H181169   4.758   1.672  13.284  1.5895 -1.4551 -0.5795
19918TIP3    H281170   4.648   1.599  13.209 -0.5756  0.4738  0.5716
19919TIP3   OH281171   1.273   2.116  12.721 -0.1802  0.5485  0.2830
19919TIP3    H181172   1.365   2.133  12.741 -0.2204  2.6883 -1.0102
19919TIP3    H281173   1.268   2.022  12.705  1.6640  0.3216  0.8971
19920TIP3   OH281174   0.275   4.599   0.769  0.1135 -0.1047  0.1076
19920TIP3    H181175   0.309   4.518   0.807  0.7423 -1.0126 -2.2492
19920TIP3    H281176   0.204   4.570   0.711  0.7183  0.9514 -1.1911
19921TIP3   OH281177   5.600   2.480  16.491  0.8655 -0.3337  0.0279
19921TIP3    H181178   5.518   2.530  16.496  1.5624  0.8888 -0.3282
19921TIP3    H281179   5.607   2.454  16.400 -0.3977 -2.7099  0.5493
19922TIP3   OH281180   2.904   2.762   3.693  0.2420  0.4495 -0.0876
19922TIP3    H181181   2.977   2.733   3.748  0.1694 -0.3947 -0.4148
19922TIP3    H281182   2.942   2.830   3.637  1.1679 -0.9383 -1.2256
19923TIP3   OH281183   5.202   3.988  16.625  0.5806  0.1609  0.2586
19923TIP3    H181184   5.189   3.896  16.650 -2.7672  0.3502 -0.3603
19923TIP3    H281185   5.274   3.986  16.562  1.3825 -1.8263  1.1469
19924TIP3   OH281186   1.820   4.392   0.353 -0.1190 -0.2406  0.1228
19924TIP3    H181187   1.828   4.296   0.352 -0.8583 -0.3037 -0.2066
19924TIP3    H281188   1.868   4.418   0.432  0.7072 -0.8149 -0.1701
19925TIP3   OH281189   1.780   5.274   5.285  0.4428  0.4277  0.2082
19925TIP3    H181190   1.841   5.251   5.215  1.4560  3.2190  0.0237
19925TIP3    H281191   1.837   5.297   5.359 -0.2726  3.2182 -0.0094
19926TIP3   OH281192   5.277   3.501   2.447  0.5612  0.0656 -1.0087
19926TIP3    H181193   5.220   3.431   2.479  0.9732 -0.3693 -1.2129
19926TIP3    H281194   5.227   3.542   2.377 -0.1461  0.7101 -0.1506
19927TIP3   OH281195   0.689   1.902   0.395  0.1832  0.5419  0.1338
19927TIP3    H181196   0.699   1.996   0.406 -0.5253  0.5374  0.9031
19927TIP3    H281197   0.646   1.891   0.310 -0.7475  0.9753  0.5364
19928TIP3   OH281198   2.439   6.435  17.436 -0.0768  0.0662  0.0032
19928TIP3    H181199   2.435   6.340  17.451 -1.0328 -0.1573 -1.4169
19928TIP3    H281200   2.418   6.445  17.343 -1.8104  1.7908  0.4969
19929TIP3   OH281201   1.074   3.506   6.796 -0.6706 -0.0307  0.7407
19929TIP3    H181202   1.164   3.488   6.822 -0.4643 -0.1828 -0.0409
19929TIP3    H281203   1.083   3.570   6.725 -1.0800 -1.1641 -0.3757
19930TIP3   OH281204   5.756   0.782   0.599  0.1087  0.4273  0.0722
19930TIP3    H181205   5.849   0.761   0.593  0.0428  0.3636 -0.7652
19930TIP3    H281206   5.717   0.742   0.522 -0.6209  0.4519  0.4195
19931TIP3   OH281207   5.129   1.001   5.924  0.4177  0.2087  0.4274
19931TIP3    H181208   5.155   1.050   5.845 -0.0133  0.2062  0.2806
19931TIP3    H281209   5.175   1.044   5.995  0.7597  0.2556  0.1795
19932TIP3   OH281210   4.747   2.632  16.788  0.2787 -0.7233  0.0932
19932TIP3    H181211   4.692   2.554  16.783 -0.1016 -0.3924 -1.6178
19932TIP3    H281212   4.804   2.617  16.863  0.2045 -2.6446 -0.1920
19933TIP3   OH281213   4.593   3.014   3.032 -0.1488  1.0354  0.3833
19933TIP3    H181214   4.606   3.077   3.103  1.5570 -0.6354  1.6568
19933TIP3    H281215   4.673   3.020   2.981 -0.6184  0.9533 -0.3652
19934TIP3   OH281216   0.016   1.772   5.123  0.2879  0.4212 -0.3753
19934TIP3    H181217   0.072   1.747   5.197  0.9246 -0.8553 -1.2583
19934TIP3    H281218  -0.073   1.764   5.156  0.3831 -3.3487 -0.5849
19935TIP3   OH281219   0.059   2.163  12.595 -1.3003  0.6388  0.3343
19935TIP3    H181220   0.089   2.167  12.504 -2.9384  0.5158 -0.2394
19935TIP3    H281221   0.054   2.254  12.623  1.2049  0.6415  1.0465
19936TIP3   OH281222   1.675   1.515   0.417  0.4982 -0.5506 -0.1515
19936TIP3    H181223   1.742   1.467   0.467 -0.1087 -0.1647  1.0872
19936TIP3    H281224   1.600   1.456   0.416  0.7560 -0.8796 -1.3227
19937TIP3   OH281225   2.137   5.003   4.217  0.1433 -0.3798  0.4348
19937TIP3    H181226   2.093   5.088   4.211 -0.3130 -0.6366  0.0922
19937TIP3    H281227   2.080   4.950   4.272  0.9902 -0.1258  1.5918
19938TIP3   OH281228   5.684   5.859  12.495  0.4889 -0.0124 -0.3172
19938TIP3    H181229   5.614   5.923  12.486  1.0513  0.8017  0.9571
19938TIP3    H281230   5.745   5.880  12.423 -0.4246 -0.5854 -1.2918
19939TIP3   OH281231   4.892   4.848  13.381  0.3526  0.2153 -0.2675
19939TIP3    H181232   4.986   4.857  13.369  0.1682  2.0583 -0.6971
19939TIP3    H281233   4.854   4.895  13.307 -0.8973  0.2665  0.3791
19940TIP3   OH281234   6.622   4.436  13.941 -0.3449  0.5187  0.4300
19940TIP3    H181235   6.550   4.422  13.879  1.2836  0.2622 -1.5235
19940TIP3    H281236   6.637   4.350  13.980  0.7052 -0.1147 -1.2847
19941TIP3   OH281237   0.722   6.091   1.286 -0.0687  0.2049  0.8174
19941TIP3    H181238   0.789   6.055   1.343 -1.2301 -2.1459  0.8079
19941TIP3    H281239   0.645   6.099   1.342 -1.1814 -1.9928 -0.2654
19942TIP3   OH281240   5.809   3.168  16.508 -0.0471  0.4231  0.2823
19942TIP3    H181241   5.887   3.139  16.554 -1.3282  1.2354  3.1557
19942TIP3    H281242   5.787   3.095  16.449  2.8579  0.2367 -0.7350
19943TIP3   OH281243   5.083   5.375   2.647  0.6674  0.2546  0.1266
19943TIP3    H181244   5.025   5.395   2.572  0.1215  2.0207  0.9599
19943TIP3    H281245   5.100   5.461   2.687  1.2402 -0.6112  1.8189
19944TIP3   OH281246   1.120   5.140   3.905  0.6323 -0.1431 -0.8043
19944TIP3    H181247   1.115   5.213   3.843 -2.0180  0.8976  0.5079
19944TIP3    H281248   1.029   5.116   3.922  1.2998 -1.2977  1.5951
19945TIP3   OH281249   0.133   3.101  16.648  0.1951  0.0445 -0.3654
19945TIP3    H181250   0.208   3.064  16.602 -1.1463 -0.1058 -2.5932
19945TIP3    H281251   0.124   3.190  16.614  1.0082  1.1244  2.0142
19946TIP3   OH281252   5.453   6.297  14.593  0.8614 -0.2758 -0.9390
19946TIP3    H181253   5.534   6.310  14.543  1.3839  0.4238  0.0666
19946TIP3    H281254   5.385   6.333  14.537  1.3408 -0.1788 -1.4760
19947TIP3   OH281255   6.003   5.972  14.005  0.7015 -0.3389 -0.4826
19947TIP3    H181256   5.914   6.007  14.001  0.9047  0.0783 -2.1807
19947TIP3    H281257   6.055   6.043  14.042 -0.0060 -1.4660  3.0355
19948TIP3   OH281258   3.058   2.355   1.530 -0.0661  0.0282 -0.0643
19948TIP3    H181259   3.121   2.329   1.597  0.9548  2.0578 -0.1646
19948TIP3    H281260   3.107   2.412   1.471 -1.4015 -0.2833 -1.5511
19949TIP3   OH281261   1.347   3.156   1.611 -0.3523  0.0012 -0.4068
19949TIP3    H181262   1.390   3.239   1.630 -0.6521  0.4205 -1.4947
19949TIP3    H281263   1.383   3.128   1.527 -0.9906 -0.4598 -0.5383
19950TIP3   OH281264   0.115   1.128  14.206  0.1469 -0.3392  0.0634
19950TIP3    H181265   0.192   1.075  14.185  0.3970 -0.1207  0.4110
19950TIP3    H281266   0.109   1.124  14.301 -0.2407 -0.3082  0.0401
19951TIP3   OH281267   4.344   4.938  12.129 -0.6719  0.2509 -0.5132
19951TIP3    H181268   4.268   4.981  12.090 -0.8338 -0.4365 -0.9977
19951TIP3    H281269   4.417   4.963  12.072 -0.7392  0.0180 -0.7053
19952TIP3   OH281270   4.391   3.764   0.479 -0.0132  0.3983 -0.3828
19952TIP3    H181271   4.392   3.849   0.435 -1.3425  0.9121  0.5332
19952TIP3    H281272   4.327   3.712   0.430 -0.1514  0.3591 -0.1609
19953TIP3   OH281273   5.254   0.772  14.396 -0.1714 -0.2662 -0.0368
19953TIP3    H181274   5.271   0.745  14.486  1.1122 -0.5278 -0.3314
19953TIP3    H281275   5.238   0.866  14.401  0.7104 -0.1258  0.3818
19954TIP3   OH281276   1.739   4.156   4.406 -0.2862  0.7338  0.4568
19954TIP3    H181277   1.821   4.163   4.358  0.1440  1.1327  1.2207
19954TIP3    H281278   1.671   4.159   4.339  0.3360 -1.4156 -0.3607
19955TIP3   OH281279   3.743   5.913  14.419 -0.2331 -0.1861 -0.2684
19955TIP3    H181280   3.822   5.941  14.465  0.7627 -0.7264 -1.6168
19955TIP3    H281281   3.702   5.850  14.479  1.2809 -1.2325 -0.2717
19956TIP3   OH281282   2.064   5.529  11.844 -0.6392  0.7117  0.0978
19956TIP3    H181283   1.972   5.554  11.854 -1.2069 -2.0163  3.5528
19956TIP3    H281284   2.062   5.455  11.784 -0.7564  0.4805  0.3844
19957TIP3   OH281285   3.308   6.008   5.165 -0.3012 -0.2935 -0.1192
19957TIP3    H181286   3.227   6.053   5.186 -1.2540 -1.9171 -0.1192
19957TIP3    H281287   3.294   5.918   5.194  0.3575 -1.3469 -2.7568
19958TIP3   OH281288   3.466   6.189   1.473 -0.4698  0.3907 -0.0138
19958TIP3    H181289   3.559   6.197   1.455 -0.5755  1.6024 -0.0617
19958TIP3    H281290   3.431   6.277   1.462 -1.3734  0.2389  1.3769
19959TIP3   OH281291   0.495   0.481   5.064  0.3305  0.1513 -0.4435
19959TIP3    H181292   0.529   0.482   4.975 -0.5053  1.4354 -0.7716
19959TIP3    H281293   0.514   0.568   5.098 -0.8044  0.2161  0.0612
19960TIP3   OH281294   1.955   6.584   5.002  0.1921  0.0073  0.2833
19960TIP3    H181295   2.050   6.585   4.986  0.1470 -3.0164 -0.7952
19960TIP3    H281296   1.947   6.551   5.091  0.0961  2.3971  1.2495
19961TIP3   OH281297   3.232   2.558  15.981 -0.0895  0.3789 -0.2199
19961TIP3    H181298   3.162   2.523  15.927  1.3806  0.7110 -2.5044
19961TIP3    H281299   3.252   2.489  16.045 -1.9759  0.0270  0.0339
19962TIP3   OH281300   1.421   2.952   6.004  0.1636  0.0456  0.6701
19962TIP3    H181301   1.389   2.884   5.945 -0.1807 -0.1655  1.0910
19962TIP3    H281302   1.487   2.909   6.058  0.4277  0.2205  0.4925
19963TIP3   OH281303   1.037   2.161  11.120  0.0428  0.4671 -0.2789
19963TIP3    H181304   0.996   2.159  11.033  0.7369  0.0786 -0.6029
19963TIP3    H281305   1.101   2.232  11.114 -0.6597  1.1726  0.2750
19964LIG      S81306   3.957   3.014  15.881 -0.3998 -0.4452 -0.3035
19964LIG     F181307   3.202   3.015  16.557  0.0430  0.2622  0.0608
19964LIG     F281308   3.317   3.043  16.802  0.0807 -0.3982  0.1614
19964LIG     N181309   3.639   3.089  15.891  0.3299  0.3477  0.1096
19964LIG     N281310   3.180   3.500  16.364  0.3400  0.5442 -0.3034
19964LIG     C181311   3.604   3.172  16.004  0.3234  0.2839  0.3209
19964LIG     C281312   3.730   3.151  15.792  0.5992  0.2789  0.2783
19964LIG     C381313   3.691   2.955  15.932 -0.2461 -0.5992  0.6051
19964LIG     C481314   3.529   3.298  15.951 -0.2913  0.6923  0.7255
19964LIG     C581315   3.869   3.172  15.853  0.7631 -0.2982 -0.3506
19964LIG     C681316   3.832   2.964  16.002  0.2840 -0.3479  0.6829
19964LIG     C781317   3.444   3.349  16.069  0.5659 -0.3630  0.3527
19964LIG     C881318   3.231   3.519  16.504 -0.2129  0.1122  0.6237
19964LIG     C981319   3.484   3.450  16.157  0.1904  0.0605  0.5203
19964LIG    C1081320   3.315   3.291  16.086 -0.2662  0.0646  0.2126
19964LIG    C1181321   3.272   3.444  16.268  0.5231 -0.7622  0.0890
19964LIG    C1281322   3.400   3.495  16.264 -0.7420  0.3620  0.3107
19964LIG    C1381323   3.226   3.343  16.179 -0.0680  0.1709  0.3670
19964LIG    C1481324   3.271   3.389  16.575  0.2824  0.2375  0.0982
19964LIG    C1581325   3.116   3.584  16.578 -0.0881  0.1986 -0.2555
19964LIG    C1681326   3.233   3.261  16.519  0.4524 -0.3871 -0.2347
19964LIG    C1781327   3.331   3.389  16.701 -0.9608  0.3312 -0.0779
19964LIG    C1881328   3.248   3.140  16.595  0.1291  0.6055  0.2435
19964LIG    C1981329   3.352   3.271  16.770 -0.0813 -0.6440 -0.2175
19964LIG    C2081330   3.308   3.151  16.723 -0.3276 -0.4452 -0.3316
19964LIG     H181331   3.692   3.195  16.068 -1.0126  0.0344  2.2985
19964LIG     H281332   3.548   3.112  16.078  1.7286 -0.6320  0.6722
19964LIG     H381333   3.699   3.254  15.764  0.2181 -0.0587 -0.5972
19964LIG     H481334   3.745   3.094  15.698  0.4742 -0.1172  0.4984
19964LIG     H581335   3.697   2.897  15.838  0.4965  0.3855  0.0255
19964LIG     H681336   3.610   2.920  16.000 -2.0713  2.6679  0.3245
19964LIG     H781337   3.464   3.277  15.863 -0.4811  1.3116  0.7110
19964LIG     H881338   3.604   3.375  15.922 -0.3543  1.1004  1.6021
19964LIG     H981339   3.920   3.227  15.771 -1.4362  2.3624 -0.1084
19964LIG    H1081340   3.859   3.231  15.947 -0.1402 -1.0954  0.0682
19964LIG    H1181341   3.821   3.029  16.091 -0.8980  0.7055 -0.1918
19964LIG    H1281342   3.841   2.857  16.031 -1.2211 -0.2296  1.6978
19964LIG    H1381343   3.311   3.595  16.501 -0.7230  0.6464  0.4279
19964LIG    H1481344   3.588   3.478  16.153  0.5819 -1.4531 -0.9083
19964LIG    H1581345   3.282   3.207  16.027 -2.2192  0.6058  0.4519
19964LIG    H1681346   3.094   3.447  16.371  0.1963  0.9602  1.6003
19964LIG    H1781347   3.438   3.568  16.334  1.5059  0.0908 -0.5684
19964LIG    H1881348   3.129   3.300  16.200  0.4503 -0.6793  1.1021
19964LIG    H1981349   3.149   3.622  16.677  2.1270 -1.8246 -0.1087
19964LIG    H2081350   3.029   3.516  16.584 -1.9810  2.5128 -0.0947
19964LIG    H2181351   3.080   3.673  16.522 -1.1230  0.0585  0.1610
19964LIG    H2281352   3.197   3.252  16.418  0.0004  0.7801 -0.1979
19964LIG    H2381353   3.362   3.482  16.747  3.1418 -0.3454 -1.0928
19964LIG    H2481354   3.375   3.285  16.875 -1.9353 -1.0979  0.2920
   6.73435   6.73435  17.51536
